%VERSION  VERSION_STAMP = V0001.000  DATE = 10/31/24  11:55:52                  
%FLAG TITLE                                                                     
%FORMAT(20a4)                                                                   
default_name                                                                    
%FLAG POINTERS                                                                  
%FORMAT(10I8)                                                                   
   51769      22   38672   13061     543     344    1120    1029       0       0
   92395   12887   13061     344    1029      68     146     156      39       1
       0       0       0       0       0       0       0       1      25       0
   12810
%FLAG ATOM_NAME                                                                 
%FORMAT(20a4)                                                                   
H1  CH3 H2  H3  C   O   N   H   CA  HA  CB  HB2 HB3 CG  CD1 HD1 NE1 HE1 CE2 CZ2 
HZ2 CH2 HH2 CZ3 HZ3 CE3 HE3 CD2 C   O   N   H   CA  HA  CB  HB  CG1 HG11HG12HG13
CG2 HG21HG22HG23C   O   N   H   CA  HA  CB  HB  CG2 HG21HG22HG23OG1 HG1 C   O   
N   H   CA  HA  CB  HB2 HB3 CG  ND1 HD1 CE1 HE1 NE2 CD2 HD2 C   O   N   H   CA  
HA  CB  HB2 HB3 CG  HG2 HG3 CD  HD2 HD3 NE  HE  CZ  NH1 HH11HH12NH2 HH21HH22C   
O   C   O   CA  C1B CB  CC  CD  CE  CF  CY  N   HB1 HB2 HB3 HB4 HB5 HC1 HC2 HD1 
HD2 HE  HF  HG1 HG2 H   N   H   CA  HA  CB  HB1 HB2 HB3 C   O   N   H   CA  HA2 
HA3 C   O   N   H   CA  HA  CB  HB2 HB3 CG  HG  CD1 HD11HD12HD13CD2 HD21HD22HD23
C   O   C   O   CA  C1B CB  CY  N   HB1 HB2 HB3 HB4 HB5 HC1 HC2 H   N   H   CA  
HA  CB  HB2 HB3 OG  HG  C   O   N   H   CA  HA  CB  HB2 HB3 CG  HG2 HG3 CD  HD2 
HD3 NE  HE  CZ  NH1 HH11HH12NH2 HH21HH22C   O   N   H   CA  HA  CB  HB2 HB3 OG  
HG  C   O   N   H   CA  HA2 HA3 C   O   N   H   CA  HA2 HA3 C   O   N   H   CA  
HA  CB  HB  CG1 HG11HG12HG13CG2 HG21HG22HG23C   O   N   H   CA  HA  CB  HB  CG1 
HG11HG12HG13CG2 HG21HG22HG23C   O   N   H   CA  HA  CB  HB2 HB3 CG  HG2 HG3 CD  
HD2 HD3 CE  HE2 HE3 NZ  HZ1 HZ2 HZ3 C   O   N   H   CA  HA  CB  HB2 HB3 CG  OD1 
ND2 HD21HD22C   O   N   H   CA  HA  CB  HB2 HB3 CG  OD1 ND2 HD21HD22C   O   N   
H   CA  HA  CB  HB2 HB3 CG  CD1 HD1 CE1 HE1 CZ  HZ  CE2 HE2 CD2 HD2 C   O   N   
H   CA  HA  CB  HB  CG1 HG11HG12HG13CG2 HG21HG22HG23C   O   N   CD  HD2 HD3 CG  
HG2 HG3 CB  HB2 HB3 CA  HA  C   O   N   H   CA  HA  CB  HB  CG2 HG21HG22HG23OG1 
HG1 C   O   N   H   CA  HA  CB  HB2 HB3 CG  OD1 OD2 C   O   N   H   CA  HA  CB  
HB  CG1 HG11HG12HG13CG2 HG21HG22HG23C   O   N   H   CA  HA2 HA3 C   O   N   CD  
HD2 HD3 CG  HG2 HG3 CB  HB2 HB3 CA  HA  C   O   N   H   CA  HA  CB  HB2 HB3 CG  
CD1 HD1 CE1 HE1 CZ  HZ  CE2 HE2 CD2 HD2 C   O   N   H   CA  HA  CB  HB1 HB2 HB3 
C   O   N   H   CA  HA  CB  HB2 HB3 CG  CD1 HD1 CE1 HE1 CZ  HZ  CE2 HE2 CD2 HD2 
C   O   N   HN1 HN2 Na+ Na+ Na+ Na+ Na+ Na+ Na+ Na+ Na+ Na+ Na+ Na+ Na+ Na+ Na+ 
Na+ Na+ Na+ Na+ Na+ Na+ Cl- Cl- Cl- Cl- Cl- Cl- Cl- Cl- Cl- Cl- Cl- Cl- Cl- Cl- 
Cl- Cl- Cl- Cl- Cl- Cl- Cl- Cl- Cl- O   H1  H2  EPW O   H1  H2  EPW O   H1  H2  
EPW O   H1  H2  EPW O   H1  H2  EPW O   H1  H2  EPW O   H1  H2  EPW O   H1  H2  
EPW O   H1  H2  EPW O   H1  H2  EPW O   H1  H2  EPW O   H1  H2  EPW O   H1  H2  
EPW O   H1  H2  EPW O   H1  H2  EPW O   H1  H2  EPW O   H1  H2  EPW O   H1  H2  
EPW O   H1  H2  EPW O   H1  H2  EPW O   H1  H2  EPW O   H1  H2  EPW O   H1  H2  
EPW O   H1  H2  EPW O   H1  H2  EPW O   H1  H2  EPW O   H1  H2  EPW O   H1  H2  
EPW O   H1  H2  EPW O   H1  H2  EPW O   H1  H2  EPW O   H1  H2  EPW O   H1  H2  
EPW O   H1  H2  EPW O   H1  H2  EPW O   H1  H2  EPW O   H1  H2  EPW O   H1  H2  
EPW O   H1  H2  EPW O   H1  H2  EPW O   H1  H2  EPW O   H1  H2  EPW O   H1  H2  
EPW O   H1  H2  EPW O   H1  H2  EPW O   H1  H2  EPW O   H1  H2  EPW O   H1  H2  
EPW O   H1  H2  EPW O   H1  H2  EPW O   H1  H2  EPW O   H1  H2  EPW O   H1  H2  
EPW O   H1  H2  EPW O   H1  H2  EPW O   H1  H2  EPW O   H1  H2  EPW O   H1  H2  
EPW O   H1  H2  EPW O   H1  H2  EPW O   H1  H2  EPW O   H1  H2  EPW O   H1  H2  
EPW O   H1  H2  EPW O   H1  H2  EPW O   H1  H2  EPW O   H1  H2  EPW O   H1  H2  
EPW O   H1  H2  EPW O   H1  H2  EPW O   H1  H2  EPW O   H1  H2  EPW O   H1  H2  
EPW O   H1  H2  EPW O   H1  H2  EPW O   H1  H2  EPW O   H1  H2  EPW O   H1  H2  
EPW O   H1  H2  EPW O   H1  H2  EPW O   H1  H2  EPW O   H1  H2  EPW O   H1  H2  
EPW O   H1  H2  EPW O   H1  H2  EPW O   H1  H2  EPW O   H1  H2  EPW O   H1  H2  
EPW O   H1  H2  EPW O   H1  H2  EPW O   H1  H2  EPW O   H1  H2  EPW O   H1  H2  
EPW O   H1  H2  EPW O   H1  H2  EPW O   H1  H2  EPW O   H1  H2  EPW O   H1  H2  
EPW O   H1  H2  EPW O   H1  H2  EPW O   H1  H2  EPW O   H1  H2  EPW O   H1  H2  
EPW O   H1  H2  EPW O   H1  H2  EPW O   H1  H2  EPW O   H1  H2  EPW O   H1  H2  
EPW O   H1  H2  EPW O   H1  H2  EPW O   H1  H2  EPW O   H1  H2  EPW O   H1  H2  
EPW O   H1  H2  EPW O   H1  H2  EPW O   H1  H2  EPW O   H1  H2  EPW O   H1  H2  
EPW O   H1  H2  EPW O   H1  H2  EPW O   H1  H2  EPW O   H1  H2  EPW O   H1  H2  
EPW O   H1  H2  EPW O   H1  H2  EPW O   H1  H2  EPW O   H1  H2  EPW O   H1  H2  
EPW O   H1  H2  EPW O   H1  H2  EPW O   H1  H2  EPW O   H1  H2  EPW O   H1  H2  
EPW O   H1  H2  EPW O   H1  H2  EPW O   H1  H2  EPW O   H1  H2  EPW O   H1  H2  
EPW O   H1  H2  EPW O   H1  H2  EPW O   H1  H2  EPW O   H1  H2  EPW O   H1  H2  
EPW O   H1  H2  EPW O   H1  H2  EPW O   H1  H2  EPW O   H1  H2  EPW O   H1  H2  
EPW O   H1  H2  EPW O   H1  H2  EPW O   H1  H2  EPW O   H1  H2  EPW O   H1  H2  
EPW O   H1  H2  EPW O   H1  H2  EPW O   H1  H2  EPW O   H1  H2  EPW O   H1  H2  
EPW O   H1  H2  EPW O   H1  H2  EPW O   H1  H2  EPW O   H1  H2  EPW O   H1  H2  
EPW O   H1  H2  EPW O   H1  H2  EPW O   H1  H2  EPW O   H1  H2  EPW O   H1  H2  
EPW O   H1  H2  EPW O   H1  H2  EPW O   H1  H2  EPW O   H1  H2  EPW O   H1  H2  
EPW O   H1  H2  EPW O   H1  H2  EPW O   H1  H2  EPW O   H1  H2  EPW O   H1  H2  
EPW O   H1  H2  EPW O   H1  H2  EPW O   H1  H2  EPW O   H1  H2  EPW O   H1  H2  
EPW O   H1  H2  EPW O   H1  H2  EPW O   H1  H2  EPW O   H1  H2  EPW O   H1  H2  
EPW O   H1  H2  EPW O   H1  H2  EPW O   H1  H2  EPW O   H1  H2  EPW O   H1  H2  
EPW O   H1  H2  EPW O   H1  H2  EPW O   H1  H2  EPW O   H1  H2  EPW O   H1  H2  
EPW O   H1  H2  EPW O   H1  H2  EPW O   H1  H2  EPW O   H1  H2  EPW O   H1  H2  
EPW O   H1  H2  EPW O   H1  H2  EPW O   H1  H2  EPW O   H1  H2  EPW O   H1  H2  
EPW O   H1  H2  EPW O   H1  H2  EPW O   H1  H2  EPW O   H1  H2  EPW O   H1  H2  
EPW O   H1  H2  EPW O   H1  H2  EPW O   H1  H2  EPW O   H1  H2  EPW O   H1  H2  
EPW O   H1  H2  EPW O   H1  H2  EPW O   H1  H2  EPW O   H1  H2  EPW O   H1  H2  
EPW O   H1  H2  EPW O   H1  H2  EPW O   H1  H2  EPW O   H1  H2  EPW O   H1  H2  
EPW O   H1  H2  EPW O   H1  H2  EPW O   H1  H2  EPW O   H1  H2  EPW O   H1  H2  
EPW O   H1  H2  EPW O   H1  H2  EPW O   H1  H2  EPW O   H1  H2  EPW O   H1  H2  
EPW O   H1  H2  EPW O   H1  H2  EPW O   H1  H2  EPW O   H1  H2  EPW O   H1  H2  
EPW O   H1  H2  EPW O   H1  H2  EPW O   H1  H2  EPW O   H1  H2  EPW O   H1  H2  
EPW O   H1  H2  EPW O   H1  H2  EPW O   H1  H2  EPW O   H1  H2  EPW O   H1  H2  
EPW O   H1  H2  EPW O   H1  H2  EPW O   H1  H2  EPW O   H1  H2  EPW O   H1  H2  
EPW O   H1  H2  EPW O   H1  H2  EPW O   H1  H2  EPW O   H1  H2  EPW O   H1  H2  
EPW O   H1  H2  EPW O   H1  H2  EPW O   H1  H2  EPW O   H1  H2  EPW O   H1  H2  
EPW O   H1  H2  EPW O   H1  H2  EPW O   H1  H2  EPW O   H1  H2  EPW O   H1  H2  
EPW O   H1  H2  EPW O   H1  H2  EPW O   H1  H2  EPW O   H1  H2  EPW O   H1  H2  
EPW O   H1  H2  EPW O   H1  H2  EPW O   H1  H2  EPW O   H1  H2  EPW O   H1  H2  
EPW O   H1  H2  EPW O   H1  H2  EPW O   H1  H2  EPW O   H1  H2  EPW O   H1  H2  
EPW O   H1  H2  EPW O   H1  H2  EPW O   H1  H2  EPW O   H1  H2  EPW O   H1  H2  
EPW O   H1  H2  EPW O   H1  H2  EPW O   H1  H2  EPW O   H1  H2  EPW O   H1  H2  
EPW O   H1  H2  EPW O   H1  H2  EPW O   H1  H2  EPW O   H1  H2  EPW O   H1  H2  
EPW O   H1  H2  EPW O   H1  H2  EPW O   H1  H2  EPW O   H1  H2  EPW O   H1  H2  
EPW O   H1  H2  EPW O   H1  H2  EPW O   H1  H2  EPW O   H1  H2  EPW O   H1  H2  
EPW O   H1  H2  EPW O   H1  H2  EPW O   H1  H2  EPW O   H1  H2  EPW O   H1  H2  
EPW O   H1  H2  EPW O   H1  H2  EPW O   H1  H2  EPW O   H1  H2  EPW O   H1  H2  
EPW O   H1  H2  EPW O   H1  H2  EPW O   H1  H2  EPW O   H1  H2  EPW O   H1  H2  
EPW O   H1  H2  EPW O   H1  H2  EPW O   H1  H2  EPW O   H1  H2  EPW O   H1  H2  
EPW O   H1  H2  EPW O   H1  H2  EPW O   H1  H2  EPW O   H1  H2  EPW O   H1  H2  
EPW O   H1  H2  EPW O   H1  H2  EPW O   H1  H2  EPW O   H1  H2  EPW O   H1  H2  
EPW O   H1  H2  EPW O   H1  H2  EPW O   H1  H2  EPW O   H1  H2  EPW O   H1  H2  
EPW O   H1  H2  EPW O   H1  H2  EPW O   H1  H2  EPW O   H1  H2  EPW O   H1  H2  
EPW O   H1  H2  EPW O   H1  H2  EPW O   H1  H2  EPW O   H1  H2  EPW O   H1  H2  
EPW O   H1  H2  EPW O   H1  H2  EPW O   H1  H2  EPW O   H1  H2  EPW O   H1  H2  
EPW O   H1  H2  EPW O   H1  H2  EPW O   H1  H2  EPW O   H1  H2  EPW O   H1  H2  
EPW O   H1  H2  EPW O   H1  H2  EPW O   H1  H2  EPW O   H1  H2  EPW O   H1  H2  
EPW O   H1  H2  EPW O   H1  H2  EPW O   H1  H2  EPW O   H1  H2  EPW O   H1  H2  
EPW O   H1  H2  EPW O   H1  H2  EPW O   H1  H2  EPW O   H1  H2  EPW O   H1  H2  
EPW O   H1  H2  EPW O   H1  H2  EPW O   H1  H2  EPW O   H1  H2  EPW O   H1  H2  
EPW O   H1  H2  EPW O   H1  H2  EPW O   H1  H2  EPW O   H1  H2  EPW O   H1  H2  
EPW O   H1  H2  EPW O   H1  H2  EPW O   H1  H2  EPW O   H1  H2  EPW O   H1  H2  
EPW O   H1  H2  EPW O   H1  H2  EPW O   H1  H2  EPW O   H1  H2  EPW O   H1  H2  
EPW O   H1  H2  EPW O   H1  H2  EPW O   H1  H2  EPW O   H1  H2  EPW O   H1  H2  
EPW O   H1  H2  EPW O   H1  H2  EPW O   H1  H2  EPW O   H1  H2  EPW O   H1  H2  
EPW O   H1  H2  EPW O   H1  H2  EPW O   H1  H2  EPW O   H1  H2  EPW O   H1  H2  
EPW O   H1  H2  EPW O   H1  H2  EPW O   H1  H2  EPW O   H1  H2  EPW O   H1  H2  
EPW O   H1  H2  EPW O   H1  H2  EPW O   H1  H2  EPW O   H1  H2  EPW O   H1  H2  
EPW O   H1  H2  EPW O   H1  H2  EPW O   H1  H2  EPW O   H1  H2  EPW O   H1  H2  
EPW O   H1  H2  EPW O   H1  H2  EPW O   H1  H2  EPW O   H1  H2  EPW O   H1  H2  
EPW O   H1  H2  EPW O   H1  H2  EPW O   H1  H2  EPW O   H1  H2  EPW O   H1  H2  
EPW O   H1  H2  EPW O   H1  H2  EPW O   H1  H2  EPW O   H1  H2  EPW O   H1  H2  
EPW O   H1  H2  EPW O   H1  H2  EPW O   H1  H2  EPW O   H1  H2  EPW O   H1  H2  
EPW O   H1  H2  EPW O   H1  H2  EPW O   H1  H2  EPW O   H1  H2  EPW O   H1  H2  
EPW O   H1  H2  EPW O   H1  H2  EPW O   H1  H2  EPW O   H1  H2  EPW O   H1  H2  
EPW O   H1  H2  EPW O   H1  H2  EPW O   H1  H2  EPW O   H1  H2  EPW O   H1  H2  
EPW O   H1  H2  EPW O   H1  H2  EPW O   H1  H2  EPW O   H1  H2  EPW O   H1  H2  
EPW O   H1  H2  EPW O   H1  H2  EPW O   H1  H2  EPW O   H1  H2  EPW O   H1  H2  
EPW O   H1  H2  EPW O   H1  H2  EPW O   H1  H2  EPW O   H1  H2  EPW O   H1  H2  
EPW O   H1  H2  EPW O   H1  H2  EPW O   H1  H2  EPW O   H1  H2  EPW O   H1  H2  
EPW O   H1  H2  EPW O   H1  H2  EPW O   H1  H2  EPW O   H1  H2  EPW O   H1  H2  
EPW O   H1  H2  EPW O   H1  H2  EPW O   H1  H2  EPW O   H1  H2  EPW O   H1  H2  
EPW O   H1  H2  EPW O   H1  H2  EPW O   H1  H2  EPW O   H1  H2  EPW O   H1  H2  
EPW O   H1  H2  EPW O   H1  H2  EPW O   H1  H2  EPW O   H1  H2  EPW O   H1  H2  
EPW O   H1  H2  EPW O   H1  H2  EPW O   H1  H2  EPW O   H1  H2  EPW O   H1  H2  
EPW O   H1  H2  EPW O   H1  H2  EPW O   H1  H2  EPW O   H1  H2  EPW O   H1  H2  
EPW O   H1  H2  EPW O   H1  H2  EPW O   H1  H2  EPW O   H1  H2  EPW O   H1  H2  
EPW O   H1  H2  EPW O   H1  H2  EPW O   H1  H2  EPW O   H1  H2  EPW O   H1  H2  
EPW O   H1  H2  EPW O   H1  H2  EPW O   H1  H2  EPW O   H1  H2  EPW O   H1  H2  
EPW O   H1  H2  EPW O   H1  H2  EPW O   H1  H2  EPW O   H1  H2  EPW O   H1  H2  
EPW O   H1  H2  EPW O   H1  H2  EPW O   H1  H2  EPW O   H1  H2  EPW O   H1  H2  
EPW O   H1  H2  EPW O   H1  H2  EPW O   H1  H2  EPW O   H1  H2  EPW O   H1  H2  
EPW O   H1  H2  EPW O   H1  H2  EPW O   H1  H2  EPW O   H1  H2  EPW O   H1  H2  
EPW O   H1  H2  EPW O   H1  H2  EPW O   H1  H2  EPW O   H1  H2  EPW O   H1  H2  
EPW O   H1  H2  EPW O   H1  H2  EPW O   H1  H2  EPW O   H1  H2  EPW O   H1  H2  
EPW O   H1  H2  EPW O   H1  H2  EPW O   H1  H2  EPW O   H1  H2  EPW O   H1  H2  
EPW O   H1  H2  EPW O   H1  H2  EPW O   H1  H2  EPW O   H1  H2  EPW O   H1  H2  
EPW O   H1  H2  EPW O   H1  H2  EPW O   H1  H2  EPW O   H1  H2  EPW O   H1  H2  
EPW O   H1  H2  EPW O   H1  H2  EPW O   H1  H2  EPW O   H1  H2  EPW O   H1  H2  
EPW O   H1  H2  EPW O   H1  H2  EPW O   H1  H2  EPW O   H1  H2  EPW O   H1  H2  
EPW O   H1  H2  EPW O   H1  H2  EPW O   H1  H2  EPW O   H1  H2  EPW O   H1  H2  
EPW O   H1  H2  EPW O   H1  H2  EPW O   H1  H2  EPW O   H1  H2  EPW O   H1  H2  
EPW O   H1  H2  EPW O   H1  H2  EPW O   H1  H2  EPW O   H1  H2  EPW O   H1  H2  
EPW O   H1  H2  EPW O   H1  H2  EPW O   H1  H2  EPW O   H1  H2  EPW O   H1  H2  
EPW O   H1  H2  EPW O   H1  H2  EPW O   H1  H2  EPW O   H1  H2  EPW O   H1  H2  
EPW O   H1  H2  EPW O   H1  H2  EPW O   H1  H2  EPW O   H1  H2  EPW O   H1  H2  
EPW O   H1  H2  EPW O   H1  H2  EPW O   H1  H2  EPW O   H1  H2  EPW O   H1  H2  
EPW O   H1  H2  EPW O   H1  H2  EPW O   H1  H2  EPW O   H1  H2  EPW O   H1  H2  
EPW O   H1  H2  EPW O   H1  H2  EPW O   H1  H2  EPW O   H1  H2  EPW O   H1  H2  
EPW O   H1  H2  EPW O   H1  H2  EPW O   H1  H2  EPW O   H1  H2  EPW O   H1  H2  
EPW O   H1  H2  EPW O   H1  H2  EPW O   H1  H2  EPW O   H1  H2  EPW O   H1  H2  
EPW O   H1  H2  EPW O   H1  H2  EPW O   H1  H2  EPW O   H1  H2  EPW O   H1  H2  
EPW O   H1  H2  EPW O   H1  H2  EPW O   H1  H2  EPW O   H1  H2  EPW O   H1  H2  
EPW O   H1  H2  EPW O   H1  H2  EPW O   H1  H2  EPW O   H1  H2  EPW O   H1  H2  
EPW O   H1  H2  EPW O   H1  H2  EPW O   H1  H2  EPW O   H1  H2  EPW O   H1  H2  
EPW O   H1  H2  EPW O   H1  H2  EPW O   H1  H2  EPW O   H1  H2  EPW O   H1  H2  
EPW O   H1  H2  EPW O   H1  H2  EPW O   H1  H2  EPW O   H1  H2  EPW O   H1  H2  
EPW O   H1  H2  EPW O   H1  H2  EPW O   H1  H2  EPW O   H1  H2  EPW O   H1  H2  
EPW O   H1  H2  EPW O   H1  H2  EPW O   H1  H2  EPW O   H1  H2  EPW O   H1  H2  
EPW O   H1  H2  EPW O   H1  H2  EPW O   H1  H2  EPW O   H1  H2  EPW O   H1  H2  
EPW O   H1  H2  EPW O   H1  H2  EPW O   H1  H2  EPW O   H1  H2  EPW O   H1  H2  
EPW O   H1  H2  EPW O   H1  H2  EPW O   H1  H2  EPW O   H1  H2  EPW O   H1  H2  
EPW O   H1  H2  EPW O   H1  H2  EPW O   H1  H2  EPW O   H1  H2  EPW O   H1  H2  
EPW O   H1  H2  EPW O   H1  H2  EPW O   H1  H2  EPW O   H1  H2  EPW O   H1  H2  
EPW O   H1  H2  EPW O   H1  H2  EPW O   H1  H2  EPW O   H1  H2  EPW O   H1  H2  
EPW O   H1  H2  EPW O   H1  H2  EPW O   H1  H2  EPW O   H1  H2  EPW O   H1  H2  
EPW O   H1  H2  EPW O   H1  H2  EPW O   H1  H2  EPW O   H1  H2  EPW O   H1  H2  
EPW O   H1  H2  EPW O   H1  H2  EPW O   H1  H2  EPW O   H1  H2  EPW O   H1  H2  
EPW O   H1  H2  EPW O   H1  H2  EPW O   H1  H2  EPW O   H1  H2  EPW O   H1  H2  
EPW O   H1  H2  EPW O   H1  H2  EPW O   H1  H2  EPW O   H1  H2  EPW O   H1  H2  
EPW O   H1  H2  EPW O   H1  H2  EPW O   H1  H2  EPW O   H1  H2  EPW O   H1  H2  
EPW O   H1  H2  EPW O   H1  H2  EPW O   H1  H2  EPW O   H1  H2  EPW O   H1  H2  
EPW O   H1  H2  EPW O   H1  H2  EPW O   H1  H2  EPW O   H1  H2  EPW O   H1  H2  
EPW O   H1  H2  EPW O   H1  H2  EPW O   H1  H2  EPW O   H1  H2  EPW O   H1  H2  
EPW O   H1  H2  EPW O   H1  H2  EPW O   H1  H2  EPW O   H1  H2  EPW O   H1  H2  
EPW O   H1  H2  EPW O   H1  H2  EPW O   H1  H2  EPW O   H1  H2  EPW O   H1  H2  
EPW O   H1  H2  EPW O   H1  H2  EPW O   H1  H2  EPW O   H1  H2  EPW O   H1  H2  
EPW O   H1  H2  EPW O   H1  H2  EPW O   H1  H2  EPW O   H1  H2  EPW O   H1  H2  
EPW O   H1  H2  EPW O   H1  H2  EPW O   H1  H2  EPW O   H1  H2  EPW O   H1  H2  
EPW O   H1  H2  EPW O   H1  H2  EPW O   H1  H2  EPW O   H1  H2  EPW O   H1  H2  
EPW O   H1  H2  EPW O   H1  H2  EPW O   H1  H2  EPW O   H1  H2  EPW O   H1  H2  
EPW O   H1  H2  EPW O   H1  H2  EPW O   H1  H2  EPW O   H1  H2  EPW O   H1  H2  
EPW O   H1  H2  EPW O   H1  H2  EPW O   H1  H2  EPW O   H1  H2  EPW O   H1  H2  
EPW O   H1  H2  EPW O   H1  H2  EPW O   H1  H2  EPW O   H1  H2  EPW O   H1  H2  
EPW O   H1  H2  EPW O   H1  H2  EPW O   H1  H2  EPW O   H1  H2  EPW O   H1  H2  
EPW O   H1  H2  EPW O   H1  H2  EPW O   H1  H2  EPW O   H1  H2  EPW O   H1  H2  
EPW O   H1  H2  EPW O   H1  H2  EPW O   H1  H2  EPW O   H1  H2  EPW O   H1  H2  
EPW O   H1  H2  EPW O   H1  H2  EPW O   H1  H2  EPW O   H1  H2  EPW O   H1  H2  
EPW O   H1  H2  EPW O   H1  H2  EPW O   H1  H2  EPW O   H1  H2  EPW O   H1  H2  
EPW O   H1  H2  EPW O   H1  H2  EPW O   H1  H2  EPW O   H1  H2  EPW O   H1  H2  
EPW O   H1  H2  EPW O   H1  H2  EPW O   H1  H2  EPW O   H1  H2  EPW O   H1  H2  
EPW O   H1  H2  EPW O   H1  H2  EPW O   H1  H2  EPW O   H1  H2  EPW O   H1  H2  
EPW O   H1  H2  EPW O   H1  H2  EPW O   H1  H2  EPW O   H1  H2  EPW O   H1  H2  
EPW O   H1  H2  EPW O   H1  H2  EPW O   H1  H2  EPW O   H1  H2  EPW O   H1  H2  
EPW O   H1  H2  EPW O   H1  H2  EPW O   H1  H2  EPW O   H1  H2  EPW O   H1  H2  
EPW O   H1  H2  EPW O   H1  H2  EPW O   H1  H2  EPW O   H1  H2  EPW O   H1  H2  
EPW O   H1  H2  EPW O   H1  H2  EPW O   H1  H2  EPW O   H1  H2  EPW O   H1  H2  
EPW O   H1  H2  EPW O   H1  H2  EPW O   H1  H2  EPW O   H1  H2  EPW O   H1  H2  
EPW O   H1  H2  EPW O   H1  H2  EPW O   H1  H2  EPW O   H1  H2  EPW O   H1  H2  
EPW O   H1  H2  EPW O   H1  H2  EPW O   H1  H2  EPW O   H1  H2  EPW O   H1  H2  
EPW O   H1  H2  EPW O   H1  H2  EPW O   H1  H2  EPW O   H1  H2  EPW O   H1  H2  
EPW O   H1  H2  EPW O   H1  H2  EPW O   H1  H2  EPW O   H1  H2  EPW O   H1  H2  
EPW O   H1  H2  EPW O   H1  H2  EPW O   H1  H2  EPW O   H1  H2  EPW O   H1  H2  
EPW O   H1  H2  EPW O   H1  H2  EPW O   H1  H2  EPW O   H1  H2  EPW O   H1  H2  
EPW O   H1  H2  EPW O   H1  H2  EPW O   H1  H2  EPW O   H1  H2  EPW O   H1  H2  
EPW O   H1  H2  EPW O   H1  H2  EPW O   H1  H2  EPW O   H1  H2  EPW O   H1  H2  
EPW O   H1  H2  EPW O   H1  H2  EPW O   H1  H2  EPW O   H1  H2  EPW O   H1  H2  
EPW O   H1  H2  EPW O   H1  H2  EPW O   H1  H2  EPW O   H1  H2  EPW O   H1  H2  
EPW O   H1  H2  EPW O   H1  H2  EPW O   H1  H2  EPW O   H1  H2  EPW O   H1  H2  
EPW O   H1  H2  EPW O   H1  H2  EPW O   H1  H2  EPW O   H1  H2  EPW O   H1  H2  
EPW O   H1  H2  EPW O   H1  H2  EPW O   H1  H2  EPW O   H1  H2  EPW O   H1  H2  
EPW O   H1  H2  EPW O   H1  H2  EPW O   H1  H2  EPW O   H1  H2  EPW O   H1  H2  
EPW O   H1  H2  EPW O   H1  H2  EPW O   H1  H2  EPW O   H1  H2  EPW O   H1  H2  
EPW O   H1  H2  EPW O   H1  H2  EPW O   H1  H2  EPW O   H1  H2  EPW O   H1  H2  
EPW O   H1  H2  EPW O   H1  H2  EPW O   H1  H2  EPW O   H1  H2  EPW O   H1  H2  
EPW O   H1  H2  EPW O   H1  H2  EPW O   H1  H2  EPW O   H1  H2  EPW O   H1  H2  
EPW O   H1  H2  EPW O   H1  H2  EPW O   H1  H2  EPW O   H1  H2  EPW O   H1  H2  
EPW O   H1  H2  EPW O   H1  H2  EPW O   H1  H2  EPW O   H1  H2  EPW O   H1  H2  
EPW O   H1  H2  EPW O   H1  H2  EPW O   H1  H2  EPW O   H1  H2  EPW O   H1  H2  
EPW O   H1  H2  EPW O   H1  H2  EPW O   H1  H2  EPW O   H1  H2  EPW O   H1  H2  
EPW O   H1  H2  EPW O   H1  H2  EPW O   H1  H2  EPW O   H1  H2  EPW O   H1  H2  
EPW O   H1  H2  EPW O   H1  H2  EPW O   H1  H2  EPW O   H1  H2  EPW O   H1  H2  
EPW O   H1  H2  EPW O   H1  H2  EPW O   H1  H2  EPW O   H1  H2  EPW O   H1  H2  
EPW O   H1  H2  EPW O   H1  H2  EPW O   H1  H2  EPW O   H1  H2  EPW O   H1  H2  
EPW O   H1  H2  EPW O   H1  H2  EPW O   H1  H2  EPW O   H1  H2  EPW O   H1  H2  
EPW O   H1  H2  EPW O   H1  H2  EPW O   H1  H2  EPW O   H1  H2  EPW O   H1  H2  
EPW O   H1  H2  EPW O   H1  H2  EPW O   H1  H2  EPW O   H1  H2  EPW O   H1  H2  
EPW O   H1  H2  EPW O   H1  H2  EPW O   H1  H2  EPW O   H1  H2  EPW O   H1  H2  
EPW O   H1  H2  EPW O   H1  H2  EPW O   H1  H2  EPW O   H1  H2  EPW O   H1  H2  
EPW O   H1  H2  EPW O   H1  H2  EPW O   H1  H2  EPW O   H1  H2  EPW O   H1  H2  
EPW O   H1  H2  EPW O   H1  H2  EPW O   H1  H2  EPW O   H1  H2  EPW O   H1  H2  
EPW O   H1  H2  EPW O   H1  H2  EPW O   H1  H2  EPW O   H1  H2  EPW O   H1  H2  
EPW O   H1  H2  EPW O   H1  H2  EPW O   H1  H2  EPW O   H1  H2  EPW O   H1  H2  
EPW O   H1  H2  EPW O   H1  H2  EPW O   H1  H2  EPW O   H1  H2  EPW O   H1  H2  
EPW O   H1  H2  EPW O   H1  H2  EPW O   H1  H2  EPW O   H1  H2  EPW O   H1  H2  
EPW O   H1  H2  EPW O   H1  H2  EPW O   H1  H2  EPW O   H1  H2  EPW O   H1  H2  
EPW O   H1  H2  EPW O   H1  H2  EPW O   H1  H2  EPW O   H1  H2  EPW O   H1  H2  
EPW O   H1  H2  EPW O   H1  H2  EPW O   H1  H2  EPW O   H1  H2  EPW O   H1  H2  
EPW O   H1  H2  EPW O   H1  H2  EPW O   H1  H2  EPW O   H1  H2  EPW O   H1  H2  
EPW O   H1  H2  EPW O   H1  H2  EPW O   H1  H2  EPW O   H1  H2  EPW O   H1  H2  
EPW O   H1  H2  EPW O   H1  H2  EPW O   H1  H2  EPW O   H1  H2  EPW O   H1  H2  
EPW O   H1  H2  EPW O   H1  H2  EPW O   H1  H2  EPW O   H1  H2  EPW O   H1  H2  
EPW O   H1  H2  EPW O   H1  H2  EPW O   H1  H2  EPW O   H1  H2  EPW O   H1  H2  
EPW O   H1  H2  EPW O   H1  H2  EPW O   H1  H2  EPW O   H1  H2  EPW O   H1  H2  
EPW O   H1  H2  EPW O   H1  H2  EPW O   H1  H2  EPW O   H1  H2  EPW O   H1  H2  
EPW O   H1  H2  EPW O   H1  H2  EPW O   H1  H2  EPW O   H1  H2  EPW O   H1  H2  
EPW O   H1  H2  EPW O   H1  H2  EPW O   H1  H2  EPW O   H1  H2  EPW O   H1  H2  
EPW O   H1  H2  EPW O   H1  H2  EPW O   H1  H2  EPW O   H1  H2  EPW O   H1  H2  
EPW O   H1  H2  EPW O   H1  H2  EPW O   H1  H2  EPW O   H1  H2  EPW O   H1  H2  
EPW O   H1  H2  EPW O   H1  H2  EPW O   H1  H2  EPW O   H1  H2  EPW O   H1  H2  
EPW O   H1  H2  EPW O   H1  H2  EPW O   H1  H2  EPW O   H1  H2  EPW O   H1  H2  
EPW O   H1  H2  EPW O   H1  H2  EPW O   H1  H2  EPW O   H1  H2  EPW O   H1  H2  
EPW O   H1  H2  EPW O   H1  H2  EPW O   H1  H2  EPW O   H1  H2  EPW O   H1  H2  
EPW O   H1  H2  EPW O   H1  H2  EPW O   H1  H2  EPW O   H1  H2  EPW O   H1  H2  
EPW O   H1  H2  EPW O   H1  H2  EPW O   H1  H2  EPW O   H1  H2  EPW O   H1  H2  
EPW O   H1  H2  EPW O   H1  H2  EPW O   H1  H2  EPW O   H1  H2  EPW O   H1  H2  
EPW O   H1  H2  EPW O   H1  H2  EPW O   H1  H2  EPW O   H1  H2  EPW O   H1  H2  
EPW O   H1  H2  EPW O   H1  H2  EPW O   H1  H2  EPW O   H1  H2  EPW O   H1  H2  
EPW O   H1  H2  EPW O   H1  H2  EPW O   H1  H2  EPW O   H1  H2  EPW O   H1  H2  
EPW O   H1  H2  EPW O   H1  H2  EPW O   H1  H2  EPW O   H1  H2  EPW O   H1  H2  
EPW O   H1  H2  EPW O   H1  H2  EPW O   H1  H2  EPW O   H1  H2  EPW O   H1  H2  
EPW O   H1  H2  EPW O   H1  H2  EPW O   H1  H2  EPW O   H1  H2  EPW O   H1  H2  
EPW O   H1  H2  EPW O   H1  H2  EPW O   H1  H2  EPW O   H1  H2  EPW O   H1  H2  
EPW O   H1  H2  EPW O   H1  H2  EPW O   H1  H2  EPW O   H1  H2  EPW O   H1  H2  
EPW O   H1  H2  EPW O   H1  H2  EPW O   H1  H2  EPW O   H1  H2  EPW O   H1  H2  
EPW O   H1  H2  EPW O   H1  H2  EPW O   H1  H2  EPW O   H1  H2  EPW O   H1  H2  
EPW O   H1  H2  EPW O   H1  H2  EPW O   H1  H2  EPW O   H1  H2  EPW O   H1  H2  
EPW O   H1  H2  EPW O   H1  H2  EPW O   H1  H2  EPW O   H1  H2  EPW O   H1  H2  
EPW O   H1  H2  EPW O   H1  H2  EPW O   H1  H2  EPW O   H1  H2  EPW O   H1  H2  
EPW O   H1  H2  EPW O   H1  H2  EPW O   H1  H2  EPW O   H1  H2  EPW O   H1  H2  
EPW O   H1  H2  EPW O   H1  H2  EPW O   H1  H2  EPW O   H1  H2  EPW O   H1  H2  
EPW O   H1  H2  EPW O   H1  H2  EPW O   H1  H2  EPW O   H1  H2  EPW O   H1  H2  
EPW O   H1  H2  EPW O   H1  H2  EPW O   H1  H2  EPW O   H1  H2  EPW O   H1  H2  
EPW O   H1  H2  EPW O   H1  H2  EPW O   H1  H2  EPW O   H1  H2  EPW O   H1  H2  
EPW O   H1  H2  EPW O   H1  H2  EPW O   H1  H2  EPW O   H1  H2  EPW O   H1  H2  
EPW O   H1  H2  EPW O   H1  H2  EPW O   H1  H2  EPW O   H1  H2  EPW O   H1  H2  
EPW O   H1  H2  EPW O   H1  H2  EPW O   H1  H2  EPW O   H1  H2  EPW O   H1  H2  
EPW O   H1  H2  EPW O   H1  H2  EPW O   H1  H2  EPW O   H1  H2  EPW O   H1  H2  
EPW O   H1  H2  EPW O   H1  H2  EPW O   H1  H2  EPW O   H1  H2  EPW O   H1  H2  
EPW O   H1  H2  EPW O   H1  H2  EPW O   H1  H2  EPW O   H1  H2  EPW O   H1  H2  
EPW O   H1  H2  EPW O   H1  H2  EPW O   H1  H2  EPW O   H1  H2  EPW O   H1  H2  
EPW O   H1  H2  EPW O   H1  H2  EPW O   H1  H2  EPW O   H1  H2  EPW O   H1  H2  
EPW O   H1  H2  EPW O   H1  H2  EPW O   H1  H2  EPW O   H1  H2  EPW O   H1  H2  
EPW O   H1  H2  EPW O   H1  H2  EPW O   H1  H2  EPW O   H1  H2  EPW O   H1  H2  
EPW O   H1  H2  EPW O   H1  H2  EPW O   H1  H2  EPW O   H1  H2  EPW O   H1  H2  
EPW O   H1  H2  EPW O   H1  H2  EPW O   H1  H2  EPW O   H1  H2  EPW O   H1  H2  
EPW O   H1  H2  EPW O   H1  H2  EPW O   H1  H2  EPW O   H1  H2  EPW O   H1  H2  
EPW O   H1  H2  EPW O   H1  H2  EPW O   H1  H2  EPW O   H1  H2  EPW O   H1  H2  
EPW O   H1  H2  EPW O   H1  H2  EPW O   H1  H2  EPW O   H1  H2  EPW O   H1  H2  
EPW O   H1  H2  EPW O   H1  H2  EPW O   H1  H2  EPW O   H1  H2  EPW O   H1  H2  
EPW O   H1  H2  EPW O   H1  H2  EPW O   H1  H2  EPW O   H1  H2  EPW O   H1  H2  
EPW O   H1  H2  EPW O   H1  H2  EPW O   H1  H2  EPW O   H1  H2  EPW O   H1  H2  
EPW O   H1  H2  EPW O   H1  H2  EPW O   H1  H2  EPW O   H1  H2  EPW O   H1  H2  
EPW O   H1  H2  EPW O   H1  H2  EPW O   H1  H2  EPW O   H1  H2  EPW O   H1  H2  
EPW O   H1  H2  EPW O   H1  H2  EPW O   H1  H2  EPW O   H1  H2  EPW O   H1  H2  
EPW O   H1  H2  EPW O   H1  H2  EPW O   H1  H2  EPW O   H1  H2  EPW O   H1  H2  
EPW O   H1  H2  EPW O   H1  H2  EPW O   H1  H2  EPW O   H1  H2  EPW O   H1  H2  
EPW O   H1  H2  EPW O   H1  H2  EPW O   H1  H2  EPW O   H1  H2  EPW O   H1  H2  
EPW O   H1  H2  EPW O   H1  H2  EPW O   H1  H2  EPW O   H1  H2  EPW O   H1  H2  
EPW O   H1  H2  EPW O   H1  H2  EPW O   H1  H2  EPW O   H1  H2  EPW O   H1  H2  
EPW O   H1  H2  EPW O   H1  H2  EPW O   H1  H2  EPW O   H1  H2  EPW O   H1  H2  
EPW O   H1  H2  EPW O   H1  H2  EPW O   H1  H2  EPW O   H1  H2  EPW O   H1  H2  
EPW O   H1  H2  EPW O   H1  H2  EPW O   H1  H2  EPW O   H1  H2  EPW O   H1  H2  
EPW O   H1  H2  EPW O   H1  H2  EPW O   H1  H2  EPW O   H1  H2  EPW O   H1  H2  
EPW O   H1  H2  EPW O   H1  H2  EPW O   H1  H2  EPW O   H1  H2  EPW O   H1  H2  
EPW O   H1  H2  EPW O   H1  H2  EPW O   H1  H2  EPW O   H1  H2  EPW O   H1  H2  
EPW O   H1  H2  EPW O   H1  H2  EPW O   H1  H2  EPW O   H1  H2  EPW O   H1  H2  
EPW O   H1  H2  EPW O   H1  H2  EPW O   H1  H2  EPW O   H1  H2  EPW O   H1  H2  
EPW O   H1  H2  EPW O   H1  H2  EPW O   H1  H2  EPW O   H1  H2  EPW O   H1  H2  
EPW O   H1  H2  EPW O   H1  H2  EPW O   H1  H2  EPW O   H1  H2  EPW O   H1  H2  
EPW O   H1  H2  EPW O   H1  H2  EPW O   H1  H2  EPW O   H1  H2  EPW O   H1  H2  
EPW O   H1  H2  EPW O   H1  H2  EPW O   H1  H2  EPW O   H1  H2  EPW O   H1  H2  
EPW O   H1  H2  EPW O   H1  H2  EPW O   H1  H2  EPW O   H1  H2  EPW O   H1  H2  
EPW O   H1  H2  EPW O   H1  H2  EPW O   H1  H2  EPW O   H1  H2  EPW O   H1  H2  
EPW O   H1  H2  EPW O   H1  H2  EPW O   H1  H2  EPW O   H1  H2  EPW O   H1  H2  
EPW O   H1  H2  EPW O   H1  H2  EPW O   H1  H2  EPW O   H1  H2  EPW O   H1  H2  
EPW O   H1  H2  EPW O   H1  H2  EPW O   H1  H2  EPW O   H1  H2  EPW O   H1  H2  
EPW O   H1  H2  EPW O   H1  H2  EPW O   H1  H2  EPW O   H1  H2  EPW O   H1  H2  
EPW O   H1  H2  EPW O   H1  H2  EPW O   H1  H2  EPW O   H1  H2  EPW O   H1  H2  
EPW O   H1  H2  EPW O   H1  H2  EPW O   H1  H2  EPW O   H1  H2  EPW O   H1  H2  
EPW O   H1  H2  EPW O   H1  H2  EPW O   H1  H2  EPW O   H1  H2  EPW O   H1  H2  
EPW O   H1  H2  EPW O   H1  H2  EPW O   H1  H2  EPW O   H1  H2  EPW O   H1  H2  
EPW O   H1  H2  EPW O   H1  H2  EPW O   H1  H2  EPW O   H1  H2  EPW O   H1  H2  
EPW O   H1  H2  EPW O   H1  H2  EPW O   H1  H2  EPW O   H1  H2  EPW O   H1  H2  
EPW O   H1  H2  EPW O   H1  H2  EPW O   H1  H2  EPW O   H1  H2  EPW O   H1  H2  
EPW O   H1  H2  EPW O   H1  H2  EPW O   H1  H2  EPW O   H1  H2  EPW O   H1  H2  
EPW O   H1  H2  EPW O   H1  H2  EPW O   H1  H2  EPW O   H1  H2  EPW O   H1  H2  
EPW O   H1  H2  EPW O   H1  H2  EPW O   H1  H2  EPW O   H1  H2  EPW O   H1  H2  
EPW O   H1  H2  EPW O   H1  H2  EPW O   H1  H2  EPW O   H1  H2  EPW O   H1  H2  
EPW O   H1  H2  EPW O   H1  H2  EPW O   H1  H2  EPW O   H1  H2  EPW O   H1  H2  
EPW O   H1  H2  EPW O   H1  H2  EPW O   H1  H2  EPW O   H1  H2  EPW O   H1  H2  
EPW O   H1  H2  EPW O   H1  H2  EPW O   H1  H2  EPW O   H1  H2  EPW O   H1  H2  
EPW O   H1  H2  EPW O   H1  H2  EPW O   H1  H2  EPW O   H1  H2  EPW O   H1  H2  
EPW O   H1  H2  EPW O   H1  H2  EPW O   H1  H2  EPW O   H1  H2  EPW O   H1  H2  
EPW O   H1  H2  EPW O   H1  H2  EPW O   H1  H2  EPW O   H1  H2  EPW O   H1  H2  
EPW O   H1  H2  EPW O   H1  H2  EPW O   H1  H2  EPW O   H1  H2  EPW O   H1  H2  
EPW O   H1  H2  EPW O   H1  H2  EPW O   H1  H2  EPW O   H1  H2  EPW O   H1  H2  
EPW O   H1  H2  EPW O   H1  H2  EPW O   H1  H2  EPW O   H1  H2  EPW O   H1  H2  
EPW O   H1  H2  EPW O   H1  H2  EPW O   H1  H2  EPW O   H1  H2  EPW O   H1  H2  
EPW O   H1  H2  EPW O   H1  H2  EPW O   H1  H2  EPW O   H1  H2  EPW O   H1  H2  
EPW O   H1  H2  EPW O   H1  H2  EPW O   H1  H2  EPW O   H1  H2  EPW O   H1  H2  
EPW O   H1  H2  EPW O   H1  H2  EPW O   H1  H2  EPW O   H1  H2  EPW O   H1  H2  
EPW O   H1  H2  EPW O   H1  H2  EPW O   H1  H2  EPW O   H1  H2  EPW O   H1  H2  
EPW O   H1  H2  EPW O   H1  H2  EPW O   H1  H2  EPW O   H1  H2  EPW O   H1  H2  
EPW O   H1  H2  EPW O   H1  H2  EPW O   H1  H2  EPW O   H1  H2  EPW O   H1  H2  
EPW O   H1  H2  EPW O   H1  H2  EPW O   H1  H2  EPW O   H1  H2  EPW O   H1  H2  
EPW O   H1  H2  EPW O   H1  H2  EPW O   H1  H2  EPW O   H1  H2  EPW O   H1  H2  
EPW O   H1  H2  EPW O   H1  H2  EPW O   H1  H2  EPW O   H1  H2  EPW O   H1  H2  
EPW O   H1  H2  EPW O   H1  H2  EPW O   H1  H2  EPW O   H1  H2  EPW O   H1  H2  
EPW O   H1  H2  EPW O   H1  H2  EPW O   H1  H2  EPW O   H1  H2  EPW O   H1  H2  
EPW O   H1  H2  EPW O   H1  H2  EPW O   H1  H2  EPW O   H1  H2  EPW O   H1  H2  
EPW O   H1  H2  EPW O   H1  H2  EPW O   H1  H2  EPW O   H1  H2  EPW O   H1  H2  
EPW O   H1  H2  EPW O   H1  H2  EPW O   H1  H2  EPW O   H1  H2  EPW O   H1  H2  
EPW O   H1  H2  EPW O   H1  H2  EPW O   H1  H2  EPW O   H1  H2  EPW O   H1  H2  
EPW O   H1  H2  EPW O   H1  H2  EPW O   H1  H2  EPW O   H1  H2  EPW O   H1  H2  
EPW O   H1  H2  EPW O   H1  H2  EPW O   H1  H2  EPW O   H1  H2  EPW O   H1  H2  
EPW O   H1  H2  EPW O   H1  H2  EPW O   H1  H2  EPW O   H1  H2  EPW O   H1  H2  
EPW O   H1  H2  EPW O   H1  H2  EPW O   H1  H2  EPW O   H1  H2  EPW O   H1  H2  
EPW O   H1  H2  EPW O   H1  H2  EPW O   H1  H2  EPW O   H1  H2  EPW O   H1  H2  
EPW O   H1  H2  EPW O   H1  H2  EPW O   H1  H2  EPW O   H1  H2  EPW O   H1  H2  
EPW O   H1  H2  EPW O   H1  H2  EPW O   H1  H2  EPW O   H1  H2  EPW O   H1  H2  
EPW O   H1  H2  EPW O   H1  H2  EPW O   H1  H2  EPW O   H1  H2  EPW O   H1  H2  
EPW O   H1  H2  EPW O   H1  H2  EPW O   H1  H2  EPW O   H1  H2  EPW O   H1  H2  
EPW O   H1  H2  EPW O   H1  H2  EPW O   H1  H2  EPW O   H1  H2  EPW O   H1  H2  
EPW O   H1  H2  EPW O   H1  H2  EPW O   H1  H2  EPW O   H1  H2  EPW O   H1  H2  
EPW O   H1  H2  EPW O   H1  H2  EPW O   H1  H2  EPW O   H1  H2  EPW O   H1  H2  
EPW O   H1  H2  EPW O   H1  H2  EPW O   H1  H2  EPW O   H1  H2  EPW O   H1  H2  
EPW O   H1  H2  EPW O   H1  H2  EPW O   H1  H2  EPW O   H1  H2  EPW O   H1  H2  
EPW O   H1  H2  EPW O   H1  H2  EPW O   H1  H2  EPW O   H1  H2  EPW O   H1  H2  
EPW O   H1  H2  EPW O   H1  H2  EPW O   H1  H2  EPW O   H1  H2  EPW O   H1  H2  
EPW O   H1  H2  EPW O   H1  H2  EPW O   H1  H2  EPW O   H1  H2  EPW O   H1  H2  
EPW O   H1  H2  EPW O   H1  H2  EPW O   H1  H2  EPW O   H1  H2  EPW O   H1  H2  
EPW O   H1  H2  EPW O   H1  H2  EPW O   H1  H2  EPW O   H1  H2  EPW O   H1  H2  
EPW O   H1  H2  EPW O   H1  H2  EPW O   H1  H2  EPW O   H1  H2  EPW O   H1  H2  
EPW O   H1  H2  EPW O   H1  H2  EPW O   H1  H2  EPW O   H1  H2  EPW O   H1  H2  
EPW O   H1  H2  EPW O   H1  H2  EPW O   H1  H2  EPW O   H1  H2  EPW O   H1  H2  
EPW O   H1  H2  EPW O   H1  H2  EPW O   H1  H2  EPW O   H1  H2  EPW O   H1  H2  
EPW O   H1  H2  EPW O   H1  H2  EPW O   H1  H2  EPW O   H1  H2  EPW O   H1  H2  
EPW O   H1  H2  EPW O   H1  H2  EPW O   H1  H2  EPW O   H1  H2  EPW O   H1  H2  
EPW O   H1  H2  EPW O   H1  H2  EPW O   H1  H2  EPW O   H1  H2  EPW O   H1  H2  
EPW O   H1  H2  EPW O   H1  H2  EPW O   H1  H2  EPW O   H1  H2  EPW O   H1  H2  
EPW O   H1  H2  EPW O   H1  H2  EPW O   H1  H2  EPW O   H1  H2  EPW O   H1  H2  
EPW O   H1  H2  EPW O   H1  H2  EPW O   H1  H2  EPW O   H1  H2  EPW O   H1  H2  
EPW O   H1  H2  EPW O   H1  H2  EPW O   H1  H2  EPW O   H1  H2  EPW O   H1  H2  
EPW O   H1  H2  EPW O   H1  H2  EPW O   H1  H2  EPW O   H1  H2  EPW O   H1  H2  
EPW O   H1  H2  EPW O   H1  H2  EPW O   H1  H2  EPW O   H1  H2  EPW O   H1  H2  
EPW O   H1  H2  EPW O   H1  H2  EPW O   H1  H2  EPW O   H1  H2  EPW O   H1  H2  
EPW O   H1  H2  EPW O   H1  H2  EPW O   H1  H2  EPW O   H1  H2  EPW O   H1  H2  
EPW O   H1  H2  EPW O   H1  H2  EPW O   H1  H2  EPW O   H1  H2  EPW O   H1  H2  
EPW O   H1  H2  EPW O   H1  H2  EPW O   H1  H2  EPW O   H1  H2  EPW O   H1  H2  
EPW O   H1  H2  EPW O   H1  H2  EPW O   H1  H2  EPW O   H1  H2  EPW O   H1  H2  
EPW O   H1  H2  EPW O   H1  H2  EPW O   H1  H2  EPW O   H1  H2  EPW O   H1  H2  
EPW O   H1  H2  EPW O   H1  H2  EPW O   H1  H2  EPW O   H1  H2  EPW O   H1  H2  
EPW O   H1  H2  EPW O   H1  H2  EPW O   H1  H2  EPW O   H1  H2  EPW O   H1  H2  
EPW O   H1  H2  EPW O   H1  H2  EPW O   H1  H2  EPW O   H1  H2  EPW O   H1  H2  
EPW O   H1  H2  EPW O   H1  H2  EPW O   H1  H2  EPW O   H1  H2  EPW O   H1  H2  
EPW O   H1  H2  EPW O   H1  H2  EPW O   H1  H2  EPW O   H1  H2  EPW O   H1  H2  
EPW O   H1  H2  EPW O   H1  H2  EPW O   H1  H2  EPW O   H1  H2  EPW O   H1  H2  
EPW O   H1  H2  EPW O   H1  H2  EPW O   H1  H2  EPW O   H1  H2  EPW O   H1  H2  
EPW O   H1  H2  EPW O   H1  H2  EPW O   H1  H2  EPW O   H1  H2  EPW O   H1  H2  
EPW O   H1  H2  EPW O   H1  H2  EPW O   H1  H2  EPW O   H1  H2  EPW O   H1  H2  
EPW O   H1  H2  EPW O   H1  H2  EPW O   H1  H2  EPW O   H1  H2  EPW O   H1  H2  
EPW O   H1  H2  EPW O   H1  H2  EPW O   H1  H2  EPW O   H1  H2  EPW O   H1  H2  
EPW O   H1  H2  EPW O   H1  H2  EPW O   H1  H2  EPW O   H1  H2  EPW O   H1  H2  
EPW O   H1  H2  EPW O   H1  H2  EPW O   H1  H2  EPW O   H1  H2  EPW O   H1  H2  
EPW O   H1  H2  EPW O   H1  H2  EPW O   H1  H2  EPW O   H1  H2  EPW O   H1  H2  
EPW O   H1  H2  EPW O   H1  H2  EPW O   H1  H2  EPW O   H1  H2  EPW O   H1  H2  
EPW O   H1  H2  EPW O   H1  H2  EPW O   H1  H2  EPW O   H1  H2  EPW O   H1  H2  
EPW O   H1  H2  EPW O   H1  H2  EPW O   H1  H2  EPW O   H1  H2  EPW O   H1  H2  
EPW O   H1  H2  EPW O   H1  H2  EPW O   H1  H2  EPW O   H1  H2  EPW O   H1  H2  
EPW O   H1  H2  EPW O   H1  H2  EPW O   H1  H2  EPW O   H1  H2  EPW O   H1  H2  
EPW O   H1  H2  EPW O   H1  H2  EPW O   H1  H2  EPW O   H1  H2  EPW O   H1  H2  
EPW O   H1  H2  EPW O   H1  H2  EPW O   H1  H2  EPW O   H1  H2  EPW O   H1  H2  
EPW O   H1  H2  EPW O   H1  H2  EPW O   H1  H2  EPW O   H1  H2  EPW O   H1  H2  
EPW O   H1  H2  EPW O   H1  H2  EPW O   H1  H2  EPW O   H1  H2  EPW O   H1  H2  
EPW O   H1  H2  EPW O   H1  H2  EPW O   H1  H2  EPW O   H1  H2  EPW O   H1  H2  
EPW O   H1  H2  EPW O   H1  H2  EPW O   H1  H2  EPW O   H1  H2  EPW O   H1  H2  
EPW O   H1  H2  EPW O   H1  H2  EPW O   H1  H2  EPW O   H1  H2  EPW O   H1  H2  
EPW O   H1  H2  EPW O   H1  H2  EPW O   H1  H2  EPW O   H1  H2  EPW O   H1  H2  
EPW O   H1  H2  EPW O   H1  H2  EPW O   H1  H2  EPW O   H1  H2  EPW O   H1  H2  
EPW O   H1  H2  EPW O   H1  H2  EPW O   H1  H2  EPW O   H1  H2  EPW O   H1  H2  
EPW O   H1  H2  EPW O   H1  H2  EPW O   H1  H2  EPW O   H1  H2  EPW O   H1  H2  
EPW O   H1  H2  EPW O   H1  H2  EPW O   H1  H2  EPW O   H1  H2  EPW O   H1  H2  
EPW O   H1  H2  EPW O   H1  H2  EPW O   H1  H2  EPW O   H1  H2  EPW O   H1  H2  
EPW O   H1  H2  EPW O   H1  H2  EPW O   H1  H2  EPW O   H1  H2  EPW O   H1  H2  
EPW O   H1  H2  EPW O   H1  H2  EPW O   H1  H2  EPW O   H1  H2  EPW O   H1  H2  
EPW O   H1  H2  EPW O   H1  H2  EPW O   H1  H2  EPW O   H1  H2  EPW O   H1  H2  
EPW O   H1  H2  EPW O   H1  H2  EPW O   H1  H2  EPW O   H1  H2  EPW O   H1  H2  
EPW O   H1  H2  EPW O   H1  H2  EPW O   H1  H2  EPW O   H1  H2  EPW O   H1  H2  
EPW O   H1  H2  EPW O   H1  H2  EPW O   H1  H2  EPW O   H1  H2  EPW O   H1  H2  
EPW O   H1  H2  EPW O   H1  H2  EPW O   H1  H2  EPW O   H1  H2  EPW O   H1  H2  
EPW O   H1  H2  EPW O   H1  H2  EPW O   H1  H2  EPW O   H1  H2  EPW O   H1  H2  
EPW O   H1  H2  EPW O   H1  H2  EPW O   H1  H2  EPW O   H1  H2  EPW O   H1  H2  
EPW O   H1  H2  EPW O   H1  H2  EPW O   H1  H2  EPW O   H1  H2  EPW O   H1  H2  
EPW O   H1  H2  EPW O   H1  H2  EPW O   H1  H2  EPW O   H1  H2  EPW O   H1  H2  
EPW O   H1  H2  EPW O   H1  H2  EPW O   H1  H2  EPW O   H1  H2  EPW O   H1  H2  
EPW O   H1  H2  EPW O   H1  H2  EPW O   H1  H2  EPW O   H1  H2  EPW O   H1  H2  
EPW O   H1  H2  EPW O   H1  H2  EPW O   H1  H2  EPW O   H1  H2  EPW O   H1  H2  
EPW O   H1  H2  EPW O   H1  H2  EPW O   H1  H2  EPW O   H1  H2  EPW O   H1  H2  
EPW O   H1  H2  EPW O   H1  H2  EPW O   H1  H2  EPW O   H1  H2  EPW O   H1  H2  
EPW O   H1  H2  EPW O   H1  H2  EPW O   H1  H2  EPW O   H1  H2  EPW O   H1  H2  
EPW O   H1  H2  EPW O   H1  H2  EPW O   H1  H2  EPW O   H1  H2  EPW O   H1  H2  
EPW O   H1  H2  EPW O   H1  H2  EPW O   H1  H2  EPW O   H1  H2  EPW O   H1  H2  
EPW O   H1  H2  EPW O   H1  H2  EPW O   H1  H2  EPW O   H1  H2  EPW O   H1  H2  
EPW O   H1  H2  EPW O   H1  H2  EPW O   H1  H2  EPW O   H1  H2  EPW O   H1  H2  
EPW O   H1  H2  EPW O   H1  H2  EPW O   H1  H2  EPW O   H1  H2  EPW O   H1  H2  
EPW O   H1  H2  EPW O   H1  H2  EPW O   H1  H2  EPW O   H1  H2  EPW O   H1  H2  
EPW O   H1  H2  EPW O   H1  H2  EPW O   H1  H2  EPW O   H1  H2  EPW O   H1  H2  
EPW O   H1  H2  EPW O   H1  H2  EPW O   H1  H2  EPW O   H1  H2  EPW O   H1  H2  
EPW O   H1  H2  EPW O   H1  H2  EPW O   H1  H2  EPW O   H1  H2  EPW O   H1  H2  
EPW O   H1  H2  EPW O   H1  H2  EPW O   H1  H2  EPW O   H1  H2  EPW O   H1  H2  
EPW O   H1  H2  EPW O   H1  H2  EPW O   H1  H2  EPW O   H1  H2  EPW O   H1  H2  
EPW O   H1  H2  EPW O   H1  H2  EPW O   H1  H2  EPW O   H1  H2  EPW O   H1  H2  
EPW O   H1  H2  EPW O   H1  H2  EPW O   H1  H2  EPW O   H1  H2  EPW O   H1  H2  
EPW O   H1  H2  EPW O   H1  H2  EPW O   H1  H2  EPW O   H1  H2  EPW O   H1  H2  
EPW O   H1  H2  EPW O   H1  H2  EPW O   H1  H2  EPW O   H1  H2  EPW O   H1  H2  
EPW O   H1  H2  EPW O   H1  H2  EPW O   H1  H2  EPW O   H1  H2  EPW O   H1  H2  
EPW O   H1  H2  EPW O   H1  H2  EPW O   H1  H2  EPW O   H1  H2  EPW O   H1  H2  
EPW O   H1  H2  EPW O   H1  H2  EPW O   H1  H2  EPW O   H1  H2  EPW O   H1  H2  
EPW O   H1  H2  EPW O   H1  H2  EPW O   H1  H2  EPW O   H1  H2  EPW O   H1  H2  
EPW O   H1  H2  EPW O   H1  H2  EPW O   H1  H2  EPW O   H1  H2  EPW O   H1  H2  
EPW O   H1  H2  EPW O   H1  H2  EPW O   H1  H2  EPW O   H1  H2  EPW O   H1  H2  
EPW O   H1  H2  EPW O   H1  H2  EPW O   H1  H2  EPW O   H1  H2  EPW O   H1  H2  
EPW O   H1  H2  EPW O   H1  H2  EPW O   H1  H2  EPW O   H1  H2  EPW O   H1  H2  
EPW O   H1  H2  EPW O   H1  H2  EPW O   H1  H2  EPW O   H1  H2  EPW O   H1  H2  
EPW O   H1  H2  EPW O   H1  H2  EPW O   H1  H2  EPW O   H1  H2  EPW O   H1  H2  
EPW O   H1  H2  EPW O   H1  H2  EPW O   H1  H2  EPW O   H1  H2  EPW O   H1  H2  
EPW O   H1  H2  EPW O   H1  H2  EPW O   H1  H2  EPW O   H1  H2  EPW O   H1  H2  
EPW O   H1  H2  EPW O   H1  H2  EPW O   H1  H2  EPW O   H1  H2  EPW O   H1  H2  
EPW O   H1  H2  EPW O   H1  H2  EPW O   H1  H2  EPW O   H1  H2  EPW O   H1  H2  
EPW O   H1  H2  EPW O   H1  H2  EPW O   H1  H2  EPW O   H1  H2  EPW O   H1  H2  
EPW O   H1  H2  EPW O   H1  H2  EPW O   H1  H2  EPW O   H1  H2  EPW O   H1  H2  
EPW O   H1  H2  EPW O   H1  H2  EPW O   H1  H2  EPW O   H1  H2  EPW O   H1  H2  
EPW O   H1  H2  EPW O   H1  H2  EPW O   H1  H2  EPW O   H1  H2  EPW O   H1  H2  
EPW O   H1  H2  EPW O   H1  H2  EPW O   H1  H2  EPW O   H1  H2  EPW O   H1  H2  
EPW O   H1  H2  EPW O   H1  H2  EPW O   H1  H2  EPW O   H1  H2  EPW O   H1  H2  
EPW O   H1  H2  EPW O   H1  H2  EPW O   H1  H2  EPW O   H1  H2  EPW O   H1  H2  
EPW O   H1  H2  EPW O   H1  H2  EPW O   H1  H2  EPW O   H1  H2  EPW O   H1  H2  
EPW O   H1  H2  EPW O   H1  H2  EPW O   H1  H2  EPW O   H1  H2  EPW O   H1  H2  
EPW O   H1  H2  EPW O   H1  H2  EPW O   H1  H2  EPW O   H1  H2  EPW O   H1  H2  
EPW O   H1  H2  EPW O   H1  H2  EPW O   H1  H2  EPW O   H1  H2  EPW O   H1  H2  
EPW O   H1  H2  EPW O   H1  H2  EPW O   H1  H2  EPW O   H1  H2  EPW O   H1  H2  
EPW O   H1  H2  EPW O   H1  H2  EPW O   H1  H2  EPW O   H1  H2  EPW O   H1  H2  
EPW O   H1  H2  EPW O   H1  H2  EPW O   H1  H2  EPW O   H1  H2  EPW O   H1  H2  
EPW O   H1  H2  EPW O   H1  H2  EPW O   H1  H2  EPW O   H1  H2  EPW O   H1  H2  
EPW O   H1  H2  EPW O   H1  H2  EPW O   H1  H2  EPW O   H1  H2  EPW O   H1  H2  
EPW O   H1  H2  EPW O   H1  H2  EPW O   H1  H2  EPW O   H1  H2  EPW O   H1  H2  
EPW O   H1  H2  EPW O   H1  H2  EPW O   H1  H2  EPW O   H1  H2  EPW O   H1  H2  
EPW O   H1  H2  EPW O   H1  H2  EPW O   H1  H2  EPW O   H1  H2  EPW O   H1  H2  
EPW O   H1  H2  EPW O   H1  H2  EPW O   H1  H2  EPW O   H1  H2  EPW O   H1  H2  
EPW O   H1  H2  EPW O   H1  H2  EPW O   H1  H2  EPW O   H1  H2  EPW O   H1  H2  
EPW O   H1  H2  EPW O   H1  H2  EPW O   H1  H2  EPW O   H1  H2  EPW O   H1  H2  
EPW O   H1  H2  EPW O   H1  H2  EPW O   H1  H2  EPW O   H1  H2  EPW O   H1  H2  
EPW O   H1  H2  EPW O   H1  H2  EPW O   H1  H2  EPW O   H1  H2  EPW O   H1  H2  
EPW O   H1  H2  EPW O   H1  H2  EPW O   H1  H2  EPW O   H1  H2  EPW O   H1  H2  
EPW O   H1  H2  EPW O   H1  H2  EPW O   H1  H2  EPW O   H1  H2  EPW O   H1  H2  
EPW O   H1  H2  EPW O   H1  H2  EPW O   H1  H2  EPW O   H1  H2  EPW O   H1  H2  
EPW O   H1  H2  EPW O   H1  H2  EPW O   H1  H2  EPW O   H1  H2  EPW O   H1  H2  
EPW O   H1  H2  EPW O   H1  H2  EPW O   H1  H2  EPW O   H1  H2  EPW O   H1  H2  
EPW O   H1  H2  EPW O   H1  H2  EPW O   H1  H2  EPW O   H1  H2  EPW O   H1  H2  
EPW O   H1  H2  EPW O   H1  H2  EPW O   H1  H2  EPW O   H1  H2  EPW O   H1  H2  
EPW O   H1  H2  EPW O   H1  H2  EPW O   H1  H2  EPW O   H1  H2  EPW O   H1  H2  
EPW O   H1  H2  EPW O   H1  H2  EPW O   H1  H2  EPW O   H1  H2  EPW O   H1  H2  
EPW O   H1  H2  EPW O   H1  H2  EPW O   H1  H2  EPW O   H1  H2  EPW O   H1  H2  
EPW O   H1  H2  EPW O   H1  H2  EPW O   H1  H2  EPW O   H1  H2  EPW O   H1  H2  
EPW O   H1  H2  EPW O   H1  H2  EPW O   H1  H2  EPW O   H1  H2  EPW O   H1  H2  
EPW O   H1  H2  EPW O   H1  H2  EPW O   H1  H2  EPW O   H1  H2  EPW O   H1  H2  
EPW O   H1  H2  EPW O   H1  H2  EPW O   H1  H2  EPW O   H1  H2  EPW O   H1  H2  
EPW O   H1  H2  EPW O   H1  H2  EPW O   H1  H2  EPW O   H1  H2  EPW O   H1  H2  
EPW O   H1  H2  EPW O   H1  H2  EPW O   H1  H2  EPW O   H1  H2  EPW O   H1  H2  
EPW O   H1  H2  EPW O   H1  H2  EPW O   H1  H2  EPW O   H1  H2  EPW O   H1  H2  
EPW O   H1  H2  EPW O   H1  H2  EPW O   H1  H2  EPW O   H1  H2  EPW O   H1  H2  
EPW O   H1  H2  EPW O   H1  H2  EPW O   H1  H2  EPW O   H1  H2  EPW O   H1  H2  
EPW O   H1  H2  EPW O   H1  H2  EPW O   H1  H2  EPW O   H1  H2  EPW O   H1  H2  
EPW O   H1  H2  EPW O   H1  H2  EPW O   H1  H2  EPW O   H1  H2  EPW O   H1  H2  
EPW O   H1  H2  EPW O   H1  H2  EPW O   H1  H2  EPW O   H1  H2  EPW O   H1  H2  
EPW O   H1  H2  EPW O   H1  H2  EPW O   H1  H2  EPW O   H1  H2  EPW O   H1  H2  
EPW O   H1  H2  EPW O   H1  H2  EPW O   H1  H2  EPW O   H1  H2  EPW O   H1  H2  
EPW O   H1  H2  EPW O   H1  H2  EPW O   H1  H2  EPW O   H1  H2  EPW O   H1  H2  
EPW O   H1  H2  EPW O   H1  H2  EPW O   H1  H2  EPW O   H1  H2  EPW O   H1  H2  
EPW O   H1  H2  EPW O   H1  H2  EPW O   H1  H2  EPW O   H1  H2  EPW O   H1  H2  
EPW O   H1  H2  EPW O   H1  H2  EPW O   H1  H2  EPW O   H1  H2  EPW O   H1  H2  
EPW O   H1  H2  EPW O   H1  H2  EPW O   H1  H2  EPW O   H1  H2  EPW O   H1  H2  
EPW O   H1  H2  EPW O   H1  H2  EPW O   H1  H2  EPW O   H1  H2  EPW O   H1  H2  
EPW O   H1  H2  EPW O   H1  H2  EPW O   H1  H2  EPW O   H1  H2  EPW O   H1  H2  
EPW O   H1  H2  EPW O   H1  H2  EPW O   H1  H2  EPW O   H1  H2  EPW O   H1  H2  
EPW O   H1  H2  EPW O   H1  H2  EPW O   H1  H2  EPW O   H1  H2  EPW O   H1  H2  
EPW O   H1  H2  EPW O   H1  H2  EPW O   H1  H2  EPW O   H1  H2  EPW O   H1  H2  
EPW O   H1  H2  EPW O   H1  H2  EPW O   H1  H2  EPW O   H1  H2  EPW O   H1  H2  
EPW O   H1  H2  EPW O   H1  H2  EPW O   H1  H2  EPW O   H1  H2  EPW O   H1  H2  
EPW O   H1  H2  EPW O   H1  H2  EPW O   H1  H2  EPW O   H1  H2  EPW O   H1  H2  
EPW O   H1  H2  EPW O   H1  H2  EPW O   H1  H2  EPW O   H1  H2  EPW O   H1  H2  
EPW O   H1  H2  EPW O   H1  H2  EPW O   H1  H2  EPW O   H1  H2  EPW O   H1  H2  
EPW O   H1  H2  EPW O   H1  H2  EPW O   H1  H2  EPW O   H1  H2  EPW O   H1  H2  
EPW O   H1  H2  EPW O   H1  H2  EPW O   H1  H2  EPW O   H1  H2  EPW O   H1  H2  
EPW O   H1  H2  EPW O   H1  H2  EPW O   H1  H2  EPW O   H1  H2  EPW O   H1  H2  
EPW O   H1  H2  EPW O   H1  H2  EPW O   H1  H2  EPW O   H1  H2  EPW O   H1  H2  
EPW O   H1  H2  EPW O   H1  H2  EPW O   H1  H2  EPW O   H1  H2  EPW O   H1  H2  
EPW O   H1  H2  EPW O   H1  H2  EPW O   H1  H2  EPW O   H1  H2  EPW O   H1  H2  
EPW O   H1  H2  EPW O   H1  H2  EPW O   H1  H2  EPW O   H1  H2  EPW O   H1  H2  
EPW O   H1  H2  EPW O   H1  H2  EPW O   H1  H2  EPW O   H1  H2  EPW O   H1  H2  
EPW O   H1  H2  EPW O   H1  H2  EPW O   H1  H2  EPW O   H1  H2  EPW O   H1  H2  
EPW O   H1  H2  EPW O   H1  H2  EPW O   H1  H2  EPW O   H1  H2  EPW O   H1  H2  
EPW O   H1  H2  EPW O   H1  H2  EPW O   H1  H2  EPW O   H1  H2  EPW O   H1  H2  
EPW O   H1  H2  EPW O   H1  H2  EPW O   H1  H2  EPW O   H1  H2  EPW O   H1  H2  
EPW O   H1  H2  EPW O   H1  H2  EPW O   H1  H2  EPW O   H1  H2  EPW O   H1  H2  
EPW O   H1  H2  EPW O   H1  H2  EPW O   H1  H2  EPW O   H1  H2  EPW O   H1  H2  
EPW O   H1  H2  EPW O   H1  H2  EPW O   H1  H2  EPW O   H1  H2  EPW O   H1  H2  
EPW O   H1  H2  EPW O   H1  H2  EPW O   H1  H2  EPW O   H1  H2  EPW O   H1  H2  
EPW O   H1  H2  EPW O   H1  H2  EPW O   H1  H2  EPW O   H1  H2  EPW O   H1  H2  
EPW O   H1  H2  EPW O   H1  H2  EPW O   H1  H2  EPW O   H1  H2  EPW O   H1  H2  
EPW O   H1  H2  EPW O   H1  H2  EPW O   H1  H2  EPW O   H1  H2  EPW O   H1  H2  
EPW O   H1  H2  EPW O   H1  H2  EPW O   H1  H2  EPW O   H1  H2  EPW O   H1  H2  
EPW O   H1  H2  EPW O   H1  H2  EPW O   H1  H2  EPW O   H1  H2  EPW O   H1  H2  
EPW O   H1  H2  EPW O   H1  H2  EPW O   H1  H2  EPW O   H1  H2  EPW O   H1  H2  
EPW O   H1  H2  EPW O   H1  H2  EPW O   H1  H2  EPW O   H1  H2  EPW O   H1  H2  
EPW O   H1  H2  EPW O   H1  H2  EPW O   H1  H2  EPW O   H1  H2  EPW O   H1  H2  
EPW O   H1  H2  EPW O   H1  H2  EPW O   H1  H2  EPW O   H1  H2  EPW O   H1  H2  
EPW O   H1  H2  EPW O   H1  H2  EPW O   H1  H2  EPW O   H1  H2  EPW O   H1  H2  
EPW O   H1  H2  EPW O   H1  H2  EPW O   H1  H2  EPW O   H1  H2  EPW O   H1  H2  
EPW O   H1  H2  EPW O   H1  H2  EPW O   H1  H2  EPW O   H1  H2  EPW O   H1  H2  
EPW O   H1  H2  EPW O   H1  H2  EPW O   H1  H2  EPW O   H1  H2  EPW O   H1  H2  
EPW O   H1  H2  EPW O   H1  H2  EPW O   H1  H2  EPW O   H1  H2  EPW O   H1  H2  
EPW O   H1  H2  EPW O   H1  H2  EPW O   H1  H2  EPW O   H1  H2  EPW O   H1  H2  
EPW O   H1  H2  EPW O   H1  H2  EPW O   H1  H2  EPW O   H1  H2  EPW O   H1  H2  
EPW O   H1  H2  EPW O   H1  H2  EPW O   H1  H2  EPW O   H1  H2  EPW O   H1  H2  
EPW O   H1  H2  EPW O   H1  H2  EPW O   H1  H2  EPW O   H1  H2  EPW O   H1  H2  
EPW O   H1  H2  EPW O   H1  H2  EPW O   H1  H2  EPW O   H1  H2  EPW O   H1  H2  
EPW O   H1  H2  EPW O   H1  H2  EPW O   H1  H2  EPW O   H1  H2  EPW O   H1  H2  
EPW O   H1  H2  EPW O   H1  H2  EPW O   H1  H2  EPW O   H1  H2  EPW O   H1  H2  
EPW O   H1  H2  EPW O   H1  H2  EPW O   H1  H2  EPW O   H1  H2  EPW O   H1  H2  
EPW O   H1  H2  EPW O   H1  H2  EPW O   H1  H2  EPW O   H1  H2  EPW O   H1  H2  
EPW O   H1  H2  EPW O   H1  H2  EPW O   H1  H2  EPW O   H1  H2  EPW O   H1  H2  
EPW O   H1  H2  EPW O   H1  H2  EPW O   H1  H2  EPW O   H1  H2  EPW O   H1  H2  
EPW O   H1  H2  EPW O   H1  H2  EPW O   H1  H2  EPW O   H1  H2  EPW O   H1  H2  
EPW O   H1  H2  EPW O   H1  H2  EPW O   H1  H2  EPW O   H1  H2  EPW O   H1  H2  
EPW O   H1  H2  EPW O   H1  H2  EPW O   H1  H2  EPW O   H1  H2  EPW O   H1  H2  
EPW O   H1  H2  EPW O   H1  H2  EPW O   H1  H2  EPW O   H1  H2  EPW O   H1  H2  
EPW O   H1  H2  EPW O   H1  H2  EPW O   H1  H2  EPW O   H1  H2  EPW O   H1  H2  
EPW O   H1  H2  EPW O   H1  H2  EPW O   H1  H2  EPW O   H1  H2  EPW O   H1  H2  
EPW O   H1  H2  EPW O   H1  H2  EPW O   H1  H2  EPW O   H1  H2  EPW O   H1  H2  
EPW O   H1  H2  EPW O   H1  H2  EPW O   H1  H2  EPW O   H1  H2  EPW O   H1  H2  
EPW O   H1  H2  EPW O   H1  H2  EPW O   H1  H2  EPW O   H1  H2  EPW O   H1  H2  
EPW O   H1  H2  EPW O   H1  H2  EPW O   H1  H2  EPW O   H1  H2  EPW O   H1  H2  
EPW O   H1  H2  EPW O   H1  H2  EPW O   H1  H2  EPW O   H1  H2  EPW O   H1  H2  
EPW O   H1  H2  EPW O   H1  H2  EPW O   H1  H2  EPW O   H1  H2  EPW O   H1  H2  
EPW O   H1  H2  EPW O   H1  H2  EPW O   H1  H2  EPW O   H1  H2  EPW O   H1  H2  
EPW O   H1  H2  EPW O   H1  H2  EPW O   H1  H2  EPW O   H1  H2  EPW O   H1  H2  
EPW O   H1  H2  EPW O   H1  H2  EPW O   H1  H2  EPW O   H1  H2  EPW O   H1  H2  
EPW O   H1  H2  EPW O   H1  H2  EPW O   H1  H2  EPW O   H1  H2  EPW O   H1  H2  
EPW O   H1  H2  EPW O   H1  H2  EPW O   H1  H2  EPW O   H1  H2  EPW O   H1  H2  
EPW O   H1  H2  EPW O   H1  H2  EPW O   H1  H2  EPW O   H1  H2  EPW O   H1  H2  
EPW O   H1  H2  EPW O   H1  H2  EPW O   H1  H2  EPW O   H1  H2  EPW O   H1  H2  
EPW O   H1  H2  EPW O   H1  H2  EPW O   H1  H2  EPW O   H1  H2  EPW O   H1  H2  
EPW O   H1  H2  EPW O   H1  H2  EPW O   H1  H2  EPW O   H1  H2  EPW O   H1  H2  
EPW O   H1  H2  EPW O   H1  H2  EPW O   H1  H2  EPW O   H1  H2  EPW O   H1  H2  
EPW O   H1  H2  EPW O   H1  H2  EPW O   H1  H2  EPW O   H1  H2  EPW O   H1  H2  
EPW O   H1  H2  EPW O   H1  H2  EPW O   H1  H2  EPW O   H1  H2  EPW O   H1  H2  
EPW O   H1  H2  EPW O   H1  H2  EPW O   H1  H2  EPW O   H1  H2  EPW O   H1  H2  
EPW O   H1  H2  EPW O   H1  H2  EPW O   H1  H2  EPW O   H1  H2  EPW O   H1  H2  
EPW O   H1  H2  EPW O   H1  H2  EPW O   H1  H2  EPW O   H1  H2  EPW O   H1  H2  
EPW O   H1  H2  EPW O   H1  H2  EPW O   H1  H2  EPW O   H1  H2  EPW O   H1  H2  
EPW O   H1  H2  EPW O   H1  H2  EPW O   H1  H2  EPW O   H1  H2  EPW O   H1  H2  
EPW O   H1  H2  EPW O   H1  H2  EPW O   H1  H2  EPW O   H1  H2  EPW O   H1  H2  
EPW O   H1  H2  EPW O   H1  H2  EPW O   H1  H2  EPW O   H1  H2  EPW O   H1  H2  
EPW O   H1  H2  EPW O   H1  H2  EPW O   H1  H2  EPW O   H1  H2  EPW O   H1  H2  
EPW O   H1  H2  EPW O   H1  H2  EPW O   H1  H2  EPW O   H1  H2  EPW O   H1  H2  
EPW O   H1  H2  EPW O   H1  H2  EPW O   H1  H2  EPW O   H1  H2  EPW O   H1  H2  
EPW O   H1  H2  EPW O   H1  H2  EPW O   H1  H2  EPW O   H1  H2  EPW O   H1  H2  
EPW O   H1  H2  EPW O   H1  H2  EPW O   H1  H2  EPW O   H1  H2  EPW O   H1  H2  
EPW O   H1  H2  EPW O   H1  H2  EPW O   H1  H2  EPW O   H1  H2  EPW O   H1  H2  
EPW O   H1  H2  EPW O   H1  H2  EPW O   H1  H2  EPW O   H1  H2  EPW O   H1  H2  
EPW O   H1  H2  EPW O   H1  H2  EPW O   H1  H2  EPW O   H1  H2  EPW O   H1  H2  
EPW O   H1  H2  EPW O   H1  H2  EPW O   H1  H2  EPW O   H1  H2  EPW O   H1  H2  
EPW O   H1  H2  EPW O   H1  H2  EPW O   H1  H2  EPW O   H1  H2  EPW O   H1  H2  
EPW O   H1  H2  EPW O   H1  H2  EPW O   H1  H2  EPW O   H1  H2  EPW O   H1  H2  
EPW O   H1  H2  EPW O   H1  H2  EPW O   H1  H2  EPW O   H1  H2  EPW O   H1  H2  
EPW O   H1  H2  EPW O   H1  H2  EPW O   H1  H2  EPW O   H1  H2  EPW O   H1  H2  
EPW O   H1  H2  EPW O   H1  H2  EPW O   H1  H2  EPW O   H1  H2  EPW O   H1  H2  
EPW O   H1  H2  EPW O   H1  H2  EPW O   H1  H2  EPW O   H1  H2  EPW O   H1  H2  
EPW O   H1  H2  EPW O   H1  H2  EPW O   H1  H2  EPW O   H1  H2  EPW O   H1  H2  
EPW O   H1  H2  EPW O   H1  H2  EPW O   H1  H2  EPW O   H1  H2  EPW O   H1  H2  
EPW O   H1  H2  EPW O   H1  H2  EPW O   H1  H2  EPW O   H1  H2  EPW O   H1  H2  
EPW O   H1  H2  EPW O   H1  H2  EPW O   H1  H2  EPW O   H1  H2  EPW O   H1  H2  
EPW O   H1  H2  EPW O   H1  H2  EPW O   H1  H2  EPW O   H1  H2  EPW O   H1  H2  
EPW O   H1  H2  EPW O   H1  H2  EPW O   H1  H2  EPW O   H1  H2  EPW O   H1  H2  
EPW O   H1  H2  EPW O   H1  H2  EPW O   H1  H2  EPW O   H1  H2  EPW O   H1  H2  
EPW O   H1  H2  EPW O   H1  H2  EPW O   H1  H2  EPW O   H1  H2  EPW O   H1  H2  
EPW O   H1  H2  EPW O   H1  H2  EPW O   H1  H2  EPW O   H1  H2  EPW O   H1  H2  
EPW O   H1  H2  EPW O   H1  H2  EPW O   H1  H2  EPW O   H1  H2  EPW O   H1  H2  
EPW O   H1  H2  EPW O   H1  H2  EPW O   H1  H2  EPW O   H1  H2  EPW O   H1  H2  
EPW O   H1  H2  EPW O   H1  H2  EPW O   H1  H2  EPW O   H1  H2  EPW O   H1  H2  
EPW O   H1  H2  EPW O   H1  H2  EPW O   H1  H2  EPW O   H1  H2  EPW O   H1  H2  
EPW O   H1  H2  EPW O   H1  H2  EPW O   H1  H2  EPW O   H1  H2  EPW O   H1  H2  
EPW O   H1  H2  EPW O   H1  H2  EPW O   H1  H2  EPW O   H1  H2  EPW O   H1  H2  
EPW O   H1  H2  EPW O   H1  H2  EPW O   H1  H2  EPW O   H1  H2  EPW O   H1  H2  
EPW O   H1  H2  EPW O   H1  H2  EPW O   H1  H2  EPW O   H1  H2  EPW O   H1  H2  
EPW O   H1  H2  EPW O   H1  H2  EPW O   H1  H2  EPW O   H1  H2  EPW O   H1  H2  
EPW O   H1  H2  EPW O   H1  H2  EPW O   H1  H2  EPW O   H1  H2  EPW O   H1  H2  
EPW O   H1  H2  EPW O   H1  H2  EPW O   H1  H2  EPW O   H1  H2  EPW O   H1  H2  
EPW O   H1  H2  EPW O   H1  H2  EPW O   H1  H2  EPW O   H1  H2  EPW O   H1  H2  
EPW O   H1  H2  EPW O   H1  H2  EPW O   H1  H2  EPW O   H1  H2  EPW O   H1  H2  
EPW O   H1  H2  EPW O   H1  H2  EPW O   H1  H2  EPW O   H1  H2  EPW O   H1  H2  
EPW O   H1  H2  EPW O   H1  H2  EPW O   H1  H2  EPW O   H1  H2  EPW O   H1  H2  
EPW O   H1  H2  EPW O   H1  H2  EPW O   H1  H2  EPW O   H1  H2  EPW O   H1  H2  
EPW O   H1  H2  EPW O   H1  H2  EPW O   H1  H2  EPW O   H1  H2  EPW O   H1  H2  
EPW O   H1  H2  EPW O   H1  H2  EPW O   H1  H2  EPW O   H1  H2  EPW O   H1  H2  
EPW O   H1  H2  EPW O   H1  H2  EPW O   H1  H2  EPW O   H1  H2  EPW O   H1  H2  
EPW O   H1  H2  EPW O   H1  H2  EPW O   H1  H2  EPW O   H1  H2  EPW O   H1  H2  
EPW O   H1  H2  EPW O   H1  H2  EPW O   H1  H2  EPW O   H1  H2  EPW O   H1  H2  
EPW O   H1  H2  EPW O   H1  H2  EPW O   H1  H2  EPW O   H1  H2  EPW O   H1  H2  
EPW O   H1  H2  EPW O   H1  H2  EPW O   H1  H2  EPW O   H1  H2  EPW O   H1  H2  
EPW O   H1  H2  EPW O   H1  H2  EPW O   H1  H2  EPW O   H1  H2  EPW O   H1  H2  
EPW O   H1  H2  EPW O   H1  H2  EPW O   H1  H2  EPW O   H1  H2  EPW O   H1  H2  
EPW O   H1  H2  EPW O   H1  H2  EPW O   H1  H2  EPW O   H1  H2  EPW O   H1  H2  
EPW O   H1  H2  EPW O   H1  H2  EPW O   H1  H2  EPW O   H1  H2  EPW O   H1  H2  
EPW O   H1  H2  EPW O   H1  H2  EPW O   H1  H2  EPW O   H1  H2  EPW O   H1  H2  
EPW O   H1  H2  EPW O   H1  H2  EPW O   H1  H2  EPW O   H1  H2  EPW O   H1  H2  
EPW O   H1  H2  EPW O   H1  H2  EPW O   H1  H2  EPW O   H1  H2  EPW O   H1  H2  
EPW O   H1  H2  EPW O   H1  H2  EPW O   H1  H2  EPW O   H1  H2  EPW O   H1  H2  
EPW O   H1  H2  EPW O   H1  H2  EPW O   H1  H2  EPW O   H1  H2  EPW O   H1  H2  
EPW O   H1  H2  EPW O   H1  H2  EPW O   H1  H2  EPW O   H1  H2  EPW O   H1  H2  
EPW O   H1  H2  EPW O   H1  H2  EPW O   H1  H2  EPW O   H1  H2  EPW O   H1  H2  
EPW O   H1  H2  EPW O   H1  H2  EPW O   H1  H2  EPW O   H1  H2  EPW O   H1  H2  
EPW O   H1  H2  EPW O   H1  H2  EPW O   H1  H2  EPW O   H1  H2  EPW O   H1  H2  
EPW O   H1  H2  EPW O   H1  H2  EPW O   H1  H2  EPW O   H1  H2  EPW O   H1  H2  
EPW O   H1  H2  EPW O   H1  H2  EPW O   H1  H2  EPW O   H1  H2  EPW O   H1  H2  
EPW O   H1  H2  EPW O   H1  H2  EPW O   H1  H2  EPW O   H1  H2  EPW O   H1  H2  
EPW O   H1  H2  EPW O   H1  H2  EPW O   H1  H2  EPW O   H1  H2  EPW O   H1  H2  
EPW O   H1  H2  EPW O   H1  H2  EPW O   H1  H2  EPW O   H1  H2  EPW O   H1  H2  
EPW O   H1  H2  EPW O   H1  H2  EPW O   H1  H2  EPW O   H1  H2  EPW O   H1  H2  
EPW O   H1  H2  EPW O   H1  H2  EPW O   H1  H2  EPW O   H1  H2  EPW O   H1  H2  
EPW O   H1  H2  EPW O   H1  H2  EPW O   H1  H2  EPW O   H1  H2  EPW O   H1  H2  
EPW O   H1  H2  EPW O   H1  H2  EPW O   H1  H2  EPW O   H1  H2  EPW O   H1  H2  
EPW O   H1  H2  EPW O   H1  H2  EPW O   H1  H2  EPW O   H1  H2  EPW O   H1  H2  
EPW O   H1  H2  EPW O   H1  H2  EPW O   H1  H2  EPW O   H1  H2  EPW O   H1  H2  
EPW O   H1  H2  EPW O   H1  H2  EPW O   H1  H2  EPW O   H1  H2  EPW O   H1  H2  
EPW O   H1  H2  EPW O   H1  H2  EPW O   H1  H2  EPW O   H1  H2  EPW O   H1  H2  
EPW O   H1  H2  EPW O   H1  H2  EPW O   H1  H2  EPW O   H1  H2  EPW O   H1  H2  
EPW O   H1  H2  EPW O   H1  H2  EPW O   H1  H2  EPW O   H1  H2  EPW O   H1  H2  
EPW O   H1  H2  EPW O   H1  H2  EPW O   H1  H2  EPW O   H1  H2  EPW O   H1  H2  
EPW O   H1  H2  EPW O   H1  H2  EPW O   H1  H2  EPW O   H1  H2  EPW O   H1  H2  
EPW O   H1  H2  EPW O   H1  H2  EPW O   H1  H2  EPW O   H1  H2  EPW O   H1  H2  
EPW O   H1  H2  EPW O   H1  H2  EPW O   H1  H2  EPW O   H1  H2  EPW O   H1  H2  
EPW O   H1  H2  EPW O   H1  H2  EPW O   H1  H2  EPW O   H1  H2  EPW O   H1  H2  
EPW O   H1  H2  EPW O   H1  H2  EPW O   H1  H2  EPW O   H1  H2  EPW O   H1  H2  
EPW O   H1  H2  EPW O   H1  H2  EPW O   H1  H2  EPW O   H1  H2  EPW O   H1  H2  
EPW O   H1  H2  EPW O   H1  H2  EPW O   H1  H2  EPW O   H1  H2  EPW O   H1  H2  
EPW O   H1  H2  EPW O   H1  H2  EPW O   H1  H2  EPW O   H1  H2  EPW O   H1  H2  
EPW O   H1  H2  EPW O   H1  H2  EPW O   H1  H2  EPW O   H1  H2  EPW O   H1  H2  
EPW O   H1  H2  EPW O   H1  H2  EPW O   H1  H2  EPW O   H1  H2  EPW O   H1  H2  
EPW O   H1  H2  EPW O   H1  H2  EPW O   H1  H2  EPW O   H1  H2  EPW O   H1  H2  
EPW O   H1  H2  EPW O   H1  H2  EPW O   H1  H2  EPW O   H1  H2  EPW O   H1  H2  
EPW O   H1  H2  EPW O   H1  H2  EPW O   H1  H2  EPW O   H1  H2  EPW O   H1  H2  
EPW O   H1  H2  EPW O   H1  H2  EPW O   H1  H2  EPW O   H1  H2  EPW O   H1  H2  
EPW O   H1  H2  EPW O   H1  H2  EPW O   H1  H2  EPW O   H1  H2  EPW O   H1  H2  
EPW O   H1  H2  EPW O   H1  H2  EPW O   H1  H2  EPW O   H1  H2  EPW O   H1  H2  
EPW O   H1  H2  EPW O   H1  H2  EPW O   H1  H2  EPW O   H1  H2  EPW O   H1  H2  
EPW O   H1  H2  EPW O   H1  H2  EPW O   H1  H2  EPW O   H1  H2  EPW O   H1  H2  
EPW O   H1  H2  EPW O   H1  H2  EPW O   H1  H2  EPW O   H1  H2  EPW O   H1  H2  
EPW O   H1  H2  EPW O   H1  H2  EPW O   H1  H2  EPW O   H1  H2  EPW O   H1  H2  
EPW O   H1  H2  EPW O   H1  H2  EPW O   H1  H2  EPW O   H1  H2  EPW O   H1  H2  
EPW O   H1  H2  EPW O   H1  H2  EPW O   H1  H2  EPW O   H1  H2  EPW O   H1  H2  
EPW O   H1  H2  EPW O   H1  H2  EPW O   H1  H2  EPW O   H1  H2  EPW O   H1  H2  
EPW O   H1  H2  EPW O   H1  H2  EPW O   H1  H2  EPW O   H1  H2  EPW O   H1  H2  
EPW O   H1  H2  EPW O   H1  H2  EPW O   H1  H2  EPW O   H1  H2  EPW O   H1  H2  
EPW O   H1  H2  EPW O   H1  H2  EPW O   H1  H2  EPW O   H1  H2  EPW O   H1  H2  
EPW O   H1  H2  EPW O   H1  H2  EPW O   H1  H2  EPW O   H1  H2  EPW O   H1  H2  
EPW O   H1  H2  EPW O   H1  H2  EPW O   H1  H2  EPW O   H1  H2  EPW O   H1  H2  
EPW O   H1  H2  EPW O   H1  H2  EPW O   H1  H2  EPW O   H1  H2  EPW O   H1  H2  
EPW O   H1  H2  EPW O   H1  H2  EPW O   H1  H2  EPW O   H1  H2  EPW O   H1  H2  
EPW O   H1  H2  EPW O   H1  H2  EPW O   H1  H2  EPW O   H1  H2  EPW O   H1  H2  
EPW O   H1  H2  EPW O   H1  H2  EPW O   H1  H2  EPW O   H1  H2  EPW O   H1  H2  
EPW O   H1  H2  EPW O   H1  H2  EPW O   H1  H2  EPW O   H1  H2  EPW O   H1  H2  
EPW O   H1  H2  EPW O   H1  H2  EPW O   H1  H2  EPW O   H1  H2  EPW O   H1  H2  
EPW O   H1  H2  EPW O   H1  H2  EPW O   H1  H2  EPW O   H1  H2  EPW O   H1  H2  
EPW O   H1  H2  EPW O   H1  H2  EPW O   H1  H2  EPW O   H1  H2  EPW O   H1  H2  
EPW O   H1  H2  EPW O   H1  H2  EPW O   H1  H2  EPW O   H1  H2  EPW O   H1  H2  
EPW O   H1  H2  EPW O   H1  H2  EPW O   H1  H2  EPW O   H1  H2  EPW O   H1  H2  
EPW O   H1  H2  EPW O   H1  H2  EPW O   H1  H2  EPW O   H1  H2  EPW O   H1  H2  
EPW O   H1  H2  EPW O   H1  H2  EPW O   H1  H2  EPW O   H1  H2  EPW O   H1  H2  
EPW O   H1  H2  EPW O   H1  H2  EPW O   H1  H2  EPW O   H1  H2  EPW O   H1  H2  
EPW O   H1  H2  EPW O   H1  H2  EPW O   H1  H2  EPW O   H1  H2  EPW O   H1  H2  
EPW O   H1  H2  EPW O   H1  H2  EPW O   H1  H2  EPW O   H1  H2  EPW O   H1  H2  
EPW O   H1  H2  EPW O   H1  H2  EPW O   H1  H2  EPW O   H1  H2  EPW O   H1  H2  
EPW O   H1  H2  EPW O   H1  H2  EPW O   H1  H2  EPW O   H1  H2  EPW O   H1  H2  
EPW O   H1  H2  EPW O   H1  H2  EPW O   H1  H2  EPW O   H1  H2  EPW O   H1  H2  
EPW O   H1  H2  EPW O   H1  H2  EPW O   H1  H2  EPW O   H1  H2  EPW O   H1  H2  
EPW O   H1  H2  EPW O   H1  H2  EPW O   H1  H2  EPW O   H1  H2  EPW O   H1  H2  
EPW O   H1  H2  EPW O   H1  H2  EPW O   H1  H2  EPW O   H1  H2  EPW O   H1  H2  
EPW O   H1  H2  EPW O   H1  H2  EPW O   H1  H2  EPW O   H1  H2  EPW O   H1  H2  
EPW O   H1  H2  EPW O   H1  H2  EPW O   H1  H2  EPW O   H1  H2  EPW O   H1  H2  
EPW O   H1  H2  EPW O   H1  H2  EPW O   H1  H2  EPW O   H1  H2  EPW O   H1  H2  
EPW O   H1  H2  EPW O   H1  H2  EPW O   H1  H2  EPW O   H1  H2  EPW O   H1  H2  
EPW O   H1  H2  EPW O   H1  H2  EPW O   H1  H2  EPW O   H1  H2  EPW O   H1  H2  
EPW O   H1  H2  EPW O   H1  H2  EPW O   H1  H2  EPW O   H1  H2  EPW O   H1  H2  
EPW O   H1  H2  EPW O   H1  H2  EPW O   H1  H2  EPW O   H1  H2  EPW O   H1  H2  
EPW O   H1  H2  EPW O   H1  H2  EPW O   H1  H2  EPW O   H1  H2  EPW O   H1  H2  
EPW O   H1  H2  EPW O   H1  H2  EPW O   H1  H2  EPW O   H1  H2  EPW O   H1  H2  
EPW O   H1  H2  EPW O   H1  H2  EPW O   H1  H2  EPW O   H1  H2  EPW O   H1  H2  
EPW O   H1  H2  EPW O   H1  H2  EPW O   H1  H2  EPW O   H1  H2  EPW O   H1  H2  
EPW O   H1  H2  EPW O   H1  H2  EPW O   H1  H2  EPW O   H1  H2  EPW O   H1  H2  
EPW O   H1  H2  EPW O   H1  H2  EPW O   H1  H2  EPW O   H1  H2  EPW O   H1  H2  
EPW O   H1  H2  EPW O   H1  H2  EPW O   H1  H2  EPW O   H1  H2  EPW O   H1  H2  
EPW O   H1  H2  EPW O   H1  H2  EPW O   H1  H2  EPW O   H1  H2  EPW O   H1  H2  
EPW O   H1  H2  EPW O   H1  H2  EPW O   H1  H2  EPW O   H1  H2  EPW O   H1  H2  
EPW O   H1  H2  EPW O   H1  H2  EPW O   H1  H2  EPW O   H1  H2  EPW O   H1  H2  
EPW O   H1  H2  EPW O   H1  H2  EPW O   H1  H2  EPW O   H1  H2  EPW O   H1  H2  
EPW O   H1  H2  EPW O   H1  H2  EPW O   H1  H2  EPW O   H1  H2  EPW O   H1  H2  
EPW O   H1  H2  EPW O   H1  H2  EPW O   H1  H2  EPW O   H1  H2  EPW O   H1  H2  
EPW O   H1  H2  EPW O   H1  H2  EPW O   H1  H2  EPW O   H1  H2  EPW O   H1  H2  
EPW O   H1  H2  EPW O   H1  H2  EPW O   H1  H2  EPW O   H1  H2  EPW O   H1  H2  
EPW O   H1  H2  EPW O   H1  H2  EPW O   H1  H2  EPW O   H1  H2  EPW O   H1  H2  
EPW O   H1  H2  EPW O   H1  H2  EPW O   H1  H2  EPW O   H1  H2  EPW O   H1  H2  
EPW O   H1  H2  EPW O   H1  H2  EPW O   H1  H2  EPW O   H1  H2  EPW O   H1  H2  
EPW O   H1  H2  EPW O   H1  H2  EPW O   H1  H2  EPW O   H1  H2  EPW O   H1  H2  
EPW O   H1  H2  EPW O   H1  H2  EPW O   H1  H2  EPW O   H1  H2  EPW O   H1  H2  
EPW O   H1  H2  EPW O   H1  H2  EPW O   H1  H2  EPW O   H1  H2  EPW O   H1  H2  
EPW O   H1  H2  EPW O   H1  H2  EPW O   H1  H2  EPW O   H1  H2  EPW O   H1  H2  
EPW O   H1  H2  EPW O   H1  H2  EPW O   H1  H2  EPW O   H1  H2  EPW O   H1  H2  
EPW O   H1  H2  EPW O   H1  H2  EPW O   H1  H2  EPW O   H1  H2  EPW O   H1  H2  
EPW O   H1  H2  EPW O   H1  H2  EPW O   H1  H2  EPW O   H1  H2  EPW O   H1  H2  
EPW O   H1  H2  EPW O   H1  H2  EPW O   H1  H2  EPW O   H1  H2  EPW O   H1  H2  
EPW O   H1  H2  EPW O   H1  H2  EPW O   H1  H2  EPW O   H1  H2  EPW O   H1  H2  
EPW O   H1  H2  EPW O   H1  H2  EPW O   H1  H2  EPW O   H1  H2  EPW O   H1  H2  
EPW O   H1  H2  EPW O   H1  H2  EPW O   H1  H2  EPW O   H1  H2  EPW O   H1  H2  
EPW O   H1  H2  EPW O   H1  H2  EPW O   H1  H2  EPW O   H1  H2  EPW O   H1  H2  
EPW O   H1  H2  EPW O   H1  H2  EPW O   H1  H2  EPW O   H1  H2  EPW O   H1  H2  
EPW O   H1  H2  EPW O   H1  H2  EPW O   H1  H2  EPW O   H1  H2  EPW O   H1  H2  
EPW O   H1  H2  EPW O   H1  H2  EPW O   H1  H2  EPW O   H1  H2  EPW O   H1  H2  
EPW O   H1  H2  EPW O   H1  H2  EPW O   H1  H2  EPW O   H1  H2  EPW O   H1  H2  
EPW O   H1  H2  EPW O   H1  H2  EPW O   H1  H2  EPW O   H1  H2  EPW O   H1  H2  
EPW O   H1  H2  EPW O   H1  H2  EPW O   H1  H2  EPW O   H1  H2  EPW O   H1  H2  
EPW O   H1  H2  EPW O   H1  H2  EPW O   H1  H2  EPW O   H1  H2  EPW O   H1  H2  
EPW O   H1  H2  EPW O   H1  H2  EPW O   H1  H2  EPW O   H1  H2  EPW O   H1  H2  
EPW O   H1  H2  EPW O   H1  H2  EPW O   H1  H2  EPW O   H1  H2  EPW O   H1  H2  
EPW O   H1  H2  EPW O   H1  H2  EPW O   H1  H2  EPW O   H1  H2  EPW O   H1  H2  
EPW O   H1  H2  EPW O   H1  H2  EPW O   H1  H2  EPW O   H1  H2  EPW O   H1  H2  
EPW O   H1  H2  EPW O   H1  H2  EPW O   H1  H2  EPW O   H1  H2  EPW O   H1  H2  
EPW O   H1  H2  EPW O   H1  H2  EPW O   H1  H2  EPW O   H1  H2  EPW O   H1  H2  
EPW O   H1  H2  EPW O   H1  H2  EPW O   H1  H2  EPW O   H1  H2  EPW O   H1  H2  
EPW O   H1  H2  EPW O   H1  H2  EPW O   H1  H2  EPW O   H1  H2  EPW O   H1  H2  
EPW O   H1  H2  EPW O   H1  H2  EPW O   H1  H2  EPW O   H1  H2  EPW O   H1  H2  
EPW O   H1  H2  EPW O   H1  H2  EPW O   H1  H2  EPW O   H1  H2  EPW O   H1  H2  
EPW O   H1  H2  EPW O   H1  H2  EPW O   H1  H2  EPW O   H1  H2  EPW O   H1  H2  
EPW O   H1  H2  EPW O   H1  H2  EPW O   H1  H2  EPW O   H1  H2  EPW O   H1  H2  
EPW O   H1  H2  EPW O   H1  H2  EPW O   H1  H2  EPW O   H1  H2  EPW O   H1  H2  
EPW O   H1  H2  EPW O   H1  H2  EPW O   H1  H2  EPW O   H1  H2  EPW O   H1  H2  
EPW O   H1  H2  EPW O   H1  H2  EPW O   H1  H2  EPW O   H1  H2  EPW O   H1  H2  
EPW O   H1  H2  EPW O   H1  H2  EPW O   H1  H2  EPW O   H1  H2  EPW O   H1  H2  
EPW O   H1  H2  EPW O   H1  H2  EPW O   H1  H2  EPW O   H1  H2  EPW O   H1  H2  
EPW O   H1  H2  EPW O   H1  H2  EPW O   H1  H2  EPW O   H1  H2  EPW O   H1  H2  
EPW O   H1  H2  EPW O   H1  H2  EPW O   H1  H2  EPW O   H1  H2  EPW O   H1  H2  
EPW O   H1  H2  EPW O   H1  H2  EPW O   H1  H2  EPW O   H1  H2  EPW O   H1  H2  
EPW O   H1  H2  EPW O   H1  H2  EPW O   H1  H2  EPW O   H1  H2  EPW O   H1  H2  
EPW O   H1  H2  EPW O   H1  H2  EPW O   H1  H2  EPW O   H1  H2  EPW O   H1  H2  
EPW O   H1  H2  EPW O   H1  H2  EPW O   H1  H2  EPW O   H1  H2  EPW O   H1  H2  
EPW O   H1  H2  EPW O   H1  H2  EPW O   H1  H2  EPW O   H1  H2  EPW O   H1  H2  
EPW O   H1  H2  EPW O   H1  H2  EPW O   H1  H2  EPW O   H1  H2  EPW O   H1  H2  
EPW O   H1  H2  EPW O   H1  H2  EPW O   H1  H2  EPW O   H1  H2  EPW O   H1  H2  
EPW O   H1  H2  EPW O   H1  H2  EPW O   H1  H2  EPW O   H1  H2  EPW O   H1  H2  
EPW O   H1  H2  EPW O   H1  H2  EPW O   H1  H2  EPW O   H1  H2  EPW O   H1  H2  
EPW O   H1  H2  EPW O   H1  H2  EPW O   H1  H2  EPW O   H1  H2  EPW O   H1  H2  
EPW O   H1  H2  EPW O   H1  H2  EPW O   H1  H2  EPW O   H1  H2  EPW O   H1  H2  
EPW O   H1  H2  EPW O   H1  H2  EPW O   H1  H2  EPW O   H1  H2  EPW O   H1  H2  
EPW O   H1  H2  EPW O   H1  H2  EPW O   H1  H2  EPW O   H1  H2  EPW O   H1  H2  
EPW O   H1  H2  EPW O   H1  H2  EPW O   H1  H2  EPW O   H1  H2  EPW O   H1  H2  
EPW O   H1  H2  EPW O   H1  H2  EPW O   H1  H2  EPW O   H1  H2  EPW O   H1  H2  
EPW O   H1  H2  EPW O   H1  H2  EPW O   H1  H2  EPW O   H1  H2  EPW O   H1  H2  
EPW O   H1  H2  EPW O   H1  H2  EPW O   H1  H2  EPW O   H1  H2  EPW O   H1  H2  
EPW O   H1  H2  EPW O   H1  H2  EPW O   H1  H2  EPW O   H1  H2  EPW O   H1  H2  
EPW O   H1  H2  EPW O   H1  H2  EPW O   H1  H2  EPW O   H1  H2  EPW O   H1  H2  
EPW O   H1  H2  EPW O   H1  H2  EPW O   H1  H2  EPW O   H1  H2  EPW O   H1  H2  
EPW O   H1  H2  EPW O   H1  H2  EPW O   H1  H2  EPW O   H1  H2  EPW O   H1  H2  
EPW O   H1  H2  EPW O   H1  H2  EPW O   H1  H2  EPW O   H1  H2  EPW O   H1  H2  
EPW O   H1  H2  EPW O   H1  H2  EPW O   H1  H2  EPW O   H1  H2  EPW O   H1  H2  
EPW O   H1  H2  EPW O   H1  H2  EPW O   H1  H2  EPW O   H1  H2  EPW O   H1  H2  
EPW O   H1  H2  EPW O   H1  H2  EPW O   H1  H2  EPW O   H1  H2  EPW O   H1  H2  
EPW O   H1  H2  EPW O   H1  H2  EPW O   H1  H2  EPW O   H1  H2  EPW O   H1  H2  
EPW O   H1  H2  EPW O   H1  H2  EPW O   H1  H2  EPW O   H1  H2  EPW O   H1  H2  
EPW O   H1  H2  EPW O   H1  H2  EPW O   H1  H2  EPW O   H1  H2  EPW O   H1  H2  
EPW O   H1  H2  EPW O   H1  H2  EPW O   H1  H2  EPW O   H1  H2  EPW O   H1  H2  
EPW O   H1  H2  EPW O   H1  H2  EPW O   H1  H2  EPW O   H1  H2  EPW O   H1  H2  
EPW O   H1  H2  EPW O   H1  H2  EPW O   H1  H2  EPW O   H1  H2  EPW O   H1  H2  
EPW O   H1  H2  EPW O   H1  H2  EPW O   H1  H2  EPW O   H1  H2  EPW O   H1  H2  
EPW O   H1  H2  EPW O   H1  H2  EPW O   H1  H2  EPW O   H1  H2  EPW O   H1  H2  
EPW O   H1  H2  EPW O   H1  H2  EPW O   H1  H2  EPW O   H1  H2  EPW O   H1  H2  
EPW O   H1  H2  EPW O   H1  H2  EPW O   H1  H2  EPW O   H1  H2  EPW O   H1  H2  
EPW O   H1  H2  EPW O   H1  H2  EPW O   H1  H2  EPW O   H1  H2  EPW O   H1  H2  
EPW O   H1  H2  EPW O   H1  H2  EPW O   H1  H2  EPW O   H1  H2  EPW O   H1  H2  
EPW O   H1  H2  EPW O   H1  H2  EPW O   H1  H2  EPW O   H1  H2  EPW O   H1  H2  
EPW O   H1  H2  EPW O   H1  H2  EPW O   H1  H2  EPW O   H1  H2  EPW O   H1  H2  
EPW O   H1  H2  EPW O   H1  H2  EPW O   H1  H2  EPW O   H1  H2  EPW O   H1  H2  
EPW O   H1  H2  EPW O   H1  H2  EPW O   H1  H2  EPW O   H1  H2  EPW O   H1  H2  
EPW O   H1  H2  EPW O   H1  H2  EPW O   H1  H2  EPW O   H1  H2  EPW O   H1  H2  
EPW O   H1  H2  EPW O   H1  H2  EPW O   H1  H2  EPW O   H1  H2  EPW O   H1  H2  
EPW O   H1  H2  EPW O   H1  H2  EPW O   H1  H2  EPW O   H1  H2  EPW O   H1  H2  
EPW O   H1  H2  EPW O   H1  H2  EPW O   H1  H2  EPW O   H1  H2  EPW O   H1  H2  
EPW O   H1  H2  EPW O   H1  H2  EPW O   H1  H2  EPW O   H1  H2  EPW O   H1  H2  
EPW O   H1  H2  EPW O   H1  H2  EPW O   H1  H2  EPW O   H1  H2  EPW O   H1  H2  
EPW O   H1  H2  EPW O   H1  H2  EPW O   H1  H2  EPW O   H1  H2  EPW O   H1  H2  
EPW O   H1  H2  EPW O   H1  H2  EPW O   H1  H2  EPW O   H1  H2  EPW O   H1  H2  
EPW O   H1  H2  EPW O   H1  H2  EPW O   H1  H2  EPW O   H1  H2  EPW O   H1  H2  
EPW O   H1  H2  EPW O   H1  H2  EPW O   H1  H2  EPW O   H1  H2  EPW O   H1  H2  
EPW O   H1  H2  EPW O   H1  H2  EPW O   H1  H2  EPW O   H1  H2  EPW O   H1  H2  
EPW O   H1  H2  EPW O   H1  H2  EPW O   H1  H2  EPW O   H1  H2  EPW O   H1  H2  
EPW O   H1  H2  EPW O   H1  H2  EPW O   H1  H2  EPW O   H1  H2  EPW O   H1  H2  
EPW O   H1  H2  EPW O   H1  H2  EPW O   H1  H2  EPW O   H1  H2  EPW O   H1  H2  
EPW O   H1  H2  EPW O   H1  H2  EPW O   H1  H2  EPW O   H1  H2  EPW O   H1  H2  
EPW O   H1  H2  EPW O   H1  H2  EPW O   H1  H2  EPW O   H1  H2  EPW O   H1  H2  
EPW O   H1  H2  EPW O   H1  H2  EPW O   H1  H2  EPW O   H1  H2  EPW O   H1  H2  
EPW O   H1  H2  EPW O   H1  H2  EPW O   H1  H2  EPW O   H1  H2  EPW O   H1  H2  
EPW O   H1  H2  EPW O   H1  H2  EPW O   H1  H2  EPW O   H1  H2  EPW O   H1  H2  
EPW O   H1  H2  EPW O   H1  H2  EPW O   H1  H2  EPW O   H1  H2  EPW O   H1  H2  
EPW O   H1  H2  EPW O   H1  H2  EPW O   H1  H2  EPW O   H1  H2  EPW O   H1  H2  
EPW O   H1  H2  EPW O   H1  H2  EPW O   H1  H2  EPW O   H1  H2  EPW O   H1  H2  
EPW O   H1  H2  EPW O   H1  H2  EPW O   H1  H2  EPW O   H1  H2  EPW O   H1  H2  
EPW O   H1  H2  EPW O   H1  H2  EPW O   H1  H2  EPW O   H1  H2  EPW O   H1  H2  
EPW O   H1  H2  EPW O   H1  H2  EPW O   H1  H2  EPW O   H1  H2  EPW O   H1  H2  
EPW O   H1  H2  EPW O   H1  H2  EPW O   H1  H2  EPW O   H1  H2  EPW O   H1  H2  
EPW O   H1  H2  EPW O   H1  H2  EPW O   H1  H2  EPW O   H1  H2  EPW O   H1  H2  
EPW O   H1  H2  EPW O   H1  H2  EPW O   H1  H2  EPW O   H1  H2  EPW O   H1  H2  
EPW O   H1  H2  EPW O   H1  H2  EPW O   H1  H2  EPW O   H1  H2  EPW O   H1  H2  
EPW O   H1  H2  EPW O   H1  H2  EPW O   H1  H2  EPW O   H1  H2  EPW O   H1  H2  
EPW O   H1  H2  EPW O   H1  H2  EPW O   H1  H2  EPW O   H1  H2  EPW O   H1  H2  
EPW O   H1  H2  EPW O   H1  H2  EPW O   H1  H2  EPW O   H1  H2  EPW O   H1  H2  
EPW O   H1  H2  EPW O   H1  H2  EPW O   H1  H2  EPW O   H1  H2  EPW O   H1  H2  
EPW O   H1  H2  EPW O   H1  H2  EPW O   H1  H2  EPW O   H1  H2  EPW O   H1  H2  
EPW O   H1  H2  EPW O   H1  H2  EPW O   H1  H2  EPW O   H1  H2  EPW O   H1  H2  
EPW O   H1  H2  EPW O   H1  H2  EPW O   H1  H2  EPW O   H1  H2  EPW O   H1  H2  
EPW O   H1  H2  EPW O   H1  H2  EPW O   H1  H2  EPW O   H1  H2  EPW O   H1  H2  
EPW O   H1  H2  EPW O   H1  H2  EPW O   H1  H2  EPW O   H1  H2  EPW O   H1  H2  
EPW O   H1  H2  EPW O   H1  H2  EPW O   H1  H2  EPW O   H1  H2  EPW O   H1  H2  
EPW O   H1  H2  EPW O   H1  H2  EPW O   H1  H2  EPW O   H1  H2  EPW O   H1  H2  
EPW O   H1  H2  EPW O   H1  H2  EPW O   H1  H2  EPW O   H1  H2  EPW O   H1  H2  
EPW O   H1  H2  EPW O   H1  H2  EPW O   H1  H2  EPW O   H1  H2  EPW O   H1  H2  
EPW O   H1  H2  EPW O   H1  H2  EPW O   H1  H2  EPW O   H1  H2  EPW O   H1  H2  
EPW O   H1  H2  EPW O   H1  H2  EPW O   H1  H2  EPW O   H1  H2  EPW O   H1  H2  
EPW O   H1  H2  EPW O   H1  H2  EPW O   H1  H2  EPW O   H1  H2  EPW O   H1  H2  
EPW O   H1  H2  EPW O   H1  H2  EPW O   H1  H2  EPW O   H1  H2  EPW O   H1  H2  
EPW O   H1  H2  EPW O   H1  H2  EPW O   H1  H2  EPW O   H1  H2  EPW O   H1  H2  
EPW O   H1  H2  EPW O   H1  H2  EPW O   H1  H2  EPW O   H1  H2  EPW O   H1  H2  
EPW O   H1  H2  EPW O   H1  H2  EPW O   H1  H2  EPW O   H1  H2  EPW O   H1  H2  
EPW O   H1  H2  EPW O   H1  H2  EPW O   H1  H2  EPW O   H1  H2  EPW O   H1  H2  
EPW O   H1  H2  EPW O   H1  H2  EPW O   H1  H2  EPW O   H1  H2  EPW O   H1  H2  
EPW O   H1  H2  EPW O   H1  H2  EPW O   H1  H2  EPW O   H1  H2  EPW O   H1  H2  
EPW O   H1  H2  EPW O   H1  H2  EPW O   H1  H2  EPW O   H1  H2  EPW O   H1  H2  
EPW O   H1  H2  EPW O   H1  H2  EPW O   H1  H2  EPW O   H1  H2  EPW O   H1  H2  
EPW O   H1  H2  EPW O   H1  H2  EPW O   H1  H2  EPW O   H1  H2  EPW O   H1  H2  
EPW O   H1  H2  EPW O   H1  H2  EPW O   H1  H2  EPW O   H1  H2  EPW O   H1  H2  
EPW O   H1  H2  EPW O   H1  H2  EPW O   H1  H2  EPW O   H1  H2  EPW O   H1  H2  
EPW O   H1  H2  EPW O   H1  H2  EPW O   H1  H2  EPW O   H1  H2  EPW O   H1  H2  
EPW O   H1  H2  EPW O   H1  H2  EPW O   H1  H2  EPW O   H1  H2  EPW O   H1  H2  
EPW O   H1  H2  EPW O   H1  H2  EPW O   H1  H2  EPW O   H1  H2  EPW O   H1  H2  
EPW O   H1  H2  EPW O   H1  H2  EPW O   H1  H2  EPW O   H1  H2  EPW O   H1  H2  
EPW O   H1  H2  EPW O   H1  H2  EPW O   H1  H2  EPW O   H1  H2  EPW O   H1  H2  
EPW O   H1  H2  EPW O   H1  H2  EPW O   H1  H2  EPW O   H1  H2  EPW O   H1  H2  
EPW O   H1  H2  EPW O   H1  H2  EPW O   H1  H2  EPW O   H1  H2  EPW O   H1  H2  
EPW O   H1  H2  EPW O   H1  H2  EPW O   H1  H2  EPW O   H1  H2  EPW O   H1  H2  
EPW O   H1  H2  EPW O   H1  H2  EPW O   H1  H2  EPW O   H1  H2  EPW O   H1  H2  
EPW O   H1  H2  EPW O   H1  H2  EPW O   H1  H2  EPW O   H1  H2  EPW O   H1  H2  
EPW O   H1  H2  EPW O   H1  H2  EPW O   H1  H2  EPW O   H1  H2  EPW O   H1  H2  
EPW O   H1  H2  EPW O   H1  H2  EPW O   H1  H2  EPW O   H1  H2  EPW O   H1  H2  
EPW O   H1  H2  EPW O   H1  H2  EPW O   H1  H2  EPW O   H1  H2  EPW O   H1  H2  
EPW O   H1  H2  EPW O   H1  H2  EPW O   H1  H2  EPW O   H1  H2  EPW O   H1  H2  
EPW O   H1  H2  EPW O   H1  H2  EPW O   H1  H2  EPW O   H1  H2  EPW O   H1  H2  
EPW O   H1  H2  EPW O   H1  H2  EPW O   H1  H2  EPW O   H1  H2  EPW O   H1  H2  
EPW O   H1  H2  EPW O   H1  H2  EPW O   H1  H2  EPW O   H1  H2  EPW O   H1  H2  
EPW O   H1  H2  EPW O   H1  H2  EPW O   H1  H2  EPW O   H1  H2  EPW O   H1  H2  
EPW O   H1  H2  EPW O   H1  H2  EPW O   H1  H2  EPW O   H1  H2  EPW O   H1  H2  
EPW O   H1  H2  EPW O   H1  H2  EPW O   H1  H2  EPW O   H1  H2  EPW O   H1  H2  
EPW O   H1  H2  EPW O   H1  H2  EPW O   H1  H2  EPW O   H1  H2  EPW O   H1  H2  
EPW O   H1  H2  EPW O   H1  H2  EPW O   H1  H2  EPW O   H1  H2  EPW O   H1  H2  
EPW O   H1  H2  EPW O   H1  H2  EPW O   H1  H2  EPW O   H1  H2  EPW O   H1  H2  
EPW O   H1  H2  EPW O   H1  H2  EPW O   H1  H2  EPW O   H1  H2  EPW O   H1  H2  
EPW O   H1  H2  EPW O   H1  H2  EPW O   H1  H2  EPW O   H1  H2  EPW O   H1  H2  
EPW O   H1  H2  EPW O   H1  H2  EPW O   H1  H2  EPW O   H1  H2  EPW O   H1  H2  
EPW O   H1  H2  EPW O   H1  H2  EPW O   H1  H2  EPW O   H1  H2  EPW O   H1  H2  
EPW O   H1  H2  EPW O   H1  H2  EPW O   H1  H2  EPW O   H1  H2  EPW O   H1  H2  
EPW O   H1  H2  EPW O   H1  H2  EPW O   H1  H2  EPW O   H1  H2  EPW O   H1  H2  
EPW O   H1  H2  EPW O   H1  H2  EPW O   H1  H2  EPW O   H1  H2  EPW O   H1  H2  
EPW O   H1  H2  EPW O   H1  H2  EPW O   H1  H2  EPW O   H1  H2  EPW O   H1  H2  
EPW O   H1  H2  EPW O   H1  H2  EPW O   H1  H2  EPW O   H1  H2  EPW O   H1  H2  
EPW O   H1  H2  EPW O   H1  H2  EPW O   H1  H2  EPW O   H1  H2  EPW O   H1  H2  
EPW O   H1  H2  EPW O   H1  H2  EPW O   H1  H2  EPW O   H1  H2  EPW O   H1  H2  
EPW O   H1  H2  EPW O   H1  H2  EPW O   H1  H2  EPW O   H1  H2  EPW O   H1  H2  
EPW O   H1  H2  EPW O   H1  H2  EPW O   H1  H2  EPW O   H1  H2  EPW O   H1  H2  
EPW O   H1  H2  EPW O   H1  H2  EPW O   H1  H2  EPW O   H1  H2  EPW O   H1  H2  
EPW O   H1  H2  EPW O   H1  H2  EPW O   H1  H2  EPW O   H1  H2  EPW O   H1  H2  
EPW O   H1  H2  EPW O   H1  H2  EPW O   H1  H2  EPW O   H1  H2  EPW O   H1  H2  
EPW O   H1  H2  EPW O   H1  H2  EPW O   H1  H2  EPW O   H1  H2  EPW O   H1  H2  
EPW O   H1  H2  EPW O   H1  H2  EPW O   H1  H2  EPW O   H1  H2  EPW O   H1  H2  
EPW O   H1  H2  EPW O   H1  H2  EPW O   H1  H2  EPW O   H1  H2  EPW O   H1  H2  
EPW O   H1  H2  EPW O   H1  H2  EPW O   H1  H2  EPW O   H1  H2  EPW O   H1  H2  
EPW O   H1  H2  EPW O   H1  H2  EPW O   H1  H2  EPW O   H1  H2  EPW O   H1  H2  
EPW O   H1  H2  EPW O   H1  H2  EPW O   H1  H2  EPW O   H1  H2  EPW O   H1  H2  
EPW O   H1  H2  EPW O   H1  H2  EPW O   H1  H2  EPW O   H1  H2  EPW O   H1  H2  
EPW O   H1  H2  EPW O   H1  H2  EPW O   H1  H2  EPW O   H1  H2  EPW O   H1  H2  
EPW O   H1  H2  EPW O   H1  H2  EPW O   H1  H2  EPW O   H1  H2  EPW O   H1  H2  
EPW O   H1  H2  EPW O   H1  H2  EPW O   H1  H2  EPW O   H1  H2  EPW O   H1  H2  
EPW O   H1  H2  EPW O   H1  H2  EPW O   H1  H2  EPW O   H1  H2  EPW O   H1  H2  
EPW O   H1  H2  EPW O   H1  H2  EPW O   H1  H2  EPW O   H1  H2  EPW O   H1  H2  
EPW O   H1  H2  EPW O   H1  H2  EPW O   H1  H2  EPW O   H1  H2  EPW O   H1  H2  
EPW O   H1  H2  EPW O   H1  H2  EPW O   H1  H2  EPW O   H1  H2  EPW O   H1  H2  
EPW O   H1  H2  EPW O   H1  H2  EPW O   H1  H2  EPW O   H1  H2  EPW O   H1  H2  
EPW O   H1  H2  EPW O   H1  H2  EPW O   H1  H2  EPW O   H1  H2  EPW O   H1  H2  
EPW O   H1  H2  EPW O   H1  H2  EPW O   H1  H2  EPW O   H1  H2  EPW O   H1  H2  
EPW O   H1  H2  EPW O   H1  H2  EPW O   H1  H2  EPW O   H1  H2  EPW O   H1  H2  
EPW O   H1  H2  EPW O   H1  H2  EPW O   H1  H2  EPW O   H1  H2  EPW O   H1  H2  
EPW O   H1  H2  EPW O   H1  H2  EPW O   H1  H2  EPW O   H1  H2  EPW O   H1  H2  
EPW O   H1  H2  EPW O   H1  H2  EPW O   H1  H2  EPW O   H1  H2  EPW O   H1  H2  
EPW O   H1  H2  EPW O   H1  H2  EPW O   H1  H2  EPW O   H1  H2  EPW O   H1  H2  
EPW O   H1  H2  EPW O   H1  H2  EPW O   H1  H2  EPW O   H1  H2  EPW O   H1  H2  
EPW O   H1  H2  EPW O   H1  H2  EPW O   H1  H2  EPW O   H1  H2  EPW O   H1  H2  
EPW O   H1  H2  EPW O   H1  H2  EPW O   H1  H2  EPW O   H1  H2  EPW O   H1  H2  
EPW O   H1  H2  EPW O   H1  H2  EPW O   H1  H2  EPW O   H1  H2  EPW O   H1  H2  
EPW O   H1  H2  EPW O   H1  H2  EPW O   H1  H2  EPW O   H1  H2  EPW O   H1  H2  
EPW O   H1  H2  EPW O   H1  H2  EPW O   H1  H2  EPW O   H1  H2  EPW O   H1  H2  
EPW O   H1  H2  EPW O   H1  H2  EPW O   H1  H2  EPW O   H1  H2  EPW O   H1  H2  
EPW O   H1  H2  EPW O   H1  H2  EPW O   H1  H2  EPW O   H1  H2  EPW O   H1  H2  
EPW O   H1  H2  EPW O   H1  H2  EPW O   H1  H2  EPW O   H1  H2  EPW O   H1  H2  
EPW O   H1  H2  EPW O   H1  H2  EPW O   H1  H2  EPW O   H1  H2  EPW O   H1  H2  
EPW O   H1  H2  EPW O   H1  H2  EPW O   H1  H2  EPW O   H1  H2  EPW O   H1  H2  
EPW O   H1  H2  EPW O   H1  H2  EPW O   H1  H2  EPW O   H1  H2  EPW O   H1  H2  
EPW O   H1  H2  EPW O   H1  H2  EPW O   H1  H2  EPW O   H1  H2  EPW O   H1  H2  
EPW O   H1  H2  EPW O   H1  H2  EPW O   H1  H2  EPW O   H1  H2  EPW O   H1  H2  
EPW O   H1  H2  EPW O   H1  H2  EPW O   H1  H2  EPW O   H1  H2  EPW O   H1  H2  
EPW O   H1  H2  EPW O   H1  H2  EPW O   H1  H2  EPW O   H1  H2  EPW O   H1  H2  
EPW O   H1  H2  EPW O   H1  H2  EPW O   H1  H2  EPW O   H1  H2  EPW O   H1  H2  
EPW O   H1  H2  EPW O   H1  H2  EPW O   H1  H2  EPW O   H1  H2  EPW O   H1  H2  
EPW O   H1  H2  EPW O   H1  H2  EPW O   H1  H2  EPW O   H1  H2  EPW O   H1  H2  
EPW O   H1  H2  EPW O   H1  H2  EPW O   H1  H2  EPW O   H1  H2  EPW O   H1  H2  
EPW O   H1  H2  EPW O   H1  H2  EPW O   H1  H2  EPW O   H1  H2  EPW O   H1  H2  
EPW O   H1  H2  EPW O   H1  H2  EPW O   H1  H2  EPW O   H1  H2  EPW O   H1  H2  
EPW O   H1  H2  EPW O   H1  H2  EPW O   H1  H2  EPW O   H1  H2  EPW O   H1  H2  
EPW O   H1  H2  EPW O   H1  H2  EPW O   H1  H2  EPW O   H1  H2  EPW O   H1  H2  
EPW O   H1  H2  EPW O   H1  H2  EPW O   H1  H2  EPW O   H1  H2  EPW O   H1  H2  
EPW O   H1  H2  EPW O   H1  H2  EPW O   H1  H2  EPW O   H1  H2  EPW O   H1  H2  
EPW O   H1  H2  EPW O   H1  H2  EPW O   H1  H2  EPW O   H1  H2  EPW O   H1  H2  
EPW O   H1  H2  EPW O   H1  H2  EPW O   H1  H2  EPW O   H1  H2  EPW O   H1  H2  
EPW O   H1  H2  EPW O   H1  H2  EPW O   H1  H2  EPW O   H1  H2  EPW O   H1  H2  
EPW O   H1  H2  EPW O   H1  H2  EPW O   H1  H2  EPW O   H1  H2  EPW O   H1  H2  
EPW O   H1  H2  EPW O   H1  H2  EPW O   H1  H2  EPW O   H1  H2  EPW O   H1  H2  
EPW O   H1  H2  EPW O   H1  H2  EPW O   H1  H2  EPW O   H1  H2  EPW O   H1  H2  
EPW O   H1  H2  EPW O   H1  H2  EPW O   H1  H2  EPW O   H1  H2  EPW O   H1  H2  
EPW O   H1  H2  EPW O   H1  H2  EPW O   H1  H2  EPW O   H1  H2  EPW O   H1  H2  
EPW O   H1  H2  EPW O   H1  H2  EPW O   H1  H2  EPW O   H1  H2  EPW O   H1  H2  
EPW O   H1  H2  EPW O   H1  H2  EPW O   H1  H2  EPW O   H1  H2  EPW O   H1  H2  
EPW O   H1  H2  EPW O   H1  H2  EPW O   H1  H2  EPW O   H1  H2  EPW O   H1  H2  
EPW O   H1  H2  EPW O   H1  H2  EPW O   H1  H2  EPW O   H1  H2  EPW O   H1  H2  
EPW O   H1  H2  EPW O   H1  H2  EPW O   H1  H2  EPW O   H1  H2  EPW O   H1  H2  
EPW O   H1  H2  EPW O   H1  H2  EPW O   H1  H2  EPW O   H1  H2  EPW O   H1  H2  
EPW O   H1  H2  EPW O   H1  H2  EPW O   H1  H2  EPW O   H1  H2  EPW O   H1  H2  
EPW O   H1  H2  EPW O   H1  H2  EPW O   H1  H2  EPW O   H1  H2  EPW O   H1  H2  
EPW O   H1  H2  EPW O   H1  H2  EPW O   H1  H2  EPW O   H1  H2  EPW O   H1  H2  
EPW O   H1  H2  EPW O   H1  H2  EPW O   H1  H2  EPW O   H1  H2  EPW O   H1  H2  
EPW O   H1  H2  EPW O   H1  H2  EPW O   H1  H2  EPW O   H1  H2  EPW O   H1  H2  
EPW O   H1  H2  EPW O   H1  H2  EPW O   H1  H2  EPW O   H1  H2  EPW O   H1  H2  
EPW O   H1  H2  EPW O   H1  H2  EPW O   H1  H2  EPW O   H1  H2  EPW O   H1  H2  
EPW O   H1  H2  EPW O   H1  H2  EPW O   H1  H2  EPW O   H1  H2  EPW O   H1  H2  
EPW O   H1  H2  EPW O   H1  H2  EPW O   H1  H2  EPW O   H1  H2  EPW O   H1  H2  
EPW O   H1  H2  EPW O   H1  H2  EPW O   H1  H2  EPW O   H1  H2  EPW O   H1  H2  
EPW O   H1  H2  EPW O   H1  H2  EPW O   H1  H2  EPW O   H1  H2  EPW O   H1  H2  
EPW O   H1  H2  EPW O   H1  H2  EPW O   H1  H2  EPW O   H1  H2  EPW O   H1  H2  
EPW O   H1  H2  EPW O   H1  H2  EPW O   H1  H2  EPW O   H1  H2  EPW O   H1  H2  
EPW O   H1  H2  EPW O   H1  H2  EPW O   H1  H2  EPW O   H1  H2  EPW O   H1  H2  
EPW O   H1  H2  EPW O   H1  H2  EPW O   H1  H2  EPW O   H1  H2  EPW O   H1  H2  
EPW O   H1  H2  EPW O   H1  H2  EPW O   H1  H2  EPW O   H1  H2  EPW O   H1  H2  
EPW O   H1  H2  EPW O   H1  H2  EPW O   H1  H2  EPW O   H1  H2  EPW O   H1  H2  
EPW O   H1  H2  EPW O   H1  H2  EPW O   H1  H2  EPW O   H1  H2  EPW O   H1  H2  
EPW O   H1  H2  EPW O   H1  H2  EPW O   H1  H2  EPW O   H1  H2  EPW O   H1  H2  
EPW O   H1  H2  EPW O   H1  H2  EPW O   H1  H2  EPW O   H1  H2  EPW O   H1  H2  
EPW O   H1  H2  EPW O   H1  H2  EPW O   H1  H2  EPW O   H1  H2  EPW O   H1  H2  
EPW O   H1  H2  EPW O   H1  H2  EPW O   H1  H2  EPW O   H1  H2  EPW O   H1  H2  
EPW O   H1  H2  EPW O   H1  H2  EPW O   H1  H2  EPW O   H1  H2  EPW O   H1  H2  
EPW O   H1  H2  EPW O   H1  H2  EPW O   H1  H2  EPW O   H1  H2  EPW O   H1  H2  
EPW O   H1  H2  EPW O   H1  H2  EPW O   H1  H2  EPW O   H1  H2  EPW O   H1  H2  
EPW O   H1  H2  EPW O   H1  H2  EPW O   H1  H2  EPW O   H1  H2  EPW O   H1  H2  
EPW O   H1  H2  EPW O   H1  H2  EPW O   H1  H2  EPW O   H1  H2  EPW O   H1  H2  
EPW O   H1  H2  EPW O   H1  H2  EPW O   H1  H2  EPW O   H1  H2  EPW O   H1  H2  
EPW O   H1  H2  EPW O   H1  H2  EPW O   H1  H2  EPW O   H1  H2  EPW O   H1  H2  
EPW O   H1  H2  EPW O   H1  H2  EPW O   H1  H2  EPW O   H1  H2  EPW O   H1  H2  
EPW O   H1  H2  EPW O   H1  H2  EPW O   H1  H2  EPW O   H1  H2  EPW O   H1  H2  
EPW O   H1  H2  EPW O   H1  H2  EPW O   H1  H2  EPW O   H1  H2  EPW O   H1  H2  
EPW O   H1  H2  EPW O   H1  H2  EPW O   H1  H2  EPW O   H1  H2  EPW O   H1  H2  
EPW O   H1  H2  EPW O   H1  H2  EPW O   H1  H2  EPW O   H1  H2  EPW O   H1  H2  
EPW O   H1  H2  EPW O   H1  H2  EPW O   H1  H2  EPW O   H1  H2  EPW O   H1  H2  
EPW O   H1  H2  EPW O   H1  H2  EPW O   H1  H2  EPW O   H1  H2  EPW O   H1  H2  
EPW O   H1  H2  EPW O   H1  H2  EPW O   H1  H2  EPW O   H1  H2  EPW O   H1  H2  
EPW O   H1  H2  EPW O   H1  H2  EPW O   H1  H2  EPW O   H1  H2  EPW O   H1  H2  
EPW O   H1  H2  EPW O   H1  H2  EPW O   H1  H2  EPW O   H1  H2  EPW O   H1  H2  
EPW O   H1  H2  EPW O   H1  H2  EPW O   H1  H2  EPW O   H1  H2  EPW O   H1  H2  
EPW O   H1  H2  EPW O   H1  H2  EPW O   H1  H2  EPW O   H1  H2  EPW O   H1  H2  
EPW O   H1  H2  EPW O   H1  H2  EPW O   H1  H2  EPW O   H1  H2  EPW O   H1  H2  
EPW O   H1  H2  EPW O   H1  H2  EPW O   H1  H2  EPW O   H1  H2  EPW O   H1  H2  
EPW O   H1  H2  EPW O   H1  H2  EPW O   H1  H2  EPW O   H1  H2  EPW O   H1  H2  
EPW O   H1  H2  EPW O   H1  H2  EPW O   H1  H2  EPW O   H1  H2  EPW O   H1  H2  
EPW O   H1  H2  EPW O   H1  H2  EPW O   H1  H2  EPW O   H1  H2  EPW O   H1  H2  
EPW O   H1  H2  EPW O   H1  H2  EPW O   H1  H2  EPW O   H1  H2  EPW O   H1  H2  
EPW O   H1  H2  EPW O   H1  H2  EPW O   H1  H2  EPW O   H1  H2  EPW O   H1  H2  
EPW O   H1  H2  EPW O   H1  H2  EPW O   H1  H2  EPW O   H1  H2  EPW O   H1  H2  
EPW O   H1  H2  EPW O   H1  H2  EPW O   H1  H2  EPW O   H1  H2  EPW O   H1  H2  
EPW O   H1  H2  EPW O   H1  H2  EPW O   H1  H2  EPW O   H1  H2  EPW O   H1  H2  
EPW O   H1  H2  EPW O   H1  H2  EPW O   H1  H2  EPW O   H1  H2  EPW O   H1  H2  
EPW O   H1  H2  EPW O   H1  H2  EPW O   H1  H2  EPW O   H1  H2  EPW O   H1  H2  
EPW O   H1  H2  EPW O   H1  H2  EPW O   H1  H2  EPW O   H1  H2  EPW O   H1  H2  
EPW O   H1  H2  EPW O   H1  H2  EPW O   H1  H2  EPW O   H1  H2  EPW O   H1  H2  
EPW O   H1  H2  EPW O   H1  H2  EPW O   H1  H2  EPW O   H1  H2  EPW O   H1  H2  
EPW O   H1  H2  EPW O   H1  H2  EPW O   H1  H2  EPW O   H1  H2  EPW O   H1  H2  
EPW O   H1  H2  EPW O   H1  H2  EPW O   H1  H2  EPW O   H1  H2  EPW O   H1  H2  
EPW O   H1  H2  EPW O   H1  H2  EPW O   H1  H2  EPW O   H1  H2  EPW O   H1  H2  
EPW O   H1  H2  EPW O   H1  H2  EPW O   H1  H2  EPW O   H1  H2  EPW O   H1  H2  
EPW O   H1  H2  EPW O   H1  H2  EPW O   H1  H2  EPW O   H1  H2  EPW O   H1  H2  
EPW O   H1  H2  EPW O   H1  H2  EPW O   H1  H2  EPW O   H1  H2  EPW O   H1  H2  
EPW O   H1  H2  EPW O   H1  H2  EPW O   H1  H2  EPW O   H1  H2  EPW O   H1  H2  
EPW O   H1  H2  EPW O   H1  H2  EPW O   H1  H2  EPW O   H1  H2  EPW O   H1  H2  
EPW O   H1  H2  EPW O   H1  H2  EPW O   H1  H2  EPW O   H1  H2  EPW O   H1  H2  
EPW O   H1  H2  EPW O   H1  H2  EPW O   H1  H2  EPW O   H1  H2  EPW O   H1  H2  
EPW O   H1  H2  EPW O   H1  H2  EPW O   H1  H2  EPW O   H1  H2  EPW O   H1  H2  
EPW O   H1  H2  EPW O   H1  H2  EPW O   H1  H2  EPW O   H1  H2  EPW O   H1  H2  
EPW O   H1  H2  EPW O   H1  H2  EPW O   H1  H2  EPW O   H1  H2  EPW O   H1  H2  
EPW O   H1  H2  EPW O   H1  H2  EPW O   H1  H2  EPW O   H1  H2  EPW O   H1  H2  
EPW O   H1  H2  EPW O   H1  H2  EPW O   H1  H2  EPW O   H1  H2  EPW O   H1  H2  
EPW O   H1  H2  EPW O   H1  H2  EPW O   H1  H2  EPW O   H1  H2  EPW O   H1  H2  
EPW O   H1  H2  EPW O   H1  H2  EPW O   H1  H2  EPW O   H1  H2  EPW O   H1  H2  
EPW O   H1  H2  EPW O   H1  H2  EPW O   H1  H2  EPW O   H1  H2  EPW O   H1  H2  
EPW O   H1  H2  EPW O   H1  H2  EPW O   H1  H2  EPW O   H1  H2  EPW O   H1  H2  
EPW O   H1  H2  EPW O   H1  H2  EPW O   H1  H2  EPW O   H1  H2  EPW O   H1  H2  
EPW O   H1  H2  EPW O   H1  H2  EPW O   H1  H2  EPW O   H1  H2  EPW O   H1  H2  
EPW O   H1  H2  EPW O   H1  H2  EPW O   H1  H2  EPW O   H1  H2  EPW O   H1  H2  
EPW O   H1  H2  EPW O   H1  H2  EPW O   H1  H2  EPW O   H1  H2  EPW O   H1  H2  
EPW O   H1  H2  EPW O   H1  H2  EPW O   H1  H2  EPW O   H1  H2  EPW O   H1  H2  
EPW O   H1  H2  EPW O   H1  H2  EPW O   H1  H2  EPW O   H1  H2  EPW O   H1  H2  
EPW O   H1  H2  EPW O   H1  H2  EPW O   H1  H2  EPW O   H1  H2  EPW O   H1  H2  
EPW O   H1  H2  EPW O   H1  H2  EPW O   H1  H2  EPW O   H1  H2  EPW O   H1  H2  
EPW O   H1  H2  EPW O   H1  H2  EPW O   H1  H2  EPW O   H1  H2  EPW O   H1  H2  
EPW O   H1  H2  EPW O   H1  H2  EPW O   H1  H2  EPW O   H1  H2  EPW O   H1  H2  
EPW O   H1  H2  EPW O   H1  H2  EPW O   H1  H2  EPW O   H1  H2  EPW O   H1  H2  
EPW O   H1  H2  EPW O   H1  H2  EPW O   H1  H2  EPW O   H1  H2  EPW O   H1  H2  
EPW O   H1  H2  EPW O   H1  H2  EPW O   H1  H2  EPW O   H1  H2  EPW O   H1  H2  
EPW O   H1  H2  EPW O   H1  H2  EPW O   H1  H2  EPW O   H1  H2  EPW O   H1  H2  
EPW O   H1  H2  EPW O   H1  H2  EPW O   H1  H2  EPW O   H1  H2  EPW O   H1  H2  
EPW O   H1  H2  EPW O   H1  H2  EPW O   H1  H2  EPW O   H1  H2  EPW O   H1  H2  
EPW O   H1  H2  EPW O   H1  H2  EPW O   H1  H2  EPW O   H1  H2  EPW O   H1  H2  
EPW O   H1  H2  EPW O   H1  H2  EPW O   H1  H2  EPW O   H1  H2  EPW O   H1  H2  
EPW O   H1  H2  EPW O   H1  H2  EPW O   H1  H2  EPW O   H1  H2  EPW O   H1  H2  
EPW O   H1  H2  EPW O   H1  H2  EPW O   H1  H2  EPW O   H1  H2  EPW O   H1  H2  
EPW O   H1  H2  EPW O   H1  H2  EPW O   H1  H2  EPW O   H1  H2  EPW O   H1  H2  
EPW O   H1  H2  EPW O   H1  H2  EPW O   H1  H2  EPW O   H1  H2  EPW O   H1  H2  
EPW O   H1  H2  EPW O   H1  H2  EPW O   H1  H2  EPW O   H1  H2  EPW O   H1  H2  
EPW O   H1  H2  EPW O   H1  H2  EPW O   H1  H2  EPW O   H1  H2  EPW O   H1  H2  
EPW O   H1  H2  EPW O   H1  H2  EPW O   H1  H2  EPW O   H1  H2  EPW O   H1  H2  
EPW O   H1  H2  EPW O   H1  H2  EPW O   H1  H2  EPW O   H1  H2  EPW O   H1  H2  
EPW O   H1  H2  EPW O   H1  H2  EPW O   H1  H2  EPW O   H1  H2  EPW O   H1  H2  
EPW O   H1  H2  EPW O   H1  H2  EPW O   H1  H2  EPW O   H1  H2  EPW O   H1  H2  
EPW O   H1  H2  EPW O   H1  H2  EPW O   H1  H2  EPW O   H1  H2  EPW O   H1  H2  
EPW O   H1  H2  EPW O   H1  H2  EPW O   H1  H2  EPW O   H1  H2  EPW O   H1  H2  
EPW O   H1  H2  EPW O   H1  H2  EPW O   H1  H2  EPW O   H1  H2  EPW O   H1  H2  
EPW O   H1  H2  EPW O   H1  H2  EPW O   H1  H2  EPW O   H1  H2  EPW O   H1  H2  
EPW O   H1  H2  EPW O   H1  H2  EPW O   H1  H2  EPW O   H1  H2  EPW O   H1  H2  
EPW O   H1  H2  EPW O   H1  H2  EPW O   H1  H2  EPW O   H1  H2  EPW O   H1  H2  
EPW O   H1  H2  EPW O   H1  H2  EPW O   H1  H2  EPW O   H1  H2  EPW O   H1  H2  
EPW O   H1  H2  EPW O   H1  H2  EPW O   H1  H2  EPW O   H1  H2  EPW O   H1  H2  
EPW O   H1  H2  EPW O   H1  H2  EPW O   H1  H2  EPW O   H1  H2  EPW O   H1  H2  
EPW O   H1  H2  EPW O   H1  H2  EPW O   H1  H2  EPW O   H1  H2  EPW O   H1  H2  
EPW O   H1  H2  EPW O   H1  H2  EPW O   H1  H2  EPW O   H1  H2  EPW O   H1  H2  
EPW O   H1  H2  EPW O   H1  H2  EPW O   H1  H2  EPW O   H1  H2  EPW O   H1  H2  
EPW O   H1  H2  EPW O   H1  H2  EPW O   H1  H2  EPW O   H1  H2  EPW O   H1  H2  
EPW O   H1  H2  EPW O   H1  H2  EPW O   H1  H2  EPW O   H1  H2  EPW O   H1  H2  
EPW O   H1  H2  EPW O   H1  H2  EPW O   H1  H2  EPW O   H1  H2  EPW O   H1  H2  
EPW O   H1  H2  EPW O   H1  H2  EPW O   H1  H2  EPW O   H1  H2  EPW O   H1  H2  
EPW O   H1  H2  EPW O   H1  H2  EPW O   H1  H2  EPW O   H1  H2  EPW O   H1  H2  
EPW O   H1  H2  EPW O   H1  H2  EPW O   H1  H2  EPW O   H1  H2  EPW O   H1  H2  
EPW O   H1  H2  EPW O   H1  H2  EPW O   H1  H2  EPW O   H1  H2  EPW O   H1  H2  
EPW O   H1  H2  EPW O   H1  H2  EPW O   H1  H2  EPW O   H1  H2  EPW O   H1  H2  
EPW O   H1  H2  EPW O   H1  H2  EPW O   H1  H2  EPW O   H1  H2  EPW O   H1  H2  
EPW O   H1  H2  EPW O   H1  H2  EPW O   H1  H2  EPW O   H1  H2  EPW O   H1  H2  
EPW O   H1  H2  EPW O   H1  H2  EPW O   H1  H2  EPW O   H1  H2  EPW O   H1  H2  
EPW O   H1  H2  EPW O   H1  H2  EPW O   H1  H2  EPW O   H1  H2  EPW O   H1  H2  
EPW O   H1  H2  EPW O   H1  H2  EPW O   H1  H2  EPW O   H1  H2  EPW O   H1  H2  
EPW O   H1  H2  EPW O   H1  H2  EPW O   H1  H2  EPW O   H1  H2  EPW O   H1  H2  
EPW O   H1  H2  EPW O   H1  H2  EPW O   H1  H2  EPW O   H1  H2  EPW O   H1  H2  
EPW O   H1  H2  EPW O   H1  H2  EPW O   H1  H2  EPW O   H1  H2  EPW O   H1  H2  
EPW O   H1  H2  EPW O   H1  H2  EPW O   H1  H2  EPW O   H1  H2  EPW O   H1  H2  
EPW O   H1  H2  EPW O   H1  H2  EPW O   H1  H2  EPW O   H1  H2  EPW O   H1  H2  
EPW O   H1  H2  EPW O   H1  H2  EPW O   H1  H2  EPW O   H1  H2  EPW O   H1  H2  
EPW O   H1  H2  EPW O   H1  H2  EPW O   H1  H2  EPW O   H1  H2  EPW O   H1  H2  
EPW O   H1  H2  EPW O   H1  H2  EPW O   H1  H2  EPW O   H1  H2  EPW O   H1  H2  
EPW O   H1  H2  EPW O   H1  H2  EPW O   H1  H2  EPW O   H1  H2  EPW O   H1  H2  
EPW O   H1  H2  EPW O   H1  H2  EPW O   H1  H2  EPW O   H1  H2  EPW O   H1  H2  
EPW O   H1  H2  EPW O   H1  H2  EPW O   H1  H2  EPW O   H1  H2  EPW O   H1  H2  
EPW O   H1  H2  EPW O   H1  H2  EPW O   H1  H2  EPW O   H1  H2  EPW O   H1  H2  
EPW O   H1  H2  EPW O   H1  H2  EPW O   H1  H2  EPW O   H1  H2  EPW O   H1  H2  
EPW O   H1  H2  EPW O   H1  H2  EPW O   H1  H2  EPW O   H1  H2  EPW O   H1  H2  
EPW O   H1  H2  EPW O   H1  H2  EPW O   H1  H2  EPW O   H1  H2  EPW O   H1  H2  
EPW O   H1  H2  EPW O   H1  H2  EPW O   H1  H2  EPW O   H1  H2  EPW O   H1  H2  
EPW O   H1  H2  EPW O   H1  H2  EPW O   H1  H2  EPW O   H1  H2  EPW O   H1  H2  
EPW O   H1  H2  EPW O   H1  H2  EPW O   H1  H2  EPW O   H1  H2  EPW O   H1  H2  
EPW O   H1  H2  EPW O   H1  H2  EPW O   H1  H2  EPW O   H1  H2  EPW O   H1  H2  
EPW O   H1  H2  EPW O   H1  H2  EPW O   H1  H2  EPW O   H1  H2  EPW O   H1  H2  
EPW O   H1  H2  EPW O   H1  H2  EPW O   H1  H2  EPW O   H1  H2  EPW O   H1  H2  
EPW O   H1  H2  EPW O   H1  H2  EPW O   H1  H2  EPW O   H1  H2  EPW O   H1  H2  
EPW O   H1  H2  EPW O   H1  H2  EPW O   H1  H2  EPW O   H1  H2  EPW O   H1  H2  
EPW O   H1  H2  EPW O   H1  H2  EPW O   H1  H2  EPW O   H1  H2  EPW O   H1  H2  
EPW O   H1  H2  EPW O   H1  H2  EPW O   H1  H2  EPW O   H1  H2  EPW O   H1  H2  
EPW O   H1  H2  EPW O   H1  H2  EPW O   H1  H2  EPW O   H1  H2  EPW O   H1  H2  
EPW O   H1  H2  EPW O   H1  H2  EPW O   H1  H2  EPW O   H1  H2  EPW O   H1  H2  
EPW O   H1  H2  EPW O   H1  H2  EPW O   H1  H2  EPW O   H1  H2  EPW O   H1  H2  
EPW O   H1  H2  EPW O   H1  H2  EPW O   H1  H2  EPW O   H1  H2  EPW O   H1  H2  
EPW O   H1  H2  EPW O   H1  H2  EPW O   H1  H2  EPW O   H1  H2  EPW O   H1  H2  
EPW O   H1  H2  EPW O   H1  H2  EPW O   H1  H2  EPW O   H1  H2  EPW O   H1  H2  
EPW O   H1  H2  EPW O   H1  H2  EPW O   H1  H2  EPW O   H1  H2  EPW O   H1  H2  
EPW O   H1  H2  EPW O   H1  H2  EPW O   H1  H2  EPW O   H1  H2  EPW O   H1  H2  
EPW O   H1  H2  EPW O   H1  H2  EPW O   H1  H2  EPW O   H1  H2  EPW O   H1  H2  
EPW O   H1  H2  EPW O   H1  H2  EPW O   H1  H2  EPW O   H1  H2  EPW O   H1  H2  
EPW O   H1  H2  EPW O   H1  H2  EPW O   H1  H2  EPW O   H1  H2  EPW O   H1  H2  
EPW O   H1  H2  EPW O   H1  H2  EPW O   H1  H2  EPW O   H1  H2  EPW O   H1  H2  
EPW O   H1  H2  EPW O   H1  H2  EPW O   H1  H2  EPW O   H1  H2  EPW O   H1  H2  
EPW O   H1  H2  EPW O   H1  H2  EPW O   H1  H2  EPW O   H1  H2  EPW O   H1  H2  
EPW O   H1  H2  EPW O   H1  H2  EPW O   H1  H2  EPW O   H1  H2  EPW O   H1  H2  
EPW O   H1  H2  EPW O   H1  H2  EPW O   H1  H2  EPW O   H1  H2  EPW O   H1  H2  
EPW O   H1  H2  EPW O   H1  H2  EPW O   H1  H2  EPW O   H1  H2  EPW O   H1  H2  
EPW O   H1  H2  EPW O   H1  H2  EPW O   H1  H2  EPW O   H1  H2  EPW O   H1  H2  
EPW O   H1  H2  EPW O   H1  H2  EPW O   H1  H2  EPW O   H1  H2  EPW O   H1  H2  
EPW O   H1  H2  EPW O   H1  H2  EPW O   H1  H2  EPW O   H1  H2  EPW O   H1  H2  
EPW O   H1  H2  EPW O   H1  H2  EPW O   H1  H2  EPW O   H1  H2  EPW O   H1  H2  
EPW O   H1  H2  EPW O   H1  H2  EPW O   H1  H2  EPW O   H1  H2  EPW O   H1  H2  
EPW O   H1  H2  EPW O   H1  H2  EPW O   H1  H2  EPW O   H1  H2  EPW O   H1  H2  
EPW O   H1  H2  EPW O   H1  H2  EPW O   H1  H2  EPW O   H1  H2  EPW O   H1  H2  
EPW O   H1  H2  EPW O   H1  H2  EPW O   H1  H2  EPW O   H1  H2  EPW O   H1  H2  
EPW O   H1  H2  EPW O   H1  H2  EPW O   H1  H2  EPW O   H1  H2  EPW O   H1  H2  
EPW O   H1  H2  EPW O   H1  H2  EPW O   H1  H2  EPW O   H1  H2  EPW O   H1  H2  
EPW O   H1  H2  EPW O   H1  H2  EPW O   H1  H2  EPW O   H1  H2  EPW O   H1  H2  
EPW O   H1  H2  EPW O   H1  H2  EPW O   H1  H2  EPW O   H1  H2  EPW O   H1  H2  
EPW O   H1  H2  EPW O   H1  H2  EPW O   H1  H2  EPW O   H1  H2  EPW O   H1  H2  
EPW O   H1  H2  EPW O   H1  H2  EPW O   H1  H2  EPW O   H1  H2  EPW O   H1  H2  
EPW O   H1  H2  EPW O   H1  H2  EPW O   H1  H2  EPW O   H1  H2  EPW O   H1  H2  
EPW O   H1  H2  EPW O   H1  H2  EPW O   H1  H2  EPW O   H1  H2  EPW O   H1  H2  
EPW O   H1  H2  EPW O   H1  H2  EPW O   H1  H2  EPW O   H1  H2  EPW O   H1  H2  
EPW O   H1  H2  EPW O   H1  H2  EPW O   H1  H2  EPW O   H1  H2  EPW O   H1  H2  
EPW O   H1  H2  EPW O   H1  H2  EPW O   H1  H2  EPW O   H1  H2  EPW O   H1  H2  
EPW O   H1  H2  EPW O   H1  H2  EPW O   H1  H2  EPW O   H1  H2  EPW O   H1  H2  
EPW O   H1  H2  EPW O   H1  H2  EPW O   H1  H2  EPW O   H1  H2  EPW O   H1  H2  
EPW O   H1  H2  EPW O   H1  H2  EPW O   H1  H2  EPW O   H1  H2  EPW O   H1  H2  
EPW O   H1  H2  EPW O   H1  H2  EPW O   H1  H2  EPW O   H1  H2  EPW O   H1  H2  
EPW O   H1  H2  EPW O   H1  H2  EPW O   H1  H2  EPW O   H1  H2  EPW O   H1  H2  
EPW O   H1  H2  EPW O   H1  H2  EPW O   H1  H2  EPW O   H1  H2  EPW O   H1  H2  
EPW O   H1  H2  EPW O   H1  H2  EPW O   H1  H2  EPW O   H1  H2  EPW O   H1  H2  
EPW O   H1  H2  EPW O   H1  H2  EPW O   H1  H2  EPW O   H1  H2  EPW O   H1  H2  
EPW O   H1  H2  EPW O   H1  H2  EPW O   H1  H2  EPW O   H1  H2  EPW O   H1  H2  
EPW O   H1  H2  EPW O   H1  H2  EPW O   H1  H2  EPW O   H1  H2  EPW O   H1  H2  
EPW O   H1  H2  EPW O   H1  H2  EPW O   H1  H2  EPW O   H1  H2  EPW O   H1  H2  
EPW O   H1  H2  EPW O   H1  H2  EPW O   H1  H2  EPW O   H1  H2  EPW O   H1  H2  
EPW O   H1  H2  EPW O   H1  H2  EPW O   H1  H2  EPW O   H1  H2  EPW O   H1  H2  
EPW O   H1  H2  EPW O   H1  H2  EPW O   H1  H2  EPW O   H1  H2  EPW O   H1  H2  
EPW O   H1  H2  EPW O   H1  H2  EPW O   H1  H2  EPW O   H1  H2  EPW O   H1  H2  
EPW O   H1  H2  EPW O   H1  H2  EPW O   H1  H2  EPW O   H1  H2  EPW O   H1  H2  
EPW O   H1  H2  EPW O   H1  H2  EPW O   H1  H2  EPW O   H1  H2  EPW O   H1  H2  
EPW O   H1  H2  EPW O   H1  H2  EPW O   H1  H2  EPW O   H1  H2  EPW O   H1  H2  
EPW O   H1  H2  EPW O   H1  H2  EPW O   H1  H2  EPW O   H1  H2  EPW O   H1  H2  
EPW O   H1  H2  EPW O   H1  H2  EPW O   H1  H2  EPW O   H1  H2  EPW O   H1  H2  
EPW O   H1  H2  EPW O   H1  H2  EPW O   H1  H2  EPW O   H1  H2  EPW O   H1  H2  
EPW O   H1  H2  EPW O   H1  H2  EPW O   H1  H2  EPW O   H1  H2  EPW O   H1  H2  
EPW O   H1  H2  EPW O   H1  H2  EPW O   H1  H2  EPW O   H1  H2  EPW O   H1  H2  
EPW O   H1  H2  EPW O   H1  H2  EPW O   H1  H2  EPW O   H1  H2  EPW O   H1  H2  
EPW O   H1  H2  EPW O   H1  H2  EPW O   H1  H2  EPW O   H1  H2  EPW O   H1  H2  
EPW O   H1  H2  EPW O   H1  H2  EPW O   H1  H2  EPW O   H1  H2  EPW O   H1  H2  
EPW O   H1  H2  EPW O   H1  H2  EPW O   H1  H2  EPW O   H1  H2  EPW O   H1  H2  
EPW O   H1  H2  EPW O   H1  H2  EPW O   H1  H2  EPW O   H1  H2  EPW O   H1  H2  
EPW O   H1  H2  EPW O   H1  H2  EPW O   H1  H2  EPW O   H1  H2  EPW O   H1  H2  
EPW O   H1  H2  EPW O   H1  H2  EPW O   H1  H2  EPW O   H1  H2  EPW O   H1  H2  
EPW O   H1  H2  EPW O   H1  H2  EPW O   H1  H2  EPW O   H1  H2  EPW O   H1  H2  
EPW O   H1  H2  EPW O   H1  H2  EPW O   H1  H2  EPW O   H1  H2  EPW O   H1  H2  
EPW O   H1  H2  EPW O   H1  H2  EPW O   H1  H2  EPW O   H1  H2  EPW O   H1  H2  
EPW O   H1  H2  EPW O   H1  H2  EPW O   H1  H2  EPW O   H1  H2  EPW O   H1  H2  
EPW O   H1  H2  EPW O   H1  H2  EPW O   H1  H2  EPW O   H1  H2  EPW O   H1  H2  
EPW O   H1  H2  EPW O   H1  H2  EPW O   H1  H2  EPW O   H1  H2  EPW O   H1  H2  
EPW O   H1  H2  EPW O   H1  H2  EPW O   H1  H2  EPW O   H1  H2  EPW O   H1  H2  
EPW O   H1  H2  EPW O   H1  H2  EPW O   H1  H2  EPW O   H1  H2  EPW O   H1  H2  
EPW O   H1  H2  EPW O   H1  H2  EPW O   H1  H2  EPW O   H1  H2  EPW O   H1  H2  
EPW O   H1  H2  EPW O   H1  H2  EPW O   H1  H2  EPW O   H1  H2  EPW O   H1  H2  
EPW O   H1  H2  EPW O   H1  H2  EPW O   H1  H2  EPW O   H1  H2  EPW O   H1  H2  
EPW O   H1  H2  EPW O   H1  H2  EPW O   H1  H2  EPW O   H1  H2  EPW O   H1  H2  
EPW O   H1  H2  EPW O   H1  H2  EPW O   H1  H2  EPW O   H1  H2  EPW O   H1  H2  
EPW O   H1  H2  EPW O   H1  H2  EPW O   H1  H2  EPW O   H1  H2  EPW O   H1  H2  
EPW O   H1  H2  EPW O   H1  H2  EPW O   H1  H2  EPW O   H1  H2  EPW O   H1  H2  
EPW O   H1  H2  EPW O   H1  H2  EPW O   H1  H2  EPW O   H1  H2  EPW O   H1  H2  
EPW O   H1  H2  EPW O   H1  H2  EPW O   H1  H2  EPW O   H1  H2  EPW O   H1  H2  
EPW O   H1  H2  EPW O   H1  H2  EPW O   H1  H2  EPW O   H1  H2  EPW O   H1  H2  
EPW O   H1  H2  EPW O   H1  H2  EPW O   H1  H2  EPW O   H1  H2  EPW O   H1  H2  
EPW O   H1  H2  EPW O   H1  H2  EPW O   H1  H2  EPW O   H1  H2  EPW O   H1  H2  
EPW O   H1  H2  EPW O   H1  H2  EPW O   H1  H2  EPW O   H1  H2  EPW O   H1  H2  
EPW O   H1  H2  EPW O   H1  H2  EPW O   H1  H2  EPW O   H1  H2  EPW O   H1  H2  
EPW O   H1  H2  EPW O   H1  H2  EPW O   H1  H2  EPW O   H1  H2  EPW O   H1  H2  
EPW O   H1  H2  EPW O   H1  H2  EPW O   H1  H2  EPW O   H1  H2  EPW O   H1  H2  
EPW O   H1  H2  EPW O   H1  H2  EPW O   H1  H2  EPW O   H1  H2  EPW O   H1  H2  
EPW O   H1  H2  EPW O   H1  H2  EPW O   H1  H2  EPW O   H1  H2  EPW O   H1  H2  
EPW O   H1  H2  EPW O   H1  H2  EPW O   H1  H2  EPW O   H1  H2  EPW O   H1  H2  
EPW O   H1  H2  EPW O   H1  H2  EPW O   H1  H2  EPW O   H1  H2  EPW O   H1  H2  
EPW O   H1  H2  EPW O   H1  H2  EPW O   H1  H2  EPW O   H1  H2  EPW O   H1  H2  
EPW O   H1  H2  EPW O   H1  H2  EPW O   H1  H2  EPW O   H1  H2  EPW O   H1  H2  
EPW O   H1  H2  EPW O   H1  H2  EPW O   H1  H2  EPW O   H1  H2  EPW O   H1  H2  
EPW O   H1  H2  EPW O   H1  H2  EPW O   H1  H2  EPW O   H1  H2  EPW O   H1  H2  
EPW O   H1  H2  EPW O   H1  H2  EPW O   H1  H2  EPW O   H1  H2  EPW O   H1  H2  
EPW O   H1  H2  EPW O   H1  H2  EPW O   H1  H2  EPW O   H1  H2  EPW O   H1  H2  
EPW O   H1  H2  EPW O   H1  H2  EPW O   H1  H2  EPW O   H1  H2  EPW O   H1  H2  
EPW O   H1  H2  EPW O   H1  H2  EPW O   H1  H2  EPW O   H1  H2  EPW O   H1  H2  
EPW O   H1  H2  EPW O   H1  H2  EPW O   H1  H2  EPW O   H1  H2  EPW O   H1  H2  
EPW O   H1  H2  EPW O   H1  H2  EPW O   H1  H2  EPW O   H1  H2  EPW O   H1  H2  
EPW O   H1  H2  EPW O   H1  H2  EPW O   H1  H2  EPW O   H1  H2  EPW O   H1  H2  
EPW O   H1  H2  EPW O   H1  H2  EPW O   H1  H2  EPW O   H1  H2  EPW O   H1  H2  
EPW O   H1  H2  EPW O   H1  H2  EPW O   H1  H2  EPW O   H1  H2  EPW O   H1  H2  
EPW O   H1  H2  EPW O   H1  H2  EPW O   H1  H2  EPW O   H1  H2  EPW O   H1  H2  
EPW O   H1  H2  EPW O   H1  H2  EPW O   H1  H2  EPW O   H1  H2  EPW O   H1  H2  
EPW O   H1  H2  EPW O   H1  H2  EPW O   H1  H2  EPW O   H1  H2  EPW O   H1  H2  
EPW O   H1  H2  EPW O   H1  H2  EPW O   H1  H2  EPW O   H1  H2  EPW O   H1  H2  
EPW O   H1  H2  EPW O   H1  H2  EPW O   H1  H2  EPW O   H1  H2  EPW O   H1  H2  
EPW O   H1  H2  EPW O   H1  H2  EPW O   H1  H2  EPW O   H1  H2  EPW O   H1  H2  
EPW O   H1  H2  EPW O   H1  H2  EPW O   H1  H2  EPW O   H1  H2  EPW O   H1  H2  
EPW O   H1  H2  EPW O   H1  H2  EPW O   H1  H2  EPW O   H1  H2  EPW O   H1  H2  
EPW O   H1  H2  EPW O   H1  H2  EPW O   H1  H2  EPW O   H1  H2  EPW O   H1  H2  
EPW O   H1  H2  EPW O   H1  H2  EPW O   H1  H2  EPW O   H1  H2  EPW O   H1  H2  
EPW O   H1  H2  EPW O   H1  H2  EPW O   H1  H2  EPW O   H1  H2  EPW O   H1  H2  
EPW O   H1  H2  EPW O   H1  H2  EPW O   H1  H2  EPW O   H1  H2  EPW O   H1  H2  
EPW O   H1  H2  EPW O   H1  H2  EPW O   H1  H2  EPW O   H1  H2  EPW O   H1  H2  
EPW O   H1  H2  EPW O   H1  H2  EPW O   H1  H2  EPW O   H1  H2  EPW O   H1  H2  
EPW O   H1  H2  EPW O   H1  H2  EPW O   H1  H2  EPW O   H1  H2  EPW O   H1  H2  
EPW O   H1  H2  EPW O   H1  H2  EPW O   H1  H2  EPW O   H1  H2  EPW O   H1  H2  
EPW O   H1  H2  EPW O   H1  H2  EPW O   H1  H2  EPW O   H1  H2  EPW O   H1  H2  
EPW O   H1  H2  EPW O   H1  H2  EPW O   H1  H2  EPW O   H1  H2  EPW O   H1  H2  
EPW O   H1  H2  EPW O   H1  H2  EPW O   H1  H2  EPW O   H1  H2  EPW O   H1  H2  
EPW O   H1  H2  EPW O   H1  H2  EPW O   H1  H2  EPW O   H1  H2  EPW O   H1  H2  
EPW O   H1  H2  EPW O   H1  H2  EPW O   H1  H2  EPW O   H1  H2  EPW O   H1  H2  
EPW O   H1  H2  EPW O   H1  H2  EPW O   H1  H2  EPW O   H1  H2  EPW O   H1  H2  
EPW O   H1  H2  EPW O   H1  H2  EPW O   H1  H2  EPW O   H1  H2  EPW O   H1  H2  
EPW O   H1  H2  EPW O   H1  H2  EPW O   H1  H2  EPW O   H1  H2  EPW O   H1  H2  
EPW O   H1  H2  EPW O   H1  H2  EPW O   H1  H2  EPW O   H1  H2  EPW O   H1  H2  
EPW O   H1  H2  EPW O   H1  H2  EPW O   H1  H2  EPW O   H1  H2  EPW O   H1  H2  
EPW O   H1  H2  EPW O   H1  H2  EPW O   H1  H2  EPW O   H1  H2  EPW O   H1  H2  
EPW O   H1  H2  EPW O   H1  H2  EPW O   H1  H2  EPW O   H1  H2  EPW O   H1  H2  
EPW O   H1  H2  EPW O   H1  H2  EPW O   H1  H2  EPW O   H1  H2  EPW O   H1  H2  
EPW O   H1  H2  EPW O   H1  H2  EPW O   H1  H2  EPW O   H1  H2  EPW O   H1  H2  
EPW O   H1  H2  EPW O   H1  H2  EPW O   H1  H2  EPW O   H1  H2  EPW O   H1  H2  
EPW O   H1  H2  EPW O   H1  H2  EPW O   H1  H2  EPW O   H1  H2  EPW O   H1  H2  
EPW O   H1  H2  EPW O   H1  H2  EPW O   H1  H2  EPW O   H1  H2  EPW O   H1  H2  
EPW O   H1  H2  EPW O   H1  H2  EPW O   H1  H2  EPW O   H1  H2  EPW O   H1  H2  
EPW O   H1  H2  EPW O   H1  H2  EPW O   H1  H2  EPW O   H1  H2  EPW O   H1  H2  
EPW O   H1  H2  EPW O   H1  H2  EPW O   H1  H2  EPW O   H1  H2  EPW O   H1  H2  
EPW O   H1  H2  EPW O   H1  H2  EPW O   H1  H2  EPW O   H1  H2  EPW O   H1  H2  
EPW O   H1  H2  EPW O   H1  H2  EPW O   H1  H2  EPW O   H1  H2  EPW O   H1  H2  
EPW O   H1  H2  EPW O   H1  H2  EPW O   H1  H2  EPW O   H1  H2  EPW O   H1  H2  
EPW O   H1  H2  EPW O   H1  H2  EPW O   H1  H2  EPW O   H1  H2  EPW O   H1  H2  
EPW O   H1  H2  EPW O   H1  H2  EPW O   H1  H2  EPW O   H1  H2  EPW O   H1  H2  
EPW O   H1  H2  EPW O   H1  H2  EPW O   H1  H2  EPW O   H1  H2  EPW O   H1  H2  
EPW O   H1  H2  EPW O   H1  H2  EPW O   H1  H2  EPW O   H1  H2  EPW O   H1  H2  
EPW O   H1  H2  EPW O   H1  H2  EPW O   H1  H2  EPW O   H1  H2  EPW O   H1  H2  
EPW O   H1  H2  EPW O   H1  H2  EPW O   H1  H2  EPW O   H1  H2  EPW O   H1  H2  
EPW O   H1  H2  EPW O   H1  H2  EPW O   H1  H2  EPW O   H1  H2  EPW O   H1  H2  
EPW O   H1  H2  EPW O   H1  H2  EPW O   H1  H2  EPW O   H1  H2  EPW O   H1  H2  
EPW O   H1  H2  EPW O   H1  H2  EPW O   H1  H2  EPW O   H1  H2  EPW O   H1  H2  
EPW O   H1  H2  EPW O   H1  H2  EPW O   H1  H2  EPW O   H1  H2  EPW O   H1  H2  
EPW O   H1  H2  EPW O   H1  H2  EPW O   H1  H2  EPW O   H1  H2  EPW O   H1  H2  
EPW O   H1  H2  EPW O   H1  H2  EPW O   H1  H2  EPW O   H1  H2  EPW O   H1  H2  
EPW O   H1  H2  EPW O   H1  H2  EPW O   H1  H2  EPW O   H1  H2  EPW O   H1  H2  
EPW O   H1  H2  EPW O   H1  H2  EPW O   H1  H2  EPW O   H1  H2  EPW O   H1  H2  
EPW O   H1  H2  EPW O   H1  H2  EPW O   H1  H2  EPW O   H1  H2  EPW O   H1  H2  
EPW O   H1  H2  EPW O   H1  H2  EPW O   H1  H2  EPW O   H1  H2  EPW O   H1  H2  
EPW O   H1  H2  EPW O   H1  H2  EPW O   H1  H2  EPW O   H1  H2  EPW O   H1  H2  
EPW O   H1  H2  EPW O   H1  H2  EPW O   H1  H2  EPW O   H1  H2  EPW O   H1  H2  
EPW O   H1  H2  EPW O   H1  H2  EPW O   H1  H2  EPW O   H1  H2  EPW O   H1  H2  
EPW O   H1  H2  EPW O   H1  H2  EPW O   H1  H2  EPW O   H1  H2  EPW O   H1  H2  
EPW O   H1  H2  EPW O   H1  H2  EPW O   H1  H2  EPW O   H1  H2  EPW O   H1  H2  
EPW O   H1  H2  EPW O   H1  H2  EPW O   H1  H2  EPW O   H1  H2  EPW O   H1  H2  
EPW O   H1  H2  EPW O   H1  H2  EPW O   H1  H2  EPW O   H1  H2  EPW O   H1  H2  
EPW O   H1  H2  EPW O   H1  H2  EPW O   H1  H2  EPW O   H1  H2  EPW O   H1  H2  
EPW O   H1  H2  EPW O   H1  H2  EPW O   H1  H2  EPW O   H1  H2  EPW O   H1  H2  
EPW O   H1  H2  EPW O   H1  H2  EPW O   H1  H2  EPW O   H1  H2  EPW O   H1  H2  
EPW O   H1  H2  EPW O   H1  H2  EPW O   H1  H2  EPW O   H1  H2  EPW O   H1  H2  
EPW O   H1  H2  EPW O   H1  H2  EPW O   H1  H2  EPW O   H1  H2  EPW O   H1  H2  
EPW O   H1  H2  EPW O   H1  H2  EPW O   H1  H2  EPW O   H1  H2  EPW O   H1  H2  
EPW O   H1  H2  EPW O   H1  H2  EPW O   H1  H2  EPW O   H1  H2  EPW O   H1  H2  
EPW O   H1  H2  EPW O   H1  H2  EPW O   H1  H2  EPW O   H1  H2  EPW O   H1  H2  
EPW O   H1  H2  EPW O   H1  H2  EPW O   H1  H2  EPW O   H1  H2  EPW O   H1  H2  
EPW O   H1  H2  EPW O   H1  H2  EPW O   H1  H2  EPW O   H1  H2  EPW O   H1  H2  
EPW O   H1  H2  EPW O   H1  H2  EPW O   H1  H2  EPW O   H1  H2  EPW O   H1  H2  
EPW O   H1  H2  EPW O   H1  H2  EPW O   H1  H2  EPW O   H1  H2  EPW O   H1  H2  
EPW O   H1  H2  EPW O   H1  H2  EPW O   H1  H2  EPW O   H1  H2  EPW O   H1  H2  
EPW O   H1  H2  EPW O   H1  H2  EPW O   H1  H2  EPW O   H1  H2  EPW O   H1  H2  
EPW O   H1  H2  EPW O   H1  H2  EPW O   H1  H2  EPW O   H1  H2  EPW O   H1  H2  
EPW O   H1  H2  EPW O   H1  H2  EPW O   H1  H2  EPW O   H1  H2  EPW O   H1  H2  
EPW O   H1  H2  EPW O   H1  H2  EPW O   H1  H2  EPW O   H1  H2  EPW O   H1  H2  
EPW O   H1  H2  EPW O   H1  H2  EPW O   H1  H2  EPW O   H1  H2  EPW O   H1  H2  
EPW O   H1  H2  EPW O   H1  H2  EPW O   H1  H2  EPW O   H1  H2  EPW O   H1  H2  
EPW O   H1  H2  EPW O   H1  H2  EPW O   H1  H2  EPW O   H1  H2  EPW O   H1  H2  
EPW O   H1  H2  EPW O   H1  H2  EPW O   H1  H2  EPW O   H1  H2  EPW O   H1  H2  
EPW O   H1  H2  EPW O   H1  H2  EPW O   H1  H2  EPW O   H1  H2  EPW O   H1  H2  
EPW O   H1  H2  EPW O   H1  H2  EPW O   H1  H2  EPW O   H1  H2  EPW O   H1  H2  
EPW O   H1  H2  EPW O   H1  H2  EPW O   H1  H2  EPW O   H1  H2  EPW O   H1  H2  
EPW O   H1  H2  EPW O   H1  H2  EPW O   H1  H2  EPW O   H1  H2  EPW O   H1  H2  
EPW O   H1  H2  EPW O   H1  H2  EPW O   H1  H2  EPW O   H1  H2  EPW O   H1  H2  
EPW O   H1  H2  EPW O   H1  H2  EPW O   H1  H2  EPW O   H1  H2  EPW O   H1  H2  
EPW O   H1  H2  EPW O   H1  H2  EPW O   H1  H2  EPW O   H1  H2  EPW O   H1  H2  
EPW O   H1  H2  EPW O   H1  H2  EPW O   H1  H2  EPW O   H1  H2  EPW O   H1  H2  
EPW O   H1  H2  EPW O   H1  H2  EPW O   H1  H2  EPW O   H1  H2  EPW O   H1  H2  
EPW O   H1  H2  EPW O   H1  H2  EPW O   H1  H2  EPW O   H1  H2  EPW O   H1  H2  
EPW O   H1  H2  EPW O   H1  H2  EPW O   H1  H2  EPW O   H1  H2  EPW O   H1  H2  
EPW O   H1  H2  EPW O   H1  H2  EPW O   H1  H2  EPW O   H1  H2  EPW O   H1  H2  
EPW O   H1  H2  EPW O   H1  H2  EPW O   H1  H2  EPW O   H1  H2  EPW O   H1  H2  
EPW O   H1  H2  EPW O   H1  H2  EPW O   H1  H2  EPW O   H1  H2  EPW O   H1  H2  
EPW O   H1  H2  EPW O   H1  H2  EPW O   H1  H2  EPW O   H1  H2  EPW O   H1  H2  
EPW O   H1  H2  EPW O   H1  H2  EPW O   H1  H2  EPW O   H1  H2  EPW O   H1  H2  
EPW O   H1  H2  EPW O   H1  H2  EPW O   H1  H2  EPW O   H1  H2  EPW O   H1  H2  
EPW O   H1  H2  EPW O   H1  H2  EPW O   H1  H2  EPW O   H1  H2  EPW O   H1  H2  
EPW O   H1  H2  EPW O   H1  H2  EPW O   H1  H2  EPW O   H1  H2  EPW O   H1  H2  
EPW O   H1  H2  EPW O   H1  H2  EPW O   H1  H2  EPW O   H1  H2  EPW O   H1  H2  
EPW O   H1  H2  EPW O   H1  H2  EPW O   H1  H2  EPW O   H1  H2  EPW O   H1  H2  
EPW O   H1  H2  EPW O   H1  H2  EPW O   H1  H2  EPW O   H1  H2  EPW O   H1  H2  
EPW O   H1  H2  EPW O   H1  H2  EPW O   H1  H2  EPW O   H1  H2  EPW O   H1  H2  
EPW O   H1  H2  EPW O   H1  H2  EPW O   H1  H2  EPW O   H1  H2  EPW O   H1  H2  
EPW O   H1  H2  EPW O   H1  H2  EPW O   H1  H2  EPW O   H1  H2  EPW O   H1  H2  
EPW O   H1  H2  EPW O   H1  H2  EPW O   H1  H2  EPW O   H1  H2  EPW O   H1  H2  
EPW O   H1  H2  EPW O   H1  H2  EPW O   H1  H2  EPW O   H1  H2  EPW O   H1  H2  
EPW O   H1  H2  EPW O   H1  H2  EPW O   H1  H2  EPW O   H1  H2  EPW O   H1  H2  
EPW O   H1  H2  EPW O   H1  H2  EPW O   H1  H2  EPW O   H1  H2  EPW O   H1  H2  
EPW O   H1  H2  EPW O   H1  H2  EPW O   H1  H2  EPW O   H1  H2  EPW O   H1  H2  
EPW O   H1  H2  EPW O   H1  H2  EPW O   H1  H2  EPW O   H1  H2  EPW O   H1  H2  
EPW O   H1  H2  EPW O   H1  H2  EPW O   H1  H2  EPW O   H1  H2  EPW O   H1  H2  
EPW O   H1  H2  EPW O   H1  H2  EPW O   H1  H2  EPW O   H1  H2  EPW O   H1  H2  
EPW O   H1  H2  EPW O   H1  H2  EPW O   H1  H2  EPW O   H1  H2  EPW O   H1  H2  
EPW O   H1  H2  EPW O   H1  H2  EPW O   H1  H2  EPW O   H1  H2  EPW O   H1  H2  
EPW O   H1  H2  EPW O   H1  H2  EPW O   H1  H2  EPW O   H1  H2  EPW O   H1  H2  
EPW O   H1  H2  EPW O   H1  H2  EPW O   H1  H2  EPW O   H1  H2  EPW O   H1  H2  
EPW O   H1  H2  EPW O   H1  H2  EPW O   H1  H2  EPW O   H1  H2  EPW O   H1  H2  
EPW O   H1  H2  EPW O   H1  H2  EPW O   H1  H2  EPW O   H1  H2  EPW O   H1  H2  
EPW O   H1  H2  EPW O   H1  H2  EPW O   H1  H2  EPW O   H1  H2  EPW O   H1  H2  
EPW O   H1  H2  EPW O   H1  H2  EPW O   H1  H2  EPW O   H1  H2  EPW O   H1  H2  
EPW O   H1  H2  EPW O   H1  H2  EPW O   H1  H2  EPW O   H1  H2  EPW O   H1  H2  
EPW O   H1  H2  EPW O   H1  H2  EPW O   H1  H2  EPW O   H1  H2  EPW O   H1  H2  
EPW O   H1  H2  EPW O   H1  H2  EPW O   H1  H2  EPW O   H1  H2  EPW O   H1  H2  
EPW O   H1  H2  EPW O   H1  H2  EPW O   H1  H2  EPW O   H1  H2  EPW O   H1  H2  
EPW O   H1  H2  EPW O   H1  H2  EPW O   H1  H2  EPW O   H1  H2  EPW O   H1  H2  
EPW O   H1  H2  EPW O   H1  H2  EPW O   H1  H2  EPW O   H1  H2  EPW O   H1  H2  
EPW O   H1  H2  EPW O   H1  H2  EPW O   H1  H2  EPW O   H1  H2  EPW O   H1  H2  
EPW O   H1  H2  EPW O   H1  H2  EPW O   H1  H2  EPW O   H1  H2  EPW O   H1  H2  
EPW O   H1  H2  EPW O   H1  H2  EPW O   H1  H2  EPW O   H1  H2  EPW O   H1  H2  
EPW O   H1  H2  EPW O   H1  H2  EPW O   H1  H2  EPW O   H1  H2  EPW O   H1  H2  
EPW O   H1  H2  EPW O   H1  H2  EPW O   H1  H2  EPW O   H1  H2  EPW O   H1  H2  
EPW O   H1  H2  EPW O   H1  H2  EPW O   H1  H2  EPW O   H1  H2  EPW O   H1  H2  
EPW O   H1  H2  EPW O   H1  H2  EPW O   H1  H2  EPW O   H1  H2  EPW O   H1  H2  
EPW O   H1  H2  EPW O   H1  H2  EPW O   H1  H2  EPW O   H1  H2  EPW O   H1  H2  
EPW O   H1  H2  EPW O   H1  H2  EPW O   H1  H2  EPW O   H1  H2  EPW O   H1  H2  
EPW O   H1  H2  EPW O   H1  H2  EPW O   H1  H2  EPW O   H1  H2  EPW O   H1  H2  
EPW O   H1  H2  EPW O   H1  H2  EPW O   H1  H2  EPW O   H1  H2  EPW O   H1  H2  
EPW O   H1  H2  EPW O   H1  H2  EPW O   H1  H2  EPW O   H1  H2  EPW O   H1  H2  
EPW O   H1  H2  EPW O   H1  H2  EPW O   H1  H2  EPW O   H1  H2  EPW O   H1  H2  
EPW O   H1  H2  EPW O   H1  H2  EPW O   H1  H2  EPW O   H1  H2  EPW O   H1  H2  
EPW O   H1  H2  EPW O   H1  H2  EPW O   H1  H2  EPW O   H1  H2  EPW O   H1  H2  
EPW O   H1  H2  EPW O   H1  H2  EPW O   H1  H2  EPW O   H1  H2  EPW O   H1  H2  
EPW O   H1  H2  EPW O   H1  H2  EPW O   H1  H2  EPW O   H1  H2  EPW O   H1  H2  
EPW O   H1  H2  EPW O   H1  H2  EPW O   H1  H2  EPW O   H1  H2  EPW O   H1  H2  
EPW O   H1  H2  EPW O   H1  H2  EPW O   H1  H2  EPW O   H1  H2  EPW O   H1  H2  
EPW O   H1  H2  EPW O   H1  H2  EPW O   H1  H2  EPW O   H1  H2  EPW O   H1  H2  
EPW O   H1  H2  EPW O   H1  H2  EPW O   H1  H2  EPW O   H1  H2  EPW O   H1  H2  
EPW O   H1  H2  EPW O   H1  H2  EPW O   H1  H2  EPW O   H1  H2  EPW O   H1  H2  
EPW O   H1  H2  EPW O   H1  H2  EPW O   H1  H2  EPW O   H1  H2  EPW O   H1  H2  
EPW O   H1  H2  EPW O   H1  H2  EPW O   H1  H2  EPW O   H1  H2  EPW O   H1  H2  
EPW O   H1  H2  EPW O   H1  H2  EPW O   H1  H2  EPW O   H1  H2  EPW O   H1  H2  
EPW O   H1  H2  EPW O   H1  H2  EPW O   H1  H2  EPW O   H1  H2  EPW O   H1  H2  
EPW O   H1  H2  EPW O   H1  H2  EPW O   H1  H2  EPW O   H1  H2  EPW O   H1  H2  
EPW O   H1  H2  EPW O   H1  H2  EPW O   H1  H2  EPW O   H1  H2  EPW O   H1  H2  
EPW O   H1  H2  EPW O   H1  H2  EPW O   H1  H2  EPW O   H1  H2  EPW O   H1  H2  
EPW O   H1  H2  EPW O   H1  H2  EPW O   H1  H2  EPW O   H1  H2  EPW O   H1  H2  
EPW O   H1  H2  EPW O   H1  H2  EPW O   H1  H2  EPW O   H1  H2  EPW O   H1  H2  
EPW O   H1  H2  EPW O   H1  H2  EPW O   H1  H2  EPW O   H1  H2  EPW O   H1  H2  
EPW O   H1  H2  EPW O   H1  H2  EPW O   H1  H2  EPW O   H1  H2  EPW O   H1  H2  
EPW O   H1  H2  EPW O   H1  H2  EPW O   H1  H2  EPW O   H1  H2  EPW O   H1  H2  
EPW O   H1  H2  EPW O   H1  H2  EPW O   H1  H2  EPW O   H1  H2  EPW O   H1  H2  
EPW O   H1  H2  EPW O   H1  H2  EPW O   H1  H2  EPW O   H1  H2  EPW O   H1  H2  
EPW O   H1  H2  EPW O   H1  H2  EPW O   H1  H2  EPW O   H1  H2  EPW O   H1  H2  
EPW O   H1  H2  EPW O   H1  H2  EPW O   H1  H2  EPW O   H1  H2  EPW O   H1  H2  
EPW O   H1  H2  EPW O   H1  H2  EPW O   H1  H2  EPW O   H1  H2  EPW O   H1  H2  
EPW O   H1  H2  EPW O   H1  H2  EPW O   H1  H2  EPW O   H1  H2  EPW O   H1  H2  
EPW O   H1  H2  EPW O   H1  H2  EPW O   H1  H2  EPW O   H1  H2  EPW O   H1  H2  
EPW O   H1  H2  EPW O   H1  H2  EPW O   H1  H2  EPW O   H1  H2  EPW O   H1  H2  
EPW O   H1  H2  EPW O   H1  H2  EPW O   H1  H2  EPW O   H1  H2  EPW O   H1  H2  
EPW O   H1  H2  EPW O   H1  H2  EPW O   H1  H2  EPW O   H1  H2  EPW O   H1  H2  
EPW O   H1  H2  EPW O   H1  H2  EPW O   H1  H2  EPW O   H1  H2  EPW O   H1  H2  
EPW O   H1  H2  EPW O   H1  H2  EPW O   H1  H2  EPW O   H1  H2  EPW O   H1  H2  
EPW O   H1  H2  EPW O   H1  H2  EPW O   H1  H2  EPW O   H1  H2  EPW O   H1  H2  
EPW O   H1  H2  EPW O   H1  H2  EPW O   H1  H2  EPW O   H1  H2  EPW O   H1  H2  
EPW O   H1  H2  EPW O   H1  H2  EPW O   H1  H2  EPW O   H1  H2  EPW O   H1  H2  
EPW O   H1  H2  EPW O   H1  H2  EPW O   H1  H2  EPW O   H1  H2  EPW O   H1  H2  
EPW O   H1  H2  EPW O   H1  H2  EPW O   H1  H2  EPW O   H1  H2  EPW O   H1  H2  
EPW O   H1  H2  EPW O   H1  H2  EPW O   H1  H2  EPW O   H1  H2  EPW O   H1  H2  
EPW O   H1  H2  EPW O   H1  H2  EPW O   H1  H2  EPW O   H1  H2  EPW O   H1  H2  
EPW O   H1  H2  EPW O   H1  H2  EPW O   H1  H2  EPW O   H1  H2  EPW O   H1  H2  
EPW O   H1  H2  EPW O   H1  H2  EPW O   H1  H2  EPW O   H1  H2  EPW O   H1  H2  
EPW O   H1  H2  EPW O   H1  H2  EPW O   H1  H2  EPW O   H1  H2  EPW O   H1  H2  
EPW O   H1  H2  EPW O   H1  H2  EPW O   H1  H2  EPW O   H1  H2  EPW O   H1  H2  
EPW O   H1  H2  EPW O   H1  H2  EPW O   H1  H2  EPW O   H1  H2  EPW O   H1  H2  
EPW O   H1  H2  EPW O   H1  H2  EPW O   H1  H2  EPW O   H1  H2  EPW O   H1  H2  
EPW O   H1  H2  EPW O   H1  H2  EPW O   H1  H2  EPW O   H1  H2  EPW O   H1  H2  
EPW O   H1  H2  EPW O   H1  H2  EPW O   H1  H2  EPW O   H1  H2  EPW O   H1  H2  
EPW O   H1  H2  EPW O   H1  H2  EPW O   H1  H2  EPW O   H1  H2  EPW O   H1  H2  
EPW O   H1  H2  EPW O   H1  H2  EPW O   H1  H2  EPW O   H1  H2  EPW O   H1  H2  
EPW O   H1  H2  EPW O   H1  H2  EPW O   H1  H2  EPW O   H1  H2  EPW O   H1  H2  
EPW O   H1  H2  EPW O   H1  H2  EPW O   H1  H2  EPW O   H1  H2  EPW O   H1  H2  
EPW O   H1  H2  EPW O   H1  H2  EPW O   H1  H2  EPW O   H1  H2  EPW O   H1  H2  
EPW O   H1  H2  EPW O   H1  H2  EPW O   H1  H2  EPW O   H1  H2  EPW O   H1  H2  
EPW O   H1  H2  EPW O   H1  H2  EPW O   H1  H2  EPW O   H1  H2  EPW O   H1  H2  
EPW O   H1  H2  EPW O   H1  H2  EPW O   H1  H2  EPW O   H1  H2  EPW O   H1  H2  
EPW O   H1  H2  EPW O   H1  H2  EPW O   H1  H2  EPW O   H1  H2  EPW O   H1  H2  
EPW O   H1  H2  EPW O   H1  H2  EPW O   H1  H2  EPW O   H1  H2  EPW O   H1  H2  
EPW O   H1  H2  EPW O   H1  H2  EPW O   H1  H2  EPW O   H1  H2  EPW O   H1  H2  
EPW O   H1  H2  EPW O   H1  H2  EPW O   H1  H2  EPW O   H1  H2  EPW O   H1  H2  
EPW O   H1  H2  EPW O   H1  H2  EPW O   H1  H2  EPW O   H1  H2  EPW O   H1  H2  
EPW O   H1  H2  EPW O   H1  H2  EPW O   H1  H2  EPW O   H1  H2  EPW O   H1  H2  
EPW O   H1  H2  EPW O   H1  H2  EPW O   H1  H2  EPW O   H1  H2  EPW O   H1  H2  
EPW O   H1  H2  EPW O   H1  H2  EPW O   H1  H2  EPW O   H1  H2  EPW O   H1  H2  
EPW O   H1  H2  EPW O   H1  H2  EPW O   H1  H2  EPW O   H1  H2  EPW O   H1  H2  
EPW O   H1  H2  EPW O   H1  H2  EPW O   H1  H2  EPW O   H1  H2  EPW O   H1  H2  
EPW O   H1  H2  EPW O   H1  H2  EPW O   H1  H2  EPW O   H1  H2  EPW O   H1  H2  
EPW O   H1  H2  EPW O   H1  H2  EPW O   H1  H2  EPW O   H1  H2  EPW O   H1  H2  
EPW O   H1  H2  EPW O   H1  H2  EPW O   H1  H2  EPW O   H1  H2  EPW O   H1  H2  
EPW O   H1  H2  EPW O   H1  H2  EPW O   H1  H2  EPW O   H1  H2  EPW O   H1  H2  
EPW O   H1  H2  EPW O   H1  H2  EPW O   H1  H2  EPW O   H1  H2  EPW O   H1  H2  
EPW O   H1  H2  EPW O   H1  H2  EPW O   H1  H2  EPW O   H1  H2  EPW O   H1  H2  
EPW O   H1  H2  EPW O   H1  H2  EPW O   H1  H2  EPW O   H1  H2  EPW O   H1  H2  
EPW O   H1  H2  EPW O   H1  H2  EPW O   H1  H2  EPW O   H1  H2  EPW O   H1  H2  
EPW O   H1  H2  EPW O   H1  H2  EPW O   H1  H2  EPW O   H1  H2  EPW O   H1  H2  
EPW O   H1  H2  EPW O   H1  H2  EPW O   H1  H2  EPW O   H1  H2  EPW O   H1  H2  
EPW O   H1  H2  EPW O   H1  H2  EPW O   H1  H2  EPW O   H1  H2  EPW O   H1  H2  
EPW O   H1  H2  EPW O   H1  H2  EPW O   H1  H2  EPW O   H1  H2  EPW O   H1  H2  
EPW O   H1  H2  EPW O   H1  H2  EPW O   H1  H2  EPW O   H1  H2  EPW O   H1  H2  
EPW O   H1  H2  EPW O   H1  H2  EPW O   H1  H2  EPW O   H1  H2  EPW O   H1  H2  
EPW O   H1  H2  EPW O   H1  H2  EPW O   H1  H2  EPW O   H1  H2  EPW O   H1  H2  
EPW O   H1  H2  EPW O   H1  H2  EPW O   H1  H2  EPW O   H1  H2  EPW O   H1  H2  
EPW O   H1  H2  EPW O   H1  H2  EPW O   H1  H2  EPW O   H1  H2  EPW O   H1  H2  
EPW O   H1  H2  EPW O   H1  H2  EPW O   H1  H2  EPW O   H1  H2  EPW O   H1  H2  
EPW O   H1  H2  EPW O   H1  H2  EPW O   H1  H2  EPW O   H1  H2  EPW O   H1  H2  
EPW O   H1  H2  EPW O   H1  H2  EPW O   H1  H2  EPW O   H1  H2  EPW O   H1  H2  
EPW O   H1  H2  EPW O   H1  H2  EPW O   H1  H2  EPW O   H1  H2  EPW O   H1  H2  
EPW O   H1  H2  EPW O   H1  H2  EPW O   H1  H2  EPW O   H1  H2  EPW O   H1  H2  
EPW O   H1  H2  EPW O   H1  H2  EPW O   H1  H2  EPW O   H1  H2  EPW O   H1  H2  
EPW O   H1  H2  EPW O   H1  H2  EPW O   H1  H2  EPW O   H1  H2  EPW O   H1  H2  
EPW O   H1  H2  EPW O   H1  H2  EPW O   H1  H2  EPW O   H1  H2  EPW O   H1  H2  
EPW O   H1  H2  EPW O   H1  H2  EPW O   H1  H2  EPW O   H1  H2  EPW O   H1  H2  
EPW O   H1  H2  EPW O   H1  H2  EPW O   H1  H2  EPW O   H1  H2  EPW O   H1  H2  
EPW O   H1  H2  EPW O   H1  H2  EPW O   H1  H2  EPW O   H1  H2  EPW O   H1  H2  
EPW O   H1  H2  EPW O   H1  H2  EPW O   H1  H2  EPW O   H1  H2  EPW O   H1  H2  
EPW O   H1  H2  EPW O   H1  H2  EPW O   H1  H2  EPW O   H1  H2  EPW O   H1  H2  
EPW O   H1  H2  EPW O   H1  H2  EPW O   H1  H2  EPW O   H1  H2  EPW O   H1  H2  
EPW O   H1  H2  EPW O   H1  H2  EPW O   H1  H2  EPW O   H1  H2  EPW O   H1  H2  
EPW O   H1  H2  EPW O   H1  H2  EPW O   H1  H2  EPW O   H1  H2  EPW O   H1  H2  
EPW O   H1  H2  EPW O   H1  H2  EPW O   H1  H2  EPW O   H1  H2  EPW O   H1  H2  
EPW O   H1  H2  EPW O   H1  H2  EPW O   H1  H2  EPW O   H1  H2  EPW O   H1  H2  
EPW O   H1  H2  EPW O   H1  H2  EPW O   H1  H2  EPW O   H1  H2  EPW O   H1  H2  
EPW O   H1  H2  EPW O   H1  H2  EPW O   H1  H2  EPW O   H1  H2  EPW O   H1  H2  
EPW O   H1  H2  EPW O   H1  H2  EPW O   H1  H2  EPW O   H1  H2  EPW O   H1  H2  
EPW O   H1  H2  EPW O   H1  H2  EPW O   H1  H2  EPW O   H1  H2  EPW O   H1  H2  
EPW O   H1  H2  EPW O   H1  H2  EPW O   H1  H2  EPW O   H1  H2  EPW O   H1  H2  
EPW O   H1  H2  EPW O   H1  H2  EPW O   H1  H2  EPW O   H1  H2  EPW O   H1  H2  
EPW O   H1  H2  EPW O   H1  H2  EPW O   H1  H2  EPW O   H1  H2  EPW O   H1  H2  
EPW O   H1  H2  EPW O   H1  H2  EPW O   H1  H2  EPW O   H1  H2  EPW O   H1  H2  
EPW O   H1  H2  EPW O   H1  H2  EPW O   H1  H2  EPW O   H1  H2  EPW O   H1  H2  
EPW O   H1  H2  EPW O   H1  H2  EPW O   H1  H2  EPW O   H1  H2  EPW O   H1  H2  
EPW O   H1  H2  EPW O   H1  H2  EPW O   H1  H2  EPW O   H1  H2  EPW O   H1  H2  
EPW O   H1  H2  EPW O   H1  H2  EPW O   H1  H2  EPW O   H1  H2  EPW O   H1  H2  
EPW O   H1  H2  EPW O   H1  H2  EPW O   H1  H2  EPW O   H1  H2  EPW O   H1  H2  
EPW O   H1  H2  EPW O   H1  H2  EPW O   H1  H2  EPW O   H1  H2  EPW O   H1  H2  
EPW O   H1  H2  EPW O   H1  H2  EPW O   H1  H2  EPW O   H1  H2  EPW O   H1  H2  
EPW O   H1  H2  EPW O   H1  H2  EPW O   H1  H2  EPW O   H1  H2  EPW O   H1  H2  
EPW O   H1  H2  EPW O   H1  H2  EPW O   H1  H2  EPW O   H1  H2  EPW O   H1  H2  
EPW O   H1  H2  EPW O   H1  H2  EPW O   H1  H2  EPW O   H1  H2  EPW O   H1  H2  
EPW O   H1  H2  EPW O   H1  H2  EPW O   H1  H2  EPW O   H1  H2  EPW O   H1  H2  
EPW O   H1  H2  EPW O   H1  H2  EPW O   H1  H2  EPW O   H1  H2  EPW O   H1  H2  
EPW O   H1  H2  EPW O   H1  H2  EPW O   H1  H2  EPW O   H1  H2  EPW O   H1  H2  
EPW O   H1  H2  EPW O   H1  H2  EPW O   H1  H2  EPW O   H1  H2  EPW O   H1  H2  
EPW O   H1  H2  EPW O   H1  H2  EPW O   H1  H2  EPW O   H1  H2  EPW O   H1  H2  
EPW O   H1  H2  EPW O   H1  H2  EPW O   H1  H2  EPW O   H1  H2  EPW O   H1  H2  
EPW O   H1  H2  EPW O   H1  H2  EPW O   H1  H2  EPW O   H1  H2  EPW O   H1  H2  
EPW O   H1  H2  EPW O   H1  H2  EPW O   H1  H2  EPW O   H1  H2  EPW O   H1  H2  
EPW O   H1  H2  EPW O   H1  H2  EPW O   H1  H2  EPW O   H1  H2  EPW O   H1  H2  
EPW O   H1  H2  EPW O   H1  H2  EPW O   H1  H2  EPW O   H1  H2  EPW O   H1  H2  
EPW O   H1  H2  EPW O   H1  H2  EPW O   H1  H2  EPW O   H1  H2  EPW O   H1  H2  
EPW O   H1  H2  EPW O   H1  H2  EPW O   H1  H2  EPW O   H1  H2  EPW O   H1  H2  
EPW O   H1  H2  EPW O   H1  H2  EPW O   H1  H2  EPW O   H1  H2  EPW O   H1  H2  
EPW O   H1  H2  EPW O   H1  H2  EPW O   H1  H2  EPW O   H1  H2  EPW O   H1  H2  
EPW O   H1  H2  EPW O   H1  H2  EPW O   H1  H2  EPW O   H1  H2  EPW O   H1  H2  
EPW O   H1  H2  EPW O   H1  H2  EPW O   H1  H2  EPW O   H1  H2  EPW O   H1  H2  
EPW O   H1  H2  EPW O   H1  H2  EPW O   H1  H2  EPW O   H1  H2  EPW O   H1  H2  
EPW O   H1  H2  EPW O   H1  H2  EPW O   H1  H2  EPW O   H1  H2  EPW O   H1  H2  
EPW O   H1  H2  EPW O   H1  H2  EPW O   H1  H2  EPW O   H1  H2  EPW O   H1  H2  
EPW O   H1  H2  EPW O   H1  H2  EPW O   H1  H2  EPW O   H1  H2  EPW O   H1  H2  
EPW O   H1  H2  EPW O   H1  H2  EPW O   H1  H2  EPW O   H1  H2  EPW O   H1  H2  
EPW O   H1  H2  EPW O   H1  H2  EPW O   H1  H2  EPW O   H1  H2  EPW O   H1  H2  
EPW O   H1  H2  EPW O   H1  H2  EPW O   H1  H2  EPW O   H1  H2  EPW O   H1  H2  
EPW O   H1  H2  EPW O   H1  H2  EPW O   H1  H2  EPW O   H1  H2  EPW O   H1  H2  
EPW O   H1  H2  EPW O   H1  H2  EPW O   H1  H2  EPW O   H1  H2  EPW O   H1  H2  
EPW O   H1  H2  EPW O   H1  H2  EPW O   H1  H2  EPW O   H1  H2  EPW O   H1  H2  
EPW O   H1  H2  EPW O   H1  H2  EPW O   H1  H2  EPW O   H1  H2  EPW O   H1  H2  
EPW O   H1  H2  EPW O   H1  H2  EPW O   H1  H2  EPW O   H1  H2  EPW O   H1  H2  
EPW O   H1  H2  EPW O   H1  H2  EPW O   H1  H2  EPW O   H1  H2  EPW O   H1  H2  
EPW O   H1  H2  EPW O   H1  H2  EPW O   H1  H2  EPW O   H1  H2  EPW O   H1  H2  
EPW O   H1  H2  EPW O   H1  H2  EPW O   H1  H2  EPW O   H1  H2  EPW O   H1  H2  
EPW O   H1  H2  EPW O   H1  H2  EPW O   H1  H2  EPW O   H1  H2  EPW O   H1  H2  
EPW O   H1  H2  EPW O   H1  H2  EPW O   H1  H2  EPW O   H1  H2  EPW O   H1  H2  
EPW O   H1  H2  EPW O   H1  H2  EPW O   H1  H2  EPW O   H1  H2  EPW O   H1  H2  
EPW O   H1  H2  EPW O   H1  H2  EPW O   H1  H2  EPW O   H1  H2  EPW O   H1  H2  
EPW O   H1  H2  EPW O   H1  H2  EPW O   H1  H2  EPW O   H1  H2  EPW O   H1  H2  
EPW O   H1  H2  EPW O   H1  H2  EPW O   H1  H2  EPW O   H1  H2  EPW O   H1  H2  
EPW O   H1  H2  EPW O   H1  H2  EPW O   H1  H2  EPW O   H1  H2  EPW O   H1  H2  
EPW O   H1  H2  EPW O   H1  H2  EPW O   H1  H2  EPW O   H1  H2  EPW O   H1  H2  
EPW O   H1  H2  EPW O   H1  H2  EPW O   H1  H2  EPW O   H1  H2  EPW O   H1  H2  
EPW O   H1  H2  EPW O   H1  H2  EPW O   H1  H2  EPW O   H1  H2  EPW O   H1  H2  
EPW O   H1  H2  EPW O   H1  H2  EPW O   H1  H2  EPW O   H1  H2  EPW O   H1  H2  
EPW O   H1  H2  EPW O   H1  H2  EPW O   H1  H2  EPW O   H1  H2  EPW O   H1  H2  
EPW O   H1  H2  EPW O   H1  H2  EPW O   H1  H2  EPW O   H1  H2  EPW O   H1  H2  
EPW O   H1  H2  EPW O   H1  H2  EPW O   H1  H2  EPW O   H1  H2  EPW O   H1  H2  
EPW O   H1  H2  EPW O   H1  H2  EPW O   H1  H2  EPW O   H1  H2  EPW O   H1  H2  
EPW O   H1  H2  EPW O   H1  H2  EPW O   H1  H2  EPW O   H1  H2  EPW O   H1  H2  
EPW O   H1  H2  EPW O   H1  H2  EPW O   H1  H2  EPW O   H1  H2  EPW O   H1  H2  
EPW O   H1  H2  EPW O   H1  H2  EPW O   H1  H2  EPW O   H1  H2  EPW O   H1  H2  
EPW O   H1  H2  EPW O   H1  H2  EPW O   H1  H2  EPW O   H1  H2  EPW O   H1  H2  
EPW O   H1  H2  EPW O   H1  H2  EPW O   H1  H2  EPW O   H1  H2  EPW O   H1  H2  
EPW O   H1  H2  EPW O   H1  H2  EPW O   H1  H2  EPW O   H1  H2  EPW O   H1  H2  
EPW O   H1  H2  EPW O   H1  H2  EPW O   H1  H2  EPW O   H1  H2  EPW O   H1  H2  
EPW O   H1  H2  EPW O   H1  H2  EPW O   H1  H2  EPW O   H1  H2  EPW O   H1  H2  
EPW O   H1  H2  EPW O   H1  H2  EPW O   H1  H2  EPW O   H1  H2  EPW O   H1  H2  
EPW O   H1  H2  EPW O   H1  H2  EPW O   H1  H2  EPW O   H1  H2  EPW O   H1  H2  
EPW O   H1  H2  EPW O   H1  H2  EPW O   H1  H2  EPW O   H1  H2  EPW O   H1  H2  
EPW O   H1  H2  EPW O   H1  H2  EPW O   H1  H2  EPW O   H1  H2  EPW O   H1  H2  
EPW O   H1  H2  EPW O   H1  H2  EPW O   H1  H2  EPW O   H1  H2  EPW O   H1  H2  
EPW O   H1  H2  EPW O   H1  H2  EPW O   H1  H2  EPW O   H1  H2  EPW O   H1  H2  
EPW O   H1  H2  EPW O   H1  H2  EPW O   H1  H2  EPW O   H1  H2  EPW O   H1  H2  
EPW O   H1  H2  EPW O   H1  H2  EPW O   H1  H2  EPW O   H1  H2  EPW O   H1  H2  
EPW O   H1  H2  EPW O   H1  H2  EPW O   H1  H2  EPW O   H1  H2  EPW O   H1  H2  
EPW O   H1  H2  EPW O   H1  H2  EPW O   H1  H2  EPW O   H1  H2  EPW O   H1  H2  
EPW O   H1  H2  EPW O   H1  H2  EPW O   H1  H2  EPW O   H1  H2  EPW O   H1  H2  
EPW O   H1  H2  EPW O   H1  H2  EPW O   H1  H2  EPW O   H1  H2  EPW O   H1  H2  
EPW O   H1  H2  EPW O   H1  H2  EPW O   H1  H2  EPW O   H1  H2  EPW O   H1  H2  
EPW O   H1  H2  EPW O   H1  H2  EPW O   H1  H2  EPW O   H1  H2  EPW O   H1  H2  
EPW O   H1  H2  EPW O   H1  H2  EPW O   H1  H2  EPW O   H1  H2  EPW O   H1  H2  
EPW O   H1  H2  EPW O   H1  H2  EPW O   H1  H2  EPW O   H1  H2  EPW O   H1  H2  
EPW O   H1  H2  EPW O   H1  H2  EPW O   H1  H2  EPW O   H1  H2  EPW O   H1  H2  
EPW O   H1  H2  EPW O   H1  H2  EPW O   H1  H2  EPW O   H1  H2  EPW O   H1  H2  
EPW O   H1  H2  EPW O   H1  H2  EPW O   H1  H2  EPW O   H1  H2  EPW O   H1  H2  
EPW O   H1  H2  EPW O   H1  H2  EPW O   H1  H2  EPW O   H1  H2  EPW O   H1  H2  
EPW O   H1  H2  EPW O   H1  H2  EPW O   H1  H2  EPW O   H1  H2  EPW O   H1  H2  
EPW O   H1  H2  EPW O   H1  H2  EPW O   H1  H2  EPW O   H1  H2  EPW O   H1  H2  
EPW O   H1  H2  EPW O   H1  H2  EPW O   H1  H2  EPW O   H1  H2  EPW O   H1  H2  
EPW O   H1  H2  EPW O   H1  H2  EPW O   H1  H2  EPW O   H1  H2  EPW O   H1  H2  
EPW O   H1  H2  EPW O   H1  H2  EPW O   H1  H2  EPW O   H1  H2  EPW O   H1  H2  
EPW O   H1  H2  EPW O   H1  H2  EPW O   H1  H2  EPW O   H1  H2  EPW O   H1  H2  
EPW O   H1  H2  EPW O   H1  H2  EPW O   H1  H2  EPW O   H1  H2  EPW O   H1  H2  
EPW O   H1  H2  EPW O   H1  H2  EPW O   H1  H2  EPW O   H1  H2  EPW O   H1  H2  
EPW O   H1  H2  EPW O   H1  H2  EPW O   H1  H2  EPW O   H1  H2  EPW O   H1  H2  
EPW O   H1  H2  EPW O   H1  H2  EPW O   H1  H2  EPW O   H1  H2  EPW O   H1  H2  
EPW O   H1  H2  EPW O   H1  H2  EPW O   H1  H2  EPW O   H1  H2  EPW O   H1  H2  
EPW O   H1  H2  EPW O   H1  H2  EPW O   H1  H2  EPW O   H1  H2  EPW O   H1  H2  
EPW O   H1  H2  EPW O   H1  H2  EPW O   H1  H2  EPW O   H1  H2  EPW O   H1  H2  
EPW O   H1  H2  EPW O   H1  H2  EPW O   H1  H2  EPW O   H1  H2  EPW O   H1  H2  
EPW O   H1  H2  EPW O   H1  H2  EPW O   H1  H2  EPW O   H1  H2  EPW O   H1  H2  
EPW O   H1  H2  EPW O   H1  H2  EPW O   H1  H2  EPW O   H1  H2  EPW O   H1  H2  
EPW O   H1  H2  EPW O   H1  H2  EPW O   H1  H2  EPW O   H1  H2  EPW O   H1  H2  
EPW O   H1  H2  EPW O   H1  H2  EPW O   H1  H2  EPW O   H1  H2  EPW O   H1  H2  
EPW O   H1  H2  EPW O   H1  H2  EPW O   H1  H2  EPW O   H1  H2  EPW O   H1  H2  
EPW O   H1  H2  EPW O   H1  H2  EPW O   H1  H2  EPW O   H1  H2  EPW O   H1  H2  
EPW O   H1  H2  EPW O   H1  H2  EPW O   H1  H2  EPW O   H1  H2  EPW O   H1  H2  
EPW O   H1  H2  EPW O   H1  H2  EPW O   H1  H2  EPW O   H1  H2  EPW O   H1  H2  
EPW O   H1  H2  EPW O   H1  H2  EPW O   H1  H2  EPW O   H1  H2  EPW O   H1  H2  
EPW O   H1  H2  EPW O   H1  H2  EPW O   H1  H2  EPW O   H1  H2  EPW O   H1  H2  
EPW O   H1  H2  EPW O   H1  H2  EPW O   H1  H2  EPW O   H1  H2  EPW O   H1  H2  
EPW O   H1  H2  EPW O   H1  H2  EPW O   H1  H2  EPW O   H1  H2  EPW O   H1  H2  
EPW O   H1  H2  EPW O   H1  H2  EPW O   H1  H2  EPW O   H1  H2  EPW O   H1  H2  
EPW O   H1  H2  EPW O   H1  H2  EPW O   H1  H2  EPW O   H1  H2  EPW O   H1  H2  
EPW O   H1  H2  EPW O   H1  H2  EPW O   H1  H2  EPW O   H1  H2  EPW O   H1  H2  
EPW O   H1  H2  EPW O   H1  H2  EPW O   H1  H2  EPW O   H1  H2  EPW O   H1  H2  
EPW O   H1  H2  EPW O   H1  H2  EPW O   H1  H2  EPW O   H1  H2  EPW O   H1  H2  
EPW O   H1  H2  EPW O   H1  H2  EPW O   H1  H2  EPW O   H1  H2  EPW O   H1  H2  
EPW O   H1  H2  EPW O   H1  H2  EPW O   H1  H2  EPW O   H1  H2  EPW O   H1  H2  
EPW O   H1  H2  EPW O   H1  H2  EPW O   H1  H2  EPW O   H1  H2  EPW O   H1  H2  
EPW O   H1  H2  EPW O   H1  H2  EPW O   H1  H2  EPW O   H1  H2  EPW O   H1  H2  
EPW O   H1  H2  EPW O   H1  H2  EPW O   H1  H2  EPW O   H1  H2  EPW O   H1  H2  
EPW O   H1  H2  EPW O   H1  H2  EPW O   H1  H2  EPW O   H1  H2  EPW O   H1  H2  
EPW O   H1  H2  EPW O   H1  H2  EPW O   H1  H2  EPW O   H1  H2  EPW O   H1  H2  
EPW O   H1  H2  EPW O   H1  H2  EPW O   H1  H2  EPW O   H1  H2  EPW O   H1  H2  
EPW O   H1  H2  EPW O   H1  H2  EPW O   H1  H2  EPW O   H1  H2  EPW O   H1  H2  
EPW O   H1  H2  EPW O   H1  H2  EPW O   H1  H2  EPW O   H1  H2  EPW O   H1  H2  
EPW O   H1  H2  EPW O   H1  H2  EPW O   H1  H2  EPW O   H1  H2  EPW O   H1  H2  
EPW O   H1  H2  EPW O   H1  H2  EPW O   H1  H2  EPW O   H1  H2  EPW O   H1  H2  
EPW O   H1  H2  EPW O   H1  H2  EPW O   H1  H2  EPW O   H1  H2  EPW O   H1  H2  
EPW O   H1  H2  EPW O   H1  H2  EPW O   H1  H2  EPW O   H1  H2  EPW O   H1  H2  
EPW O   H1  H2  EPW O   H1  H2  EPW O   H1  H2  EPW O   H1  H2  EPW O   H1  H2  
EPW O   H1  H2  EPW O   H1  H2  EPW O   H1  H2  EPW O   H1  H2  EPW O   H1  H2  
EPW O   H1  H2  EPW O   H1  H2  EPW O   H1  H2  EPW O   H1  H2  EPW O   H1  H2  
EPW O   H1  H2  EPW O   H1  H2  EPW O   H1  H2  EPW O   H1  H2  EPW O   H1  H2  
EPW O   H1  H2  EPW O   H1  H2  EPW O   H1  H2  EPW O   H1  H2  EPW O   H1  H2  
EPW O   H1  H2  EPW O   H1  H2  EPW O   H1  H2  EPW O   H1  H2  EPW O   H1  H2  
EPW O   H1  H2  EPW O   H1  H2  EPW O   H1  H2  EPW O   H1  H2  EPW O   H1  H2  
EPW O   H1  H2  EPW O   H1  H2  EPW O   H1  H2  EPW O   H1  H2  EPW O   H1  H2  
EPW O   H1  H2  EPW O   H1  H2  EPW O   H1  H2  EPW O   H1  H2  EPW O   H1  H2  
EPW O   H1  H2  EPW O   H1  H2  EPW O   H1  H2  EPW O   H1  H2  EPW O   H1  H2  
EPW O   H1  H2  EPW O   H1  H2  EPW O   H1  H2  EPW O   H1  H2  EPW O   H1  H2  
EPW O   H1  H2  EPW O   H1  H2  EPW O   H1  H2  EPW O   H1  H2  EPW O   H1  H2  
EPW O   H1  H2  EPW O   H1  H2  EPW O   H1  H2  EPW O   H1  H2  EPW O   H1  H2  
EPW O   H1  H2  EPW O   H1  H2  EPW O   H1  H2  EPW O   H1  H2  EPW O   H1  H2  
EPW O   H1  H2  EPW O   H1  H2  EPW O   H1  H2  EPW O   H1  H2  EPW O   H1  H2  
EPW O   H1  H2  EPW O   H1  H2  EPW O   H1  H2  EPW O   H1  H2  EPW O   H1  H2  
EPW O   H1  H2  EPW O   H1  H2  EPW O   H1  H2  EPW O   H1  H2  EPW O   H1  H2  
EPW O   H1  H2  EPW O   H1  H2  EPW O   H1  H2  EPW O   H1  H2  EPW O   H1  H2  
EPW O   H1  H2  EPW O   H1  H2  EPW O   H1  H2  EPW O   H1  H2  EPW O   H1  H2  
EPW O   H1  H2  EPW O   H1  H2  EPW O   H1  H2  EPW O   H1  H2  EPW O   H1  H2  
EPW O   H1  H2  EPW O   H1  H2  EPW O   H1  H2  EPW O   H1  H2  EPW O   H1  H2  
EPW O   H1  H2  EPW O   H1  H2  EPW O   H1  H2  EPW O   H1  H2  EPW O   H1  H2  
EPW O   H1  H2  EPW O   H1  H2  EPW O   H1  H2  EPW O   H1  H2  EPW O   H1  H2  
EPW O   H1  H2  EPW O   H1  H2  EPW O   H1  H2  EPW O   H1  H2  EPW O   H1  H2  
EPW O   H1  H2  EPW O   H1  H2  EPW O   H1  H2  EPW O   H1  H2  EPW O   H1  H2  
EPW O   H1  H2  EPW O   H1  H2  EPW O   H1  H2  EPW O   H1  H2  EPW O   H1  H2  
EPW O   H1  H2  EPW O   H1  H2  EPW O   H1  H2  EPW O   H1  H2  EPW O   H1  H2  
EPW O   H1  H2  EPW O   H1  H2  EPW O   H1  H2  EPW O   H1  H2  EPW O   H1  H2  
EPW O   H1  H2  EPW O   H1  H2  EPW O   H1  H2  EPW O   H1  H2  EPW O   H1  H2  
EPW O   H1  H2  EPW O   H1  H2  EPW O   H1  H2  EPW O   H1  H2  EPW O   H1  H2  
EPW O   H1  H2  EPW O   H1  H2  EPW O   H1  H2  EPW O   H1  H2  EPW O   H1  H2  
EPW O   H1  H2  EPW O   H1  H2  EPW O   H1  H2  EPW O   H1  H2  EPW O   H1  H2  
EPW O   H1  H2  EPW O   H1  H2  EPW O   H1  H2  EPW O   H1  H2  EPW O   H1  H2  
EPW O   H1  H2  EPW O   H1  H2  EPW O   H1  H2  EPW O   H1  H2  EPW O   H1  H2  
EPW O   H1  H2  EPW O   H1  H2  EPW O   H1  H2  EPW O   H1  H2  EPW O   H1  H2  
EPW O   H1  H2  EPW O   H1  H2  EPW O   H1  H2  EPW O   H1  H2  EPW O   H1  H2  
EPW O   H1  H2  EPW O   H1  H2  EPW O   H1  H2  EPW O   H1  H2  EPW O   H1  H2  
EPW O   H1  H2  EPW O   H1  H2  EPW O   H1  H2  EPW O   H1  H2  EPW O   H1  H2  
EPW O   H1  H2  EPW O   H1  H2  EPW O   H1  H2  EPW O   H1  H2  EPW O   H1  H2  
EPW O   H1  H2  EPW O   H1  H2  EPW O   H1  H2  EPW O   H1  H2  EPW O   H1  H2  
EPW O   H1  H2  EPW O   H1  H2  EPW O   H1  H2  EPW O   H1  H2  EPW O   H1  H2  
EPW O   H1  H2  EPW O   H1  H2  EPW O   H1  H2  EPW O   H1  H2  EPW O   H1  H2  
EPW O   H1  H2  EPW O   H1  H2  EPW O   H1  H2  EPW O   H1  H2  EPW O   H1  H2  
EPW O   H1  H2  EPW O   H1  H2  EPW O   H1  H2  EPW O   H1  H2  EPW O   H1  H2  
EPW O   H1  H2  EPW O   H1  H2  EPW O   H1  H2  EPW O   H1  H2  EPW O   H1  H2  
EPW O   H1  H2  EPW O   H1  H2  EPW O   H1  H2  EPW O   H1  H2  EPW O   H1  H2  
EPW O   H1  H2  EPW O   H1  H2  EPW O   H1  H2  EPW O   H1  H2  EPW O   H1  H2  
EPW O   H1  H2  EPW O   H1  H2  EPW O   H1  H2  EPW O   H1  H2  EPW O   H1  H2  
EPW O   H1  H2  EPW O   H1  H2  EPW O   H1  H2  EPW O   H1  H2  EPW O   H1  H2  
EPW O   H1  H2  EPW O   H1  H2  EPW O   H1  H2  EPW O   H1  H2  EPW O   H1  H2  
EPW O   H1  H2  EPW O   H1  H2  EPW O   H1  H2  EPW O   H1  H2  EPW O   H1  H2  
EPW O   H1  H2  EPW O   H1  H2  EPW O   H1  H2  EPW O   H1  H2  EPW O   H1  H2  
EPW O   H1  H2  EPW O   H1  H2  EPW O   H1  H2  EPW O   H1  H2  EPW O   H1  H2  
EPW O   H1  H2  EPW O   H1  H2  EPW O   H1  H2  EPW O   H1  H2  EPW O   H1  H2  
EPW O   H1  H2  EPW O   H1  H2  EPW O   H1  H2  EPW O   H1  H2  EPW O   H1  H2  
EPW O   H1  H2  EPW O   H1  H2  EPW O   H1  H2  EPW O   H1  H2  EPW O   H1  H2  
EPW O   H1  H2  EPW O   H1  H2  EPW O   H1  H2  EPW O   H1  H2  EPW O   H1  H2  
EPW O   H1  H2  EPW O   H1  H2  EPW O   H1  H2  EPW O   H1  H2  EPW O   H1  H2  
EPW O   H1  H2  EPW O   H1  H2  EPW O   H1  H2  EPW O   H1  H2  EPW O   H1  H2  
EPW O   H1  H2  EPW O   H1  H2  EPW O   H1  H2  EPW O   H1  H2  EPW O   H1  H2  
EPW O   H1  H2  EPW O   H1  H2  EPW O   H1  H2  EPW O   H1  H2  EPW O   H1  H2  
EPW O   H1  H2  EPW O   H1  H2  EPW O   H1  H2  EPW O   H1  H2  EPW O   H1  H2  
EPW O   H1  H2  EPW O   H1  H2  EPW O   H1  H2  EPW O   H1  H2  EPW O   H1  H2  
EPW O   H1  H2  EPW O   H1  H2  EPW O   H1  H2  EPW O   H1  H2  EPW O   H1  H2  
EPW O   H1  H2  EPW O   H1  H2  EPW O   H1  H2  EPW O   H1  H2  EPW O   H1  H2  
EPW O   H1  H2  EPW O   H1  H2  EPW O   H1  H2  EPW O   H1  H2  EPW O   H1  H2  
EPW O   H1  H2  EPW O   H1  H2  EPW O   H1  H2  EPW O   H1  H2  EPW O   H1  H2  
EPW O   H1  H2  EPW O   H1  H2  EPW O   H1  H2  EPW O   H1  H2  EPW O   H1  H2  
EPW O   H1  H2  EPW O   H1  H2  EPW O   H1  H2  EPW O   H1  H2  EPW O   H1  H2  
EPW O   H1  H2  EPW O   H1  H2  EPW O   H1  H2  EPW O   H1  H2  EPW O   H1  H2  
EPW O   H1  H2  EPW O   H1  H2  EPW O   H1  H2  EPW O   H1  H2  EPW O   H1  H2  
EPW O   H1  H2  EPW O   H1  H2  EPW O   H1  H2  EPW O   H1  H2  EPW O   H1  H2  
EPW O   H1  H2  EPW O   H1  H2  EPW O   H1  H2  EPW O   H1  H2  EPW O   H1  H2  
EPW O   H1  H2  EPW O   H1  H2  EPW O   H1  H2  EPW O   H1  H2  EPW O   H1  H2  
EPW O   H1  H2  EPW O   H1  H2  EPW O   H1  H2  EPW O   H1  H2  EPW O   H1  H2  
EPW O   H1  H2  EPW O   H1  H2  EPW O   H1  H2  EPW O   H1  H2  EPW O   H1  H2  
EPW O   H1  H2  EPW O   H1  H2  EPW O   H1  H2  EPW O   H1  H2  EPW O   H1  H2  
EPW O   H1  H2  EPW O   H1  H2  EPW O   H1  H2  EPW O   H1  H2  EPW O   H1  H2  
EPW O   H1  H2  EPW O   H1  H2  EPW O   H1  H2  EPW O   H1  H2  EPW O   H1  H2  
EPW O   H1  H2  EPW O   H1  H2  EPW O   H1  H2  EPW O   H1  H2  EPW O   H1  H2  
EPW O   H1  H2  EPW O   H1  H2  EPW O   H1  H2  EPW O   H1  H2  EPW O   H1  H2  
EPW O   H1  H2  EPW O   H1  H2  EPW O   H1  H2  EPW O   H1  H2  EPW O   H1  H2  
EPW O   H1  H2  EPW O   H1  H2  EPW O   H1  H2  EPW O   H1  H2  EPW O   H1  H2  
EPW O   H1  H2  EPW O   H1  H2  EPW O   H1  H2  EPW O   H1  H2  EPW O   H1  H2  
EPW O   H1  H2  EPW O   H1  H2  EPW O   H1  H2  EPW O   H1  H2  EPW O   H1  H2  
EPW O   H1  H2  EPW O   H1  H2  EPW O   H1  H2  EPW O   H1  H2  EPW O   H1  H2  
EPW O   H1  H2  EPW O   H1  H2  EPW O   H1  H2  EPW O   H1  H2  EPW O   H1  H2  
EPW O   H1  H2  EPW O   H1  H2  EPW O   H1  H2  EPW O   H1  H2  EPW O   H1  H2  
EPW O   H1  H2  EPW O   H1  H2  EPW O   H1  H2  EPW O   H1  H2  EPW O   H1  H2  
EPW O   H1  H2  EPW O   H1  H2  EPW O   H1  H2  EPW O   H1  H2  EPW O   H1  H2  
EPW O   H1  H2  EPW O   H1  H2  EPW O   H1  H2  EPW O   H1  H2  EPW O   H1  H2  
EPW O   H1  H2  EPW O   H1  H2  EPW O   H1  H2  EPW O   H1  H2  EPW O   H1  H2  
EPW O   H1  H2  EPW O   H1  H2  EPW O   H1  H2  EPW O   H1  H2  EPW O   H1  H2  
EPW O   H1  H2  EPW O   H1  H2  EPW O   H1  H2  EPW O   H1  H2  EPW O   H1  H2  
EPW O   H1  H2  EPW O   H1  H2  EPW O   H1  H2  EPW O   H1  H2  EPW O   H1  H2  
EPW O   H1  H2  EPW O   H1  H2  EPW O   H1  H2  EPW O   H1  H2  EPW O   H1  H2  
EPW O   H1  H2  EPW O   H1  H2  EPW O   H1  H2  EPW O   H1  H2  EPW O   H1  H2  
EPW O   H1  H2  EPW O   H1  H2  EPW O   H1  H2  EPW O   H1  H2  EPW O   H1  H2  
EPW O   H1  H2  EPW O   H1  H2  EPW O   H1  H2  EPW O   H1  H2  EPW O   H1  H2  
EPW O   H1  H2  EPW O   H1  H2  EPW O   H1  H2  EPW O   H1  H2  EPW O   H1  H2  
EPW O   H1  H2  EPW O   H1  H2  EPW O   H1  H2  EPW O   H1  H2  EPW O   H1  H2  
EPW O   H1  H2  EPW O   H1  H2  EPW O   H1  H2  EPW O   H1  H2  EPW O   H1  H2  
EPW O   H1  H2  EPW O   H1  H2  EPW O   H1  H2  EPW O   H1  H2  EPW O   H1  H2  
EPW O   H1  H2  EPW O   H1  H2  EPW O   H1  H2  EPW O   H1  H2  EPW O   H1  H2  
EPW O   H1  H2  EPW O   H1  H2  EPW O   H1  H2  EPW O   H1  H2  EPW O   H1  H2  
EPW O   H1  H2  EPW O   H1  H2  EPW O   H1  H2  EPW O   H1  H2  EPW O   H1  H2  
EPW O   H1  H2  EPW O   H1  H2  EPW O   H1  H2  EPW O   H1  H2  EPW O   H1  H2  
EPW O   H1  H2  EPW O   H1  H2  EPW O   H1  H2  EPW O   H1  H2  EPW O   H1  H2  
EPW O   H1  H2  EPW O   H1  H2  EPW O   H1  H2  EPW O   H1  H2  EPW O   H1  H2  
EPW O   H1  H2  EPW O   H1  H2  EPW O   H1  H2  EPW O   H1  H2  EPW O   H1  H2  
EPW O   H1  H2  EPW O   H1  H2  EPW O   H1  H2  EPW O   H1  H2  EPW O   H1  H2  
EPW O   H1  H2  EPW O   H1  H2  EPW O   H1  H2  EPW O   H1  H2  EPW O   H1  H2  
EPW O   H1  H2  EPW O   H1  H2  EPW O   H1  H2  EPW O   H1  H2  EPW O   H1  H2  
EPW O   H1  H2  EPW O   H1  H2  EPW O   H1  H2  EPW O   H1  H2  EPW O   H1  H2  
EPW O   H1  H2  EPW O   H1  H2  EPW O   H1  H2  EPW O   H1  H2  EPW O   H1  H2  
EPW O   H1  H2  EPW O   H1  H2  EPW O   H1  H2  EPW O   H1  H2  EPW O   H1  H2  
EPW O   H1  H2  EPW O   H1  H2  EPW O   H1  H2  EPW O   H1  H2  EPW O   H1  H2  
EPW O   H1  H2  EPW O   H1  H2  EPW O   H1  H2  EPW O   H1  H2  EPW O   H1  H2  
EPW O   H1  H2  EPW O   H1  H2  EPW O   H1  H2  EPW O   H1  H2  EPW O   H1  H2  
EPW O   H1  H2  EPW O   H1  H2  EPW O   H1  H2  EPW O   H1  H2  EPW O   H1  H2  
EPW O   H1  H2  EPW O   H1  H2  EPW O   H1  H2  EPW O   H1  H2  EPW O   H1  H2  
EPW O   H1  H2  EPW O   H1  H2  EPW O   H1  H2  EPW O   H1  H2  EPW O   H1  H2  
EPW O   H1  H2  EPW O   H1  H2  EPW O   H1  H2  EPW O   H1  H2  EPW O   H1  H2  
EPW O   H1  H2  EPW O   H1  H2  EPW O   H1  H2  EPW O   H1  H2  EPW O   H1  H2  
EPW O   H1  H2  EPW O   H1  H2  EPW O   H1  H2  EPW O   H1  H2  EPW O   H1  H2  
EPW O   H1  H2  EPW O   H1  H2  EPW O   H1  H2  EPW O   H1  H2  EPW O   H1  H2  
EPW O   H1  H2  EPW O   H1  H2  EPW O   H1  H2  EPW O   H1  H2  EPW O   H1  H2  
EPW O   H1  H2  EPW O   H1  H2  EPW O   H1  H2  EPW O   H1  H2  EPW O   H1  H2  
EPW O   H1  H2  EPW O   H1  H2  EPW O   H1  H2  EPW O   H1  H2  EPW O   H1  H2  
EPW O   H1  H2  EPW O   H1  H2  EPW O   H1  H2  EPW O   H1  H2  EPW O   H1  H2  
EPW O   H1  H2  EPW O   H1  H2  EPW O   H1  H2  EPW O   H1  H2  EPW O   H1  H2  
EPW O   H1  H2  EPW O   H1  H2  EPW O   H1  H2  EPW O   H1  H2  EPW O   H1  H2  
EPW O   H1  H2  EPW O   H1  H2  EPW O   H1  H2  EPW O   H1  H2  EPW O   H1  H2  
EPW O   H1  H2  EPW O   H1  H2  EPW O   H1  H2  EPW O   H1  H2  EPW O   H1  H2  
EPW O   H1  H2  EPW O   H1  H2  EPW O   H1  H2  EPW O   H1  H2  EPW O   H1  H2  
EPW O   H1  H2  EPW O   H1  H2  EPW O   H1  H2  EPW O   H1  H2  EPW O   H1  H2  
EPW O   H1  H2  EPW O   H1  H2  EPW O   H1  H2  EPW O   H1  H2  EPW O   H1  H2  
EPW O   H1  H2  EPW O   H1  H2  EPW O   H1  H2  EPW O   H1  H2  EPW O   H1  H2  
EPW O   H1  H2  EPW O   H1  H2  EPW O   H1  H2  EPW O   H1  H2  EPW O   H1  H2  
EPW O   H1  H2  EPW O   H1  H2  EPW O   H1  H2  EPW O   H1  H2  EPW O   H1  H2  
EPW O   H1  H2  EPW O   H1  H2  EPW O   H1  H2  EPW O   H1  H2  EPW O   H1  H2  
EPW O   H1  H2  EPW O   H1  H2  EPW O   H1  H2  EPW O   H1  H2  EPW O   H1  H2  
EPW O   H1  H2  EPW O   H1  H2  EPW O   H1  H2  EPW O   H1  H2  EPW O   H1  H2  
EPW O   H1  H2  EPW O   H1  H2  EPW O   H1  H2  EPW O   H1  H2  EPW O   H1  H2  
EPW O   H1  H2  EPW O   H1  H2  EPW O   H1  H2  EPW O   H1  H2  EPW O   H1  H2  
EPW O   H1  H2  EPW O   H1  H2  EPW O   H1  H2  EPW O   H1  H2  EPW O   H1  H2  
EPW O   H1  H2  EPW O   H1  H2  EPW O   H1  H2  EPW O   H1  H2  EPW O   H1  H2  
EPW O   H1  H2  EPW O   H1  H2  EPW O   H1  H2  EPW O   H1  H2  EPW O   H1  H2  
EPW O   H1  H2  EPW O   H1  H2  EPW O   H1  H2  EPW O   H1  H2  EPW O   H1  H2  
EPW O   H1  H2  EPW O   H1  H2  EPW O   H1  H2  EPW O   H1  H2  EPW O   H1  H2  
EPW O   H1  H2  EPW O   H1  H2  EPW O   H1  H2  EPW O   H1  H2  EPW O   H1  H2  
EPW O   H1  H2  EPW O   H1  H2  EPW O   H1  H2  EPW O   H1  H2  EPW O   H1  H2  
EPW O   H1  H2  EPW O   H1  H2  EPW O   H1  H2  EPW O   H1  H2  EPW O   H1  H2  
EPW O   H1  H2  EPW O   H1  H2  EPW O   H1  H2  EPW O   H1  H2  EPW O   H1  H2  
EPW O   H1  H2  EPW O   H1  H2  EPW O   H1  H2  EPW O   H1  H2  EPW O   H1  H2  
EPW O   H1  H2  EPW O   H1  H2  EPW O   H1  H2  EPW O   H1  H2  EPW O   H1  H2  
EPW O   H1  H2  EPW O   H1  H2  EPW O   H1  H2  EPW O   H1  H2  EPW O   H1  H2  
EPW O   H1  H2  EPW O   H1  H2  EPW O   H1  H2  EPW O   H1  H2  EPW O   H1  H2  
EPW O   H1  H2  EPW O   H1  H2  EPW O   H1  H2  EPW O   H1  H2  EPW O   H1  H2  
EPW O   H1  H2  EPW O   H1  H2  EPW O   H1  H2  EPW O   H1  H2  EPW O   H1  H2  
EPW O   H1  H2  EPW O   H1  H2  EPW O   H1  H2  EPW O   H1  H2  EPW O   H1  H2  
EPW O   H1  H2  EPW O   H1  H2  EPW O   H1  H2  EPW O   H1  H2  EPW O   H1  H2  
EPW O   H1  H2  EPW O   H1  H2  EPW O   H1  H2  EPW O   H1  H2  EPW O   H1  H2  
EPW O   H1  H2  EPW O   H1  H2  EPW O   H1  H2  EPW O   H1  H2  EPW O   H1  H2  
EPW O   H1  H2  EPW O   H1  H2  EPW O   H1  H2  EPW O   H1  H2  EPW O   H1  H2  
EPW O   H1  H2  EPW O   H1  H2  EPW O   H1  H2  EPW O   H1  H2  EPW O   H1  H2  
EPW O   H1  H2  EPW O   H1  H2  EPW O   H1  H2  EPW O   H1  H2  EPW O   H1  H2  
EPW O   H1  H2  EPW O   H1  H2  EPW O   H1  H2  EPW O   H1  H2  EPW O   H1  H2  
EPW O   H1  H2  EPW O   H1  H2  EPW O   H1  H2  EPW O   H1  H2  EPW O   H1  H2  
EPW O   H1  H2  EPW O   H1  H2  EPW O   H1  H2  EPW O   H1  H2  EPW O   H1  H2  
EPW O   H1  H2  EPW O   H1  H2  EPW O   H1  H2  EPW O   H1  H2  EPW O   H1  H2  
EPW O   H1  H2  EPW O   H1  H2  EPW O   H1  H2  EPW O   H1  H2  EPW O   H1  H2  
EPW O   H1  H2  EPW O   H1  H2  EPW O   H1  H2  EPW O   H1  H2  EPW O   H1  H2  
EPW O   H1  H2  EPW O   H1  H2  EPW O   H1  H2  EPW O   H1  H2  EPW O   H1  H2  
EPW O   H1  H2  EPW O   H1  H2  EPW O   H1  H2  EPW O   H1  H2  EPW O   H1  H2  
EPW O   H1  H2  EPW O   H1  H2  EPW O   H1  H2  EPW O   H1  H2  EPW O   H1  H2  
EPW O   H1  H2  EPW O   H1  H2  EPW O   H1  H2  EPW O   H1  H2  EPW O   H1  H2  
EPW O   H1  H2  EPW O   H1  H2  EPW O   H1  H2  EPW O   H1  H2  EPW O   H1  H2  
EPW O   H1  H2  EPW O   H1  H2  EPW O   H1  H2  EPW O   H1  H2  EPW O   H1  H2  
EPW O   H1  H2  EPW O   H1  H2  EPW O   H1  H2  EPW O   H1  H2  EPW O   H1  H2  
EPW O   H1  H2  EPW O   H1  H2  EPW O   H1  H2  EPW O   H1  H2  EPW O   H1  H2  
EPW O   H1  H2  EPW O   H1  H2  EPW O   H1  H2  EPW O   H1  H2  EPW O   H1  H2  
EPW O   H1  H2  EPW O   H1  H2  EPW O   H1  H2  EPW O   H1  H2  EPW O   H1  H2  
EPW O   H1  H2  EPW O   H1  H2  EPW O   H1  H2  EPW O   H1  H2  EPW O   H1  H2  
EPW O   H1  H2  EPW O   H1  H2  EPW O   H1  H2  EPW O   H1  H2  EPW O   H1  H2  
EPW O   H1  H2  EPW O   H1  H2  EPW O   H1  H2  EPW O   H1  H2  EPW O   H1  H2  
EPW O   H1  H2  EPW O   H1  H2  EPW O   H1  H2  EPW O   H1  H2  EPW O   H1  H2  
EPW O   H1  H2  EPW O   H1  H2  EPW O   H1  H2  EPW O   H1  H2  EPW O   H1  H2  
EPW O   H1  H2  EPW O   H1  H2  EPW O   H1  H2  EPW O   H1  H2  EPW O   H1  H2  
EPW O   H1  H2  EPW O   H1  H2  EPW O   H1  H2  EPW O   H1  H2  EPW O   H1  H2  
EPW O   H1  H2  EPW O   H1  H2  EPW O   H1  H2  EPW O   H1  H2  EPW O   H1  H2  
EPW O   H1  H2  EPW O   H1  H2  EPW O   H1  H2  EPW O   H1  H2  EPW O   H1  H2  
EPW O   H1  H2  EPW O   H1  H2  EPW O   H1  H2  EPW O   H1  H2  EPW O   H1  H2  
EPW O   H1  H2  EPW O   H1  H2  EPW O   H1  H2  EPW O   H1  H2  EPW O   H1  H2  
EPW O   H1  H2  EPW O   H1  H2  EPW O   H1  H2  EPW O   H1  H2  EPW O   H1  H2  
EPW O   H1  H2  EPW O   H1  H2  EPW O   H1  H2  EPW O   H1  H2  EPW O   H1  H2  
EPW O   H1  H2  EPW O   H1  H2  EPW O   H1  H2  EPW O   H1  H2  EPW O   H1  H2  
EPW O   H1  H2  EPW O   H1  H2  EPW O   H1  H2  EPW O   H1  H2  EPW O   H1  H2  
EPW O   H1  H2  EPW O   H1  H2  EPW O   H1  H2  EPW O   H1  H2  EPW O   H1  H2  
EPW O   H1  H2  EPW O   H1  H2  EPW O   H1  H2  EPW O   H1  H2  EPW O   H1  H2  
EPW O   H1  H2  EPW O   H1  H2  EPW O   H1  H2  EPW O   H1  H2  EPW O   H1  H2  
EPW O   H1  H2  EPW O   H1  H2  EPW O   H1  H2  EPW O   H1  H2  EPW O   H1  H2  
EPW O   H1  H2  EPW O   H1  H2  EPW O   H1  H2  EPW O   H1  H2  EPW O   H1  H2  
EPW O   H1  H2  EPW O   H1  H2  EPW O   H1  H2  EPW O   H1  H2  EPW O   H1  H2  
EPW O   H1  H2  EPW O   H1  H2  EPW O   H1  H2  EPW O   H1  H2  EPW O   H1  H2  
EPW O   H1  H2  EPW O   H1  H2  EPW O   H1  H2  EPW O   H1  H2  EPW O   H1  H2  
EPW O   H1  H2  EPW O   H1  H2  EPW O   H1  H2  EPW O   H1  H2  EPW O   H1  H2  
EPW O   H1  H2  EPW O   H1  H2  EPW O   H1  H2  EPW O   H1  H2  EPW O   H1  H2  
EPW O   H1  H2  EPW O   H1  H2  EPW O   H1  H2  EPW O   H1  H2  EPW O   H1  H2  
EPW O   H1  H2  EPW O   H1  H2  EPW O   H1  H2  EPW O   H1  H2  EPW O   H1  H2  
EPW O   H1  H2  EPW O   H1  H2  EPW O   H1  H2  EPW O   H1  H2  EPW O   H1  H2  
EPW O   H1  H2  EPW O   H1  H2  EPW O   H1  H2  EPW O   H1  H2  EPW O   H1  H2  
EPW O   H1  H2  EPW O   H1  H2  EPW O   H1  H2  EPW O   H1  H2  EPW O   H1  H2  
EPW O   H1  H2  EPW O   H1  H2  EPW O   H1  H2  EPW O   H1  H2  EPW O   H1  H2  
EPW O   H1  H2  EPW O   H1  H2  EPW O   H1  H2  EPW O   H1  H2  EPW O   H1  H2  
EPW O   H1  H2  EPW O   H1  H2  EPW O   H1  H2  EPW O   H1  H2  EPW O   H1  H2  
EPW O   H1  H2  EPW O   H1  H2  EPW O   H1  H2  EPW O   H1  H2  EPW O   H1  H2  
EPW O   H1  H2  EPW O   H1  H2  EPW O   H1  H2  EPW O   H1  H2  EPW O   H1  H2  
EPW O   H1  H2  EPW O   H1  H2  EPW O   H1  H2  EPW O   H1  H2  EPW O   H1  H2  
EPW O   H1  H2  EPW O   H1  H2  EPW O   H1  H2  EPW O   H1  H2  EPW O   H1  H2  
EPW O   H1  H2  EPW O   H1  H2  EPW O   H1  H2  EPW O   H1  H2  EPW O   H1  H2  
EPW O   H1  H2  EPW O   H1  H2  EPW O   H1  H2  EPW O   H1  H2  EPW O   H1  H2  
EPW O   H1  H2  EPW O   H1  H2  EPW O   H1  H2  EPW O   H1  H2  EPW O   H1  H2  
EPW O   H1  H2  EPW O   H1  H2  EPW O   H1  H2  EPW O   H1  H2  EPW O   H1  H2  
EPW O   H1  H2  EPW O   H1  H2  EPW O   H1  H2  EPW O   H1  H2  EPW O   H1  H2  
EPW O   H1  H2  EPW O   H1  H2  EPW O   H1  H2  EPW O   H1  H2  EPW O   H1  H2  
EPW O   H1  H2  EPW O   H1  H2  EPW O   H1  H2  EPW O   H1  H2  EPW O   H1  H2  
EPW O   H1  H2  EPW O   H1  H2  EPW O   H1  H2  EPW O   H1  H2  EPW O   H1  H2  
EPW O   H1  H2  EPW O   H1  H2  EPW O   H1  H2  EPW O   H1  H2  EPW O   H1  H2  
EPW O   H1  H2  EPW O   H1  H2  EPW O   H1  H2  EPW O   H1  H2  EPW O   H1  H2  
EPW O   H1  H2  EPW O   H1  H2  EPW O   H1  H2  EPW O   H1  H2  EPW O   H1  H2  
EPW O   H1  H2  EPW O   H1  H2  EPW O   H1  H2  EPW O   H1  H2  EPW O   H1  H2  
EPW O   H1  H2  EPW O   H1  H2  EPW O   H1  H2  EPW O   H1  H2  EPW O   H1  H2  
EPW O   H1  H2  EPW O   H1  H2  EPW O   H1  H2  EPW O   H1  H2  EPW O   H1  H2  
EPW O   H1  H2  EPW O   H1  H2  EPW O   H1  H2  EPW O   H1  H2  EPW O   H1  H2  
EPW O   H1  H2  EPW O   H1  H2  EPW O   H1  H2  EPW O   H1  H2  EPW O   H1  H2  
EPW O   H1  H2  EPW O   H1  H2  EPW O   H1  H2  EPW O   H1  H2  EPW O   H1  H2  
EPW O   H1  H2  EPW O   H1  H2  EPW O   H1  H2  EPW O   H1  H2  EPW O   H1  H2  
EPW O   H1  H2  EPW O   H1  H2  EPW O   H1  H2  EPW O   H1  H2  EPW O   H1  H2  
EPW O   H1  H2  EPW O   H1  H2  EPW O   H1  H2  EPW O   H1  H2  EPW O   H1  H2  
EPW O   H1  H2  EPW O   H1  H2  EPW O   H1  H2  EPW O   H1  H2  EPW O   H1  H2  
EPW O   H1  H2  EPW O   H1  H2  EPW O   H1  H2  EPW O   H1  H2  EPW O   H1  H2  
EPW O   H1  H2  EPW O   H1  H2  EPW O   H1  H2  EPW O   H1  H2  EPW O   H1  H2  
EPW O   H1  H2  EPW O   H1  H2  EPW O   H1  H2  EPW O   H1  H2  EPW O   H1  H2  
EPW O   H1  H2  EPW O   H1  H2  EPW O   H1  H2  EPW O   H1  H2  EPW O   H1  H2  
EPW O   H1  H2  EPW O   H1  H2  EPW O   H1  H2  EPW O   H1  H2  EPW O   H1  H2  
EPW O   H1  H2  EPW O   H1  H2  EPW O   H1  H2  EPW O   H1  H2  EPW O   H1  H2  
EPW O   H1  H2  EPW O   H1  H2  EPW O   H1  H2  EPW O   H1  H2  EPW O   H1  H2  
EPW O   H1  H2  EPW O   H1  H2  EPW O   H1  H2  EPW O   H1  H2  EPW O   H1  H2  
EPW O   H1  H2  EPW O   H1  H2  EPW O   H1  H2  EPW O   H1  H2  EPW O   H1  H2  
EPW O   H1  H2  EPW O   H1  H2  EPW O   H1  H2  EPW O   H1  H2  EPW O   H1  H2  
EPW O   H1  H2  EPW O   H1  H2  EPW O   H1  H2  EPW O   H1  H2  EPW O   H1  H2  
EPW O   H1  H2  EPW O   H1  H2  EPW O   H1  H2  EPW O   H1  H2  EPW O   H1  H2  
EPW O   H1  H2  EPW O   H1  H2  EPW O   H1  H2  EPW O   H1  H2  EPW O   H1  H2  
EPW O   H1  H2  EPW O   H1  H2  EPW O   H1  H2  EPW O   H1  H2  EPW O   H1  H2  
EPW O   H1  H2  EPW O   H1  H2  EPW O   H1  H2  EPW O   H1  H2  EPW O   H1  H2  
EPW O   H1  H2  EPW O   H1  H2  EPW O   H1  H2  EPW O   H1  H2  EPW O   H1  H2  
EPW O   H1  H2  EPW O   H1  H2  EPW O   H1  H2  EPW O   H1  H2  EPW O   H1  H2  
EPW O   H1  H2  EPW O   H1  H2  EPW O   H1  H2  EPW O   H1  H2  EPW O   H1  H2  
EPW O   H1  H2  EPW O   H1  H2  EPW O   H1  H2  EPW O   H1  H2  EPW O   H1  H2  
EPW O   H1  H2  EPW O   H1  H2  EPW O   H1  H2  EPW O   H1  H2  EPW O   H1  H2  
EPW O   H1  H2  EPW O   H1  H2  EPW O   H1  H2  EPW O   H1  H2  EPW O   H1  H2  
EPW O   H1  H2  EPW O   H1  H2  EPW O   H1  H2  EPW O   H1  H2  EPW O   H1  H2  
EPW O   H1  H2  EPW O   H1  H2  EPW O   H1  H2  EPW O   H1  H2  EPW O   H1  H2  
EPW O   H1  H2  EPW O   H1  H2  EPW O   H1  H2  EPW O   H1  H2  EPW O   H1  H2  
EPW O   H1  H2  EPW O   H1  H2  EPW O   H1  H2  EPW O   H1  H2  EPW O   H1  H2  
EPW O   H1  H2  EPW O   H1  H2  EPW O   H1  H2  EPW O   H1  H2  EPW O   H1  H2  
EPW O   H1  H2  EPW O   H1  H2  EPW O   H1  H2  EPW O   H1  H2  EPW O   H1  H2  
EPW O   H1  H2  EPW O   H1  H2  EPW O   H1  H2  EPW O   H1  H2  EPW O   H1  H2  
EPW O   H1  H2  EPW O   H1  H2  EPW O   H1  H2  EPW O   H1  H2  EPW O   H1  H2  
EPW O   H1  H2  EPW O   H1  H2  EPW O   H1  H2  EPW O   H1  H2  EPW O   H1  H2  
EPW O   H1  H2  EPW O   H1  H2  EPW O   H1  H2  EPW O   H1  H2  EPW O   H1  H2  
EPW O   H1  H2  EPW O   H1  H2  EPW O   H1  H2  EPW O   H1  H2  EPW O   H1  H2  
EPW O   H1  H2  EPW O   H1  H2  EPW O   H1  H2  EPW O   H1  H2  EPW O   H1  H2  
EPW O   H1  H2  EPW O   H1  H2  EPW O   H1  H2  EPW O   H1  H2  EPW O   H1  H2  
EPW O   H1  H2  EPW O   H1  H2  EPW O   H1  H2  EPW O   H1  H2  EPW O   H1  H2  
EPW O   H1  H2  EPW O   H1  H2  EPW O   H1  H2  EPW O   H1  H2  EPW O   H1  H2  
EPW O   H1  H2  EPW O   H1  H2  EPW O   H1  H2  EPW O   H1  H2  EPW O   H1  H2  
EPW O   H1  H2  EPW O   H1  H2  EPW O   H1  H2  EPW O   H1  H2  EPW O   H1  H2  
EPW O   H1  H2  EPW O   H1  H2  EPW O   H1  H2  EPW O   H1  H2  EPW O   H1  H2  
EPW O   H1  H2  EPW O   H1  H2  EPW O   H1  H2  EPW O   H1  H2  EPW O   H1  H2  
EPW O   H1  H2  EPW O   H1  H2  EPW O   H1  H2  EPW O   H1  H2  EPW O   H1  H2  
EPW O   H1  H2  EPW O   H1  H2  EPW O   H1  H2  EPW O   H1  H2  EPW O   H1  H2  
EPW O   H1  H2  EPW O   H1  H2  EPW O   H1  H2  EPW O   H1  H2  EPW O   H1  H2  
EPW O   H1  H2  EPW O   H1  H2  EPW O   H1  H2  EPW O   H1  H2  EPW O   H1  H2  
EPW O   H1  H2  EPW O   H1  H2  EPW O   H1  H2  EPW O   H1  H2  EPW O   H1  H2  
EPW O   H1  H2  EPW O   H1  H2  EPW O   H1  H2  EPW O   H1  H2  EPW O   H1  H2  
EPW O   H1  H2  EPW O   H1  H2  EPW O   H1  H2  EPW O   H1  H2  EPW O   H1  H2  
EPW O   H1  H2  EPW O   H1  H2  EPW O   H1  H2  EPW O   H1  H2  EPW O   H1  H2  
EPW O   H1  H2  EPW O   H1  H2  EPW O   H1  H2  EPW O   H1  H2  EPW O   H1  H2  
EPW O   H1  H2  EPW O   H1  H2  EPW O   H1  H2  EPW O   H1  H2  EPW O   H1  H2  
EPW O   H1  H2  EPW O   H1  H2  EPW O   H1  H2  EPW O   H1  H2  EPW O   H1  H2  
EPW O   H1  H2  EPW O   H1  H2  EPW O   H1  H2  EPW O   H1  H2  EPW O   H1  H2  
EPW O   H1  H2  EPW O   H1  H2  EPW O   H1  H2  EPW O   H1  H2  EPW O   H1  H2  
EPW O   H1  H2  EPW O   H1  H2  EPW O   H1  H2  EPW O   H1  H2  EPW O   H1  H2  
EPW O   H1  H2  EPW O   H1  H2  EPW O   H1  H2  EPW O   H1  H2  EPW O   H1  H2  
EPW O   H1  H2  EPW O   H1  H2  EPW O   H1  H2  EPW O   H1  H2  EPW O   H1  H2  
EPW O   H1  H2  EPW O   H1  H2  EPW O   H1  H2  EPW O   H1  H2  EPW O   H1  H2  
EPW O   H1  H2  EPW O   H1  H2  EPW O   H1  H2  EPW O   H1  H2  EPW O   H1  H2  
EPW O   H1  H2  EPW O   H1  H2  EPW O   H1  H2  EPW O   H1  H2  EPW O   H1  H2  
EPW O   H1  H2  EPW O   H1  H2  EPW O   H1  H2  EPW O   H1  H2  EPW O   H1  H2  
EPW O   H1  H2  EPW O   H1  H2  EPW O   H1  H2  EPW O   H1  H2  EPW O   H1  H2  
EPW O   H1  H2  EPW O   H1  H2  EPW O   H1  H2  EPW O   H1  H2  EPW O   H1  H2  
EPW O   H1  H2  EPW O   H1  H2  EPW O   H1  H2  EPW O   H1  H2  EPW O   H1  H2  
EPW O   H1  H2  EPW O   H1  H2  EPW O   H1  H2  EPW O   H1  H2  EPW O   H1  H2  
EPW O   H1  H2  EPW O   H1  H2  EPW O   H1  H2  EPW O   H1  H2  EPW O   H1  H2  
EPW O   H1  H2  EPW O   H1  H2  EPW O   H1  H2  EPW O   H1  H2  EPW O   H1  H2  
EPW O   H1  H2  EPW O   H1  H2  EPW O   H1  H2  EPW O   H1  H2  EPW O   H1  H2  
EPW O   H1  H2  EPW O   H1  H2  EPW O   H1  H2  EPW O   H1  H2  EPW O   H1  H2  
EPW O   H1  H2  EPW O   H1  H2  EPW O   H1  H2  EPW O   H1  H2  EPW O   H1  H2  
EPW O   H1  H2  EPW O   H1  H2  EPW O   H1  H2  EPW O   H1  H2  EPW O   H1  H2  
EPW O   H1  H2  EPW O   H1  H2  EPW O   H1  H2  EPW O   H1  H2  EPW O   H1  H2  
EPW O   H1  H2  EPW O   H1  H2  EPW O   H1  H2  EPW O   H1  H2  EPW O   H1  H2  
EPW O   H1  H2  EPW O   H1  H2  EPW O   H1  H2  EPW O   H1  H2  EPW O   H1  H2  
EPW O   H1  H2  EPW O   H1  H2  EPW O   H1  H2  EPW O   H1  H2  EPW O   H1  H2  
EPW O   H1  H2  EPW O   H1  H2  EPW O   H1  H2  EPW O   H1  H2  EPW O   H1  H2  
EPW O   H1  H2  EPW O   H1  H2  EPW O   H1  H2  EPW O   H1  H2  EPW O   H1  H2  
EPW O   H1  H2  EPW O   H1  H2  EPW O   H1  H2  EPW O   H1  H2  EPW O   H1  H2  
EPW O   H1  H2  EPW O   H1  H2  EPW O   H1  H2  EPW O   H1  H2  EPW O   H1  H2  
EPW O   H1  H2  EPW O   H1  H2  EPW O   H1  H2  EPW O   H1  H2  EPW O   H1  H2  
EPW O   H1  H2  EPW O   H1  H2  EPW O   H1  H2  EPW O   H1  H2  EPW O   H1  H2  
EPW O   H1  H2  EPW O   H1  H2  EPW O   H1  H2  EPW O   H1  H2  EPW O   H1  H2  
EPW O   H1  H2  EPW O   H1  H2  EPW O   H1  H2  EPW O   H1  H2  EPW O   H1  H2  
EPW O   H1  H2  EPW O   H1  H2  EPW O   H1  H2  EPW O   H1  H2  EPW O   H1  H2  
EPW O   H1  H2  EPW O   H1  H2  EPW O   H1  H2  EPW O   H1  H2  EPW O   H1  H2  
EPW O   H1  H2  EPW O   H1  H2  EPW O   H1  H2  EPW O   H1  H2  EPW O   H1  H2  
EPW O   H1  H2  EPW O   H1  H2  EPW O   H1  H2  EPW O   H1  H2  EPW O   H1  H2  
EPW O   H1  H2  EPW O   H1  H2  EPW O   H1  H2  EPW O   H1  H2  EPW O   H1  H2  
EPW O   H1  H2  EPW O   H1  H2  EPW O   H1  H2  EPW O   H1  H2  EPW O   H1  H2  
EPW O   H1  H2  EPW O   H1  H2  EPW O   H1  H2  EPW O   H1  H2  EPW O   H1  H2  
EPW O   H1  H2  EPW O   H1  H2  EPW O   H1  H2  EPW O   H1  H2  EPW O   H1  H2  
EPW O   H1  H2  EPW O   H1  H2  EPW O   H1  H2  EPW O   H1  H2  EPW O   H1  H2  
EPW O   H1  H2  EPW O   H1  H2  EPW O   H1  H2  EPW O   H1  H2  EPW O   H1  H2  
EPW O   H1  H2  EPW O   H1  H2  EPW O   H1  H2  EPW O   H1  H2  EPW O   H1  H2  
EPW O   H1  H2  EPW O   H1  H2  EPW O   H1  H2  EPW O   H1  H2  EPW O   H1  H2  
EPW O   H1  H2  EPW O   H1  H2  EPW O   H1  H2  EPW O   H1  H2  EPW O   H1  H2  
EPW O   H1  H2  EPW O   H1  H2  EPW O   H1  H2  EPW O   H1  H2  EPW O   H1  H2  
EPW O   H1  H2  EPW O   H1  H2  EPW O   H1  H2  EPW O   H1  H2  EPW O   H1  H2  
EPW O   H1  H2  EPW O   H1  H2  EPW O   H1  H2  EPW O   H1  H2  EPW O   H1  H2  
EPW O   H1  H2  EPW O   H1  H2  EPW O   H1  H2  EPW O   H1  H2  EPW O   H1  H2  
EPW O   H1  H2  EPW O   H1  H2  EPW O   H1  H2  EPW O   H1  H2  EPW O   H1  H2  
EPW O   H1  H2  EPW O   H1  H2  EPW O   H1  H2  EPW O   H1  H2  EPW O   H1  H2  
EPW O   H1  H2  EPW O   H1  H2  EPW O   H1  H2  EPW O   H1  H2  EPW O   H1  H2  
EPW O   H1  H2  EPW O   H1  H2  EPW O   H1  H2  EPW O   H1  H2  EPW O   H1  H2  
EPW O   H1  H2  EPW O   H1  H2  EPW O   H1  H2  EPW O   H1  H2  EPW O   H1  H2  
EPW O   H1  H2  EPW O   H1  H2  EPW O   H1  H2  EPW O   H1  H2  EPW O   H1  H2  
EPW O   H1  H2  EPW O   H1  H2  EPW O   H1  H2  EPW O   H1  H2  EPW O   H1  H2  
EPW O   H1  H2  EPW O   H1  H2  EPW O   H1  H2  EPW O   H1  H2  EPW O   H1  H2  
EPW O   H1  H2  EPW O   H1  H2  EPW O   H1  H2  EPW O   H1  H2  EPW O   H1  H2  
EPW O   H1  H2  EPW O   H1  H2  EPW O   H1  H2  EPW O   H1  H2  EPW O   H1  H2  
EPW O   H1  H2  EPW O   H1  H2  EPW O   H1  H2  EPW O   H1  H2  EPW O   H1  H2  
EPW O   H1  H2  EPW O   H1  H2  EPW O   H1  H2  EPW O   H1  H2  EPW O   H1  H2  
EPW O   H1  H2  EPW O   H1  H2  EPW O   H1  H2  EPW O   H1  H2  EPW O   H1  H2  
EPW O   H1  H2  EPW O   H1  H2  EPW O   H1  H2  EPW O   H1  H2  EPW O   H1  H2  
EPW O   H1  H2  EPW O   H1  H2  EPW O   H1  H2  EPW O   H1  H2  EPW O   H1  H2  
EPW O   H1  H2  EPW O   H1  H2  EPW O   H1  H2  EPW O   H1  H2  EPW O   H1  H2  
EPW O   H1  H2  EPW O   H1  H2  EPW O   H1  H2  EPW O   H1  H2  EPW O   H1  H2  
EPW O   H1  H2  EPW O   H1  H2  EPW O   H1  H2  EPW O   H1  H2  EPW O   H1  H2  
EPW O   H1  H2  EPW O   H1  H2  EPW O   H1  H2  EPW O   H1  H2  EPW O   H1  H2  
EPW O   H1  H2  EPW O   H1  H2  EPW O   H1  H2  EPW O   H1  H2  EPW O   H1  H2  
EPW O   H1  H2  EPW O   H1  H2  EPW O   H1  H2  EPW O   H1  H2  EPW O   H1  H2  
EPW O   H1  H2  EPW O   H1  H2  EPW O   H1  H2  EPW O   H1  H2  EPW O   H1  H2  
EPW O   H1  H2  EPW O   H1  H2  EPW O   H1  H2  EPW O   H1  H2  EPW O   H1  H2  
EPW O   H1  H2  EPW O   H1  H2  EPW O   H1  H2  EPW O   H1  H2  EPW O   H1  H2  
EPW O   H1  H2  EPW O   H1  H2  EPW O   H1  H2  EPW O   H1  H2  EPW O   H1  H2  
EPW O   H1  H2  EPW O   H1  H2  EPW O   H1  H2  EPW O   H1  H2  EPW O   H1  H2  
EPW O   H1  H2  EPW O   H1  H2  EPW O   H1  H2  EPW O   H1  H2  EPW O   H1  H2  
EPW O   H1  H2  EPW O   H1  H2  EPW O   H1  H2  EPW O   H1  H2  EPW O   H1  H2  
EPW O   H1  H2  EPW O   H1  H2  EPW O   H1  H2  EPW O   H1  H2  EPW O   H1  H2  
EPW O   H1  H2  EPW O   H1  H2  EPW O   H1  H2  EPW O   H1  H2  EPW O   H1  H2  
EPW O   H1  H2  EPW O   H1  H2  EPW O   H1  H2  EPW O   H1  H2  EPW O   H1  H2  
EPW O   H1  H2  EPW O   H1  H2  EPW O   H1  H2  EPW O   H1  H2  EPW O   H1  H2  
EPW O   H1  H2  EPW O   H1  H2  EPW O   H1  H2  EPW O   H1  H2  EPW O   H1  H2  
EPW O   H1  H2  EPW O   H1  H2  EPW O   H1  H2  EPW O   H1  H2  EPW O   H1  H2  
EPW O   H1  H2  EPW O   H1  H2  EPW O   H1  H2  EPW O   H1  H2  EPW O   H1  H2  
EPW O   H1  H2  EPW O   H1  H2  EPW O   H1  H2  EPW O   H1  H2  EPW O   H1  H2  
EPW O   H1  H2  EPW O   H1  H2  EPW O   H1  H2  EPW O   H1  H2  EPW O   H1  H2  
EPW O   H1  H2  EPW O   H1  H2  EPW O   H1  H2  EPW O   H1  H2  EPW O   H1  H2  
EPW O   H1  H2  EPW O   H1  H2  EPW O   H1  H2  EPW O   H1  H2  EPW O   H1  H2  
EPW O   H1  H2  EPW O   H1  H2  EPW O   H1  H2  EPW O   H1  H2  EPW O   H1  H2  
EPW O   H1  H2  EPW O   H1  H2  EPW O   H1  H2  EPW O   H1  H2  EPW O   H1  H2  
EPW O   H1  H2  EPW O   H1  H2  EPW O   H1  H2  EPW O   H1  H2  EPW O   H1  H2  
EPW O   H1  H2  EPW O   H1  H2  EPW O   H1  H2  EPW O   H1  H2  EPW O   H1  H2  
EPW O   H1  H2  EPW O   H1  H2  EPW O   H1  H2  EPW O   H1  H2  EPW O   H1  H2  
EPW O   H1  H2  EPW O   H1  H2  EPW O   H1  H2  EPW O   H1  H2  EPW O   H1  H2  
EPW O   H1  H2  EPW O   H1  H2  EPW O   H1  H2  EPW O   H1  H2  EPW O   H1  H2  
EPW O   H1  H2  EPW O   H1  H2  EPW O   H1  H2  EPW O   H1  H2  EPW O   H1  H2  
EPW O   H1  H2  EPW O   H1  H2  EPW O   H1  H2  EPW O   H1  H2  EPW O   H1  H2  
EPW O   H1  H2  EPW O   H1  H2  EPW O   H1  H2  EPW O   H1  H2  EPW O   H1  H2  
EPW O   H1  H2  EPW O   H1  H2  EPW O   H1  H2  EPW O   H1  H2  EPW O   H1  H2  
EPW O   H1  H2  EPW O   H1  H2  EPW O   H1  H2  EPW O   H1  H2  EPW O   H1  H2  
EPW O   H1  H2  EPW O   H1  H2  EPW O   H1  H2  EPW O   H1  H2  EPW O   H1  H2  
EPW O   H1  H2  EPW O   H1  H2  EPW O   H1  H2  EPW O   H1  H2  EPW O   H1  H2  
EPW O   H1  H2  EPW O   H1  H2  EPW O   H1  H2  EPW O   H1  H2  EPW O   H1  H2  
EPW O   H1  H2  EPW O   H1  H2  EPW O   H1  H2  EPW O   H1  H2  EPW O   H1  H2  
EPW O   H1  H2  EPW O   H1  H2  EPW O   H1  H2  EPW O   H1  H2  EPW O   H1  H2  
EPW O   H1  H2  EPW O   H1  H2  EPW O   H1  H2  EPW O   H1  H2  EPW O   H1  H2  
EPW O   H1  H2  EPW O   H1  H2  EPW O   H1  H2  EPW O   H1  H2  EPW O   H1  H2  
EPW O   H1  H2  EPW O   H1  H2  EPW O   H1  H2  EPW O   H1  H2  EPW O   H1  H2  
EPW O   H1  H2  EPW O   H1  H2  EPW O   H1  H2  EPW O   H1  H2  EPW O   H1  H2  
EPW O   H1  H2  EPW O   H1  H2  EPW O   H1  H2  EPW O   H1  H2  EPW O   H1  H2  
EPW O   H1  H2  EPW O   H1  H2  EPW O   H1  H2  EPW O   H1  H2  EPW O   H1  H2  
EPW O   H1  H2  EPW O   H1  H2  EPW O   H1  H2  EPW O   H1  H2  EPW O   H1  H2  
EPW O   H1  H2  EPW O   H1  H2  EPW O   H1  H2  EPW O   H1  H2  EPW O   H1  H2  
EPW O   H1  H2  EPW O   H1  H2  EPW O   H1  H2  EPW O   H1  H2  EPW O   H1  H2  
EPW O   H1  H2  EPW O   H1  H2  EPW O   H1  H2  EPW O   H1  H2  EPW O   H1  H2  
EPW O   H1  H2  EPW O   H1  H2  EPW O   H1  H2  EPW O   H1  H2  EPW O   H1  H2  
EPW O   H1  H2  EPW O   H1  H2  EPW O   H1  H2  EPW O   H1  H2  EPW O   H1  H2  
EPW O   H1  H2  EPW O   H1  H2  EPW O   H1  H2  EPW O   H1  H2  EPW O   H1  H2  
EPW O   H1  H2  EPW O   H1  H2  EPW O   H1  H2  EPW O   H1  H2  EPW O   H1  H2  
EPW O   H1  H2  EPW O   H1  H2  EPW O   H1  H2  EPW O   H1  H2  EPW O   H1  H2  
EPW O   H1  H2  EPW O   H1  H2  EPW O   H1  H2  EPW O   H1  H2  EPW O   H1  H2  
EPW O   H1  H2  EPW O   H1  H2  EPW O   H1  H2  EPW O   H1  H2  EPW O   H1  H2  
EPW O   H1  H2  EPW O   H1  H2  EPW O   H1  H2  EPW O   H1  H2  EPW O   H1  H2  
EPW O   H1  H2  EPW O   H1  H2  EPW O   H1  H2  EPW O   H1  H2  EPW O   H1  H2  
EPW O   H1  H2  EPW O   H1  H2  EPW O   H1  H2  EPW O   H1  H2  EPW O   H1  H2  
EPW O   H1  H2  EPW O   H1  H2  EPW O   H1  H2  EPW O   H1  H2  EPW O   H1  H2  
EPW O   H1  H2  EPW O   H1  H2  EPW O   H1  H2  EPW O   H1  H2  EPW O   H1  H2  
EPW O   H1  H2  EPW O   H1  H2  EPW O   H1  H2  EPW O   H1  H2  EPW O   H1  H2  
EPW O   H1  H2  EPW O   H1  H2  EPW O   H1  H2  EPW O   H1  H2  EPW O   H1  H2  
EPW O   H1  H2  EPW O   H1  H2  EPW O   H1  H2  EPW O   H1  H2  EPW O   H1  H2  
EPW O   H1  H2  EPW O   H1  H2  EPW O   H1  H2  EPW O   H1  H2  EPW O   H1  H2  
EPW O   H1  H2  EPW O   H1  H2  EPW O   H1  H2  EPW O   H1  H2  EPW O   H1  H2  
EPW O   H1  H2  EPW O   H1  H2  EPW O   H1  H2  EPW O   H1  H2  EPW O   H1  H2  
EPW O   H1  H2  EPW O   H1  H2  EPW O   H1  H2  EPW O   H1  H2  EPW O   H1  H2  
EPW O   H1  H2  EPW O   H1  H2  EPW O   H1  H2  EPW O   H1  H2  EPW O   H1  H2  
EPW O   H1  H2  EPW O   H1  H2  EPW O   H1  H2  EPW O   H1  H2  EPW O   H1  H2  
EPW O   H1  H2  EPW O   H1  H2  EPW O   H1  H2  EPW O   H1  H2  EPW O   H1  H2  
EPW O   H1  H2  EPW O   H1  H2  EPW O   H1  H2  EPW O   H1  H2  EPW O   H1  H2  
EPW O   H1  H2  EPW O   H1  H2  EPW O   H1  H2  EPW O   H1  H2  EPW O   H1  H2  
EPW O   H1  H2  EPW O   H1  H2  EPW O   H1  H2  EPW O   H1  H2  EPW O   H1  H2  
EPW O   H1  H2  EPW O   H1  H2  EPW O   H1  H2  EPW O   H1  H2  EPW O   H1  H2  
EPW O   H1  H2  EPW O   H1  H2  EPW O   H1  H2  EPW O   H1  H2  EPW O   H1  H2  
EPW O   H1  H2  EPW O   H1  H2  EPW O   H1  H2  EPW O   H1  H2  EPW O   H1  H2  
EPW O   H1  H2  EPW O   H1  H2  EPW O   H1  H2  EPW O   H1  H2  EPW O   H1  H2  
EPW O   H1  H2  EPW O   H1  H2  EPW O   H1  H2  EPW O   H1  H2  EPW O   H1  H2  
EPW O   H1  H2  EPW O   H1  H2  EPW O   H1  H2  EPW O   H1  H2  EPW O   H1  H2  
EPW O   H1  H2  EPW O   H1  H2  EPW O   H1  H2  EPW O   H1  H2  EPW O   H1  H2  
EPW O   H1  H2  EPW O   H1  H2  EPW O   H1  H2  EPW O   H1  H2  EPW O   H1  H2  
EPW O   H1  H2  EPW O   H1  H2  EPW O   H1  H2  EPW O   H1  H2  EPW O   H1  H2  
EPW O   H1  H2  EPW O   H1  H2  EPW O   H1  H2  EPW O   H1  H2  EPW O   H1  H2  
EPW O   H1  H2  EPW O   H1  H2  EPW O   H1  H2  EPW O   H1  H2  EPW O   H1  H2  
EPW O   H1  H2  EPW O   H1  H2  EPW O   H1  H2  EPW O   H1  H2  EPW O   H1  H2  
EPW O   H1  H2  EPW O   H1  H2  EPW O   H1  H2  EPW O   H1  H2  EPW O   H1  H2  
EPW O   H1  H2  EPW O   H1  H2  EPW O   H1  H2  EPW O   H1  H2  EPW O   H1  H2  
EPW O   H1  H2  EPW O   H1  H2  EPW O   H1  H2  EPW O   H1  H2  EPW O   H1  H2  
EPW O   H1  H2  EPW O   H1  H2  EPW O   H1  H2  EPW O   H1  H2  EPW O   H1  H2  
EPW O   H1  H2  EPW O   H1  H2  EPW O   H1  H2  EPW O   H1  H2  EPW O   H1  H2  
EPW O   H1  H2  EPW O   H1  H2  EPW O   H1  H2  EPW O   H1  H2  EPW O   H1  H2  
EPW O   H1  H2  EPW O   H1  H2  EPW O   H1  H2  EPW O   H1  H2  EPW O   H1  H2  
EPW O   H1  H2  EPW O   H1  H2  EPW O   H1  H2  EPW O   H1  H2  EPW O   H1  H2  
EPW O   H1  H2  EPW O   H1  H2  EPW O   H1  H2  EPW O   H1  H2  EPW O   H1  H2  
EPW O   H1  H2  EPW O   H1  H2  EPW O   H1  H2  EPW O   H1  H2  EPW O   H1  H2  
EPW O   H1  H2  EPW O   H1  H2  EPW O   H1  H2  EPW O   H1  H2  EPW O   H1  H2  
EPW O   H1  H2  EPW O   H1  H2  EPW O   H1  H2  EPW O   H1  H2  EPW O   H1  H2  
EPW O   H1  H2  EPW O   H1  H2  EPW O   H1  H2  EPW O   H1  H2  EPW O   H1  H2  
EPW O   H1  H2  EPW O   H1  H2  EPW O   H1  H2  EPW O   H1  H2  EPW O   H1  H2  
EPW O   H1  H2  EPW O   H1  H2  EPW O   H1  H2  EPW O   H1  H2  EPW O   H1  H2  
EPW O   H1  H2  EPW O   H1  H2  EPW O   H1  H2  EPW O   H1  H2  EPW O   H1  H2  
EPW O   H1  H2  EPW O   H1  H2  EPW O   H1  H2  EPW O   H1  H2  EPW O   H1  H2  
EPW O   H1  H2  EPW O   H1  H2  EPW O   H1  H2  EPW O   H1  H2  EPW O   H1  H2  
EPW O   H1  H2  EPW O   H1  H2  EPW O   H1  H2  EPW O   H1  H2  EPW O   H1  H2  
EPW O   H1  H2  EPW O   H1  H2  EPW O   H1  H2  EPW O   H1  H2  EPW O   H1  H2  
EPW O   H1  H2  EPW O   H1  H2  EPW O   H1  H2  EPW O   H1  H2  EPW O   H1  H2  
EPW O   H1  H2  EPW O   H1  H2  EPW O   H1  H2  EPW O   H1  H2  EPW O   H1  H2  
EPW O   H1  H2  EPW O   H1  H2  EPW O   H1  H2  EPW O   H1  H2  EPW O   H1  H2  
EPW O   H1  H2  EPW O   H1  H2  EPW O   H1  H2  EPW O   H1  H2  EPW O   H1  H2  
EPW O   H1  H2  EPW O   H1  H2  EPW O   H1  H2  EPW O   H1  H2  EPW O   H1  H2  
EPW O   H1  H2  EPW O   H1  H2  EPW O   H1  H2  EPW O   H1  H2  EPW O   H1  H2  
EPW O   H1  H2  EPW O   H1  H2  EPW O   H1  H2  EPW O   H1  H2  EPW O   H1  H2  
EPW O   H1  H2  EPW O   H1  H2  EPW O   H1  H2  EPW O   H1  H2  EPW O   H1  H2  
EPW O   H1  H2  EPW O   H1  H2  EPW O   H1  H2  EPW O   H1  H2  EPW O   H1  H2  
EPW O   H1  H2  EPW O   H1  H2  EPW O   H1  H2  EPW O   H1  H2  EPW O   H1  H2  
EPW O   H1  H2  EPW O   H1  H2  EPW O   H1  H2  EPW O   H1  H2  EPW O   H1  H2  
EPW O   H1  H2  EPW O   H1  H2  EPW O   H1  H2  EPW O   H1  H2  EPW O   H1  H2  
EPW O   H1  H2  EPW O   H1  H2  EPW O   H1  H2  EPW O   H1  H2  EPW O   H1  H2  
EPW O   H1  H2  EPW O   H1  H2  EPW O   H1  H2  EPW O   H1  H2  EPW O   H1  H2  
EPW O   H1  H2  EPW O   H1  H2  EPW O   H1  H2  EPW O   H1  H2  EPW O   H1  H2  
EPW O   H1  H2  EPW O   H1  H2  EPW O   H1  H2  EPW O   H1  H2  EPW O   H1  H2  
EPW O   H1  H2  EPW O   H1  H2  EPW O   H1  H2  EPW O   H1  H2  EPW O   H1  H2  
EPW O   H1  H2  EPW O   H1  H2  EPW O   H1  H2  EPW O   H1  H2  EPW O   H1  H2  
EPW O   H1  H2  EPW O   H1  H2  EPW O   H1  H2  EPW O   H1  H2  EPW O   H1  H2  
EPW O   H1  H2  EPW O   H1  H2  EPW O   H1  H2  EPW O   H1  H2  EPW O   H1  H2  
EPW O   H1  H2  EPW O   H1  H2  EPW O   H1  H2  EPW O   H1  H2  EPW O   H1  H2  
EPW O   H1  H2  EPW O   H1  H2  EPW O   H1  H2  EPW O   H1  H2  EPW O   H1  H2  
EPW O   H1  H2  EPW O   H1  H2  EPW O   H1  H2  EPW O   H1  H2  EPW O   H1  H2  
EPW O   H1  H2  EPW O   H1  H2  EPW O   H1  H2  EPW O   H1  H2  EPW O   H1  H2  
EPW O   H1  H2  EPW O   H1  H2  EPW O   H1  H2  EPW O   H1  H2  EPW O   H1  H2  
EPW O   H1  H2  EPW O   H1  H2  EPW O   H1  H2  EPW O   H1  H2  EPW O   H1  H2  
EPW O   H1  H2  EPW O   H1  H2  EPW O   H1  H2  EPW O   H1  H2  EPW O   H1  H2  
EPW O   H1  H2  EPW O   H1  H2  EPW O   H1  H2  EPW O   H1  H2  EPW O   H1  H2  
EPW O   H1  H2  EPW O   H1  H2  EPW O   H1  H2  EPW O   H1  H2  EPW O   H1  H2  
EPW O   H1  H2  EPW O   H1  H2  EPW O   H1  H2  EPW O   H1  H2  EPW O   H1  H2  
EPW O   H1  H2  EPW O   H1  H2  EPW O   H1  H2  EPW O   H1  H2  EPW O   H1  H2  
EPW O   H1  H2  EPW O   H1  H2  EPW O   H1  H2  EPW O   H1  H2  EPW O   H1  H2  
EPW O   H1  H2  EPW O   H1  H2  EPW O   H1  H2  EPW O   H1  H2  EPW O   H1  H2  
EPW O   H1  H2  EPW O   H1  H2  EPW O   H1  H2  EPW O   H1  H2  EPW O   H1  H2  
EPW O   H1  H2  EPW O   H1  H2  EPW O   H1  H2  EPW O   H1  H2  EPW O   H1  H2  
EPW O   H1  H2  EPW O   H1  H2  EPW O   H1  H2  EPW O   H1  H2  EPW O   H1  H2  
EPW O   H1  H2  EPW O   H1  H2  EPW O   H1  H2  EPW O   H1  H2  EPW O   H1  H2  
EPW O   H1  H2  EPW O   H1  H2  EPW O   H1  H2  EPW O   H1  H2  EPW O   H1  H2  
EPW O   H1  H2  EPW O   H1  H2  EPW O   H1  H2  EPW O   H1  H2  EPW O   H1  H2  
EPW O   H1  H2  EPW O   H1  H2  EPW O   H1  H2  EPW O   H1  H2  EPW O   H1  H2  
EPW O   H1  H2  EPW O   H1  H2  EPW O   H1  H2  EPW O   H1  H2  EPW O   H1  H2  
EPW O   H1  H2  EPW O   H1  H2  EPW O   H1  H2  EPW O   H1  H2  EPW O   H1  H2  
EPW O   H1  H2  EPW O   H1  H2  EPW O   H1  H2  EPW O   H1  H2  EPW O   H1  H2  
EPW O   H1  H2  EPW O   H1  H2  EPW O   H1  H2  EPW O   H1  H2  EPW O   H1  H2  
EPW O   H1  H2  EPW O   H1  H2  EPW O   H1  H2  EPW O   H1  H2  EPW O   H1  H2  
EPW O   H1  H2  EPW O   H1  H2  EPW O   H1  H2  EPW O   H1  H2  EPW O   H1  H2  
EPW O   H1  H2  EPW O   H1  H2  EPW O   H1  H2  EPW O   H1  H2  EPW O   H1  H2  
EPW O   H1  H2  EPW O   H1  H2  EPW O   H1  H2  EPW O   H1  H2  EPW O   H1  H2  
EPW O   H1  H2  EPW O   H1  H2  EPW O   H1  H2  EPW O   H1  H2  EPW O   H1  H2  
EPW O   H1  H2  EPW O   H1  H2  EPW O   H1  H2  EPW O   H1  H2  EPW O   H1  H2  
EPW O   H1  H2  EPW O   H1  H2  EPW O   H1  H2  EPW O   H1  H2  EPW O   H1  H2  
EPW O   H1  H2  EPW O   H1  H2  EPW O   H1  H2  EPW O   H1  H2  EPW O   H1  H2  
EPW O   H1  H2  EPW O   H1  H2  EPW O   H1  H2  EPW O   H1  H2  EPW O   H1  H2  
EPW O   H1  H2  EPW O   H1  H2  EPW O   H1  H2  EPW O   H1  H2  EPW O   H1  H2  
EPW O   H1  H2  EPW O   H1  H2  EPW O   H1  H2  EPW O   H1  H2  EPW O   H1  H2  
EPW O   H1  H2  EPW O   H1  H2  EPW O   H1  H2  EPW O   H1  H2  EPW O   H1  H2  
EPW O   H1  H2  EPW O   H1  H2  EPW O   H1  H2  EPW O   H1  H2  EPW O   H1  H2  
EPW O   H1  H2  EPW O   H1  H2  EPW O   H1  H2  EPW O   H1  H2  EPW O   H1  H2  
EPW O   H1  H2  EPW O   H1  H2  EPW O   H1  H2  EPW O   H1  H2  EPW O   H1  H2  
EPW O   H1  H2  EPW O   H1  H2  EPW O   H1  H2  EPW O   H1  H2  EPW O   H1  H2  
EPW O   H1  H2  EPW O   H1  H2  EPW O   H1  H2  EPW O   H1  H2  EPW O   H1  H2  
EPW O   H1  H2  EPW O   H1  H2  EPW O   H1  H2  EPW O   H1  H2  EPW O   H1  H2  
EPW O   H1  H2  EPW O   H1  H2  EPW O   H1  H2  EPW O   H1  H2  EPW O   H1  H2  
EPW O   H1  H2  EPW O   H1  H2  EPW O   H1  H2  EPW O   H1  H2  EPW O   H1  H2  
EPW O   H1  H2  EPW O   H1  H2  EPW O   H1  H2  EPW O   H1  H2  EPW O   H1  H2  
EPW O   H1  H2  EPW O   H1  H2  EPW O   H1  H2  EPW O   H1  H2  EPW O   H1  H2  
EPW O   H1  H2  EPW O   H1  H2  EPW O   H1  H2  EPW O   H1  H2  EPW O   H1  H2  
EPW O   H1  H2  EPW O   H1  H2  EPW O   H1  H2  EPW O   H1  H2  EPW O   H1  H2  
EPW O   H1  H2  EPW O   H1  H2  EPW O   H1  H2  EPW O   H1  H2  EPW O   H1  H2  
EPW O   H1  H2  EPW O   H1  H2  EPW O   H1  H2  EPW O   H1  H2  EPW O   H1  H2  
EPW O   H1  H2  EPW O   H1  H2  EPW O   H1  H2  EPW O   H1  H2  EPW O   H1  H2  
EPW O   H1  H2  EPW O   H1  H2  EPW O   H1  H2  EPW O   H1  H2  EPW O   H1  H2  
EPW O   H1  H2  EPW O   H1  H2  EPW O   H1  H2  EPW O   H1  H2  EPW O   H1  H2  
EPW O   H1  H2  EPW O   H1  H2  EPW O   H1  H2  EPW O   H1  H2  EPW O   H1  H2  
EPW O   H1  H2  EPW O   H1  H2  EPW O   H1  H2  EPW O   H1  H2  EPW O   H1  H2  
EPW O   H1  H2  EPW O   H1  H2  EPW O   H1  H2  EPW O   H1  H2  EPW O   H1  H2  
EPW O   H1  H2  EPW O   H1  H2  EPW O   H1  H2  EPW O   H1  H2  EPW O   H1  H2  
EPW O   H1  H2  EPW O   H1  H2  EPW O   H1  H2  EPW O   H1  H2  EPW O   H1  H2  
EPW O   H1  H2  EPW O   H1  H2  EPW O   H1  H2  EPW O   H1  H2  EPW O   H1  H2  
EPW O   H1  H2  EPW O   H1  H2  EPW O   H1  H2  EPW O   H1  H2  EPW O   H1  H2  
EPW O   H1  H2  EPW O   H1  H2  EPW O   H1  H2  EPW O   H1  H2  EPW O   H1  H2  
EPW O   H1  H2  EPW O   H1  H2  EPW O   H1  H2  EPW O   H1  H2  EPW O   H1  H2  
EPW O   H1  H2  EPW O   H1  H2  EPW O   H1  H2  EPW O   H1  H2  EPW O   H1  H2  
EPW O   H1  H2  EPW O   H1  H2  EPW O   H1  H2  EPW O   H1  H2  EPW O   H1  H2  
EPW O   H1  H2  EPW O   H1  H2  EPW O   H1  H2  EPW O   H1  H2  EPW O   H1  H2  
EPW O   H1  H2  EPW O   H1  H2  EPW O   H1  H2  EPW O   H1  H2  EPW O   H1  H2  
EPW O   H1  H2  EPW O   H1  H2  EPW O   H1  H2  EPW O   H1  H2  EPW O   H1  H2  
EPW O   H1  H2  EPW O   H1  H2  EPW O   H1  H2  EPW O   H1  H2  EPW O   H1  H2  
EPW O   H1  H2  EPW O   H1  H2  EPW O   H1  H2  EPW O   H1  H2  EPW O   H1  H2  
EPW O   H1  H2  EPW O   H1  H2  EPW O   H1  H2  EPW O   H1  H2  EPW O   H1  H2  
EPW O   H1  H2  EPW O   H1  H2  EPW O   H1  H2  EPW O   H1  H2  EPW O   H1  H2  
EPW O   H1  H2  EPW O   H1  H2  EPW O   H1  H2  EPW O   H1  H2  EPW O   H1  H2  
EPW O   H1  H2  EPW O   H1  H2  EPW O   H1  H2  EPW O   H1  H2  EPW O   H1  H2  
EPW O   H1  H2  EPW O   H1  H2  EPW O   H1  H2  EPW O   H1  H2  EPW O   H1  H2  
EPW O   H1  H2  EPW O   H1  H2  EPW O   H1  H2  EPW O   H1  H2  EPW O   H1  H2  
EPW O   H1  H2  EPW O   H1  H2  EPW O   H1  H2  EPW O   H1  H2  EPW O   H1  H2  
EPW O   H1  H2  EPW O   H1  H2  EPW O   H1  H2  EPW O   H1  H2  EPW O   H1  H2  
EPW O   H1  H2  EPW O   H1  H2  EPW O   H1  H2  EPW O   H1  H2  EPW O   H1  H2  
EPW O   H1  H2  EPW O   H1  H2  EPW O   H1  H2  EPW O   H1  H2  EPW O   H1  H2  
EPW O   H1  H2  EPW O   H1  H2  EPW O   H1  H2  EPW O   H1  H2  EPW O   H1  H2  
EPW O   H1  H2  EPW O   H1  H2  EPW O   H1  H2  EPW O   H1  H2  EPW O   H1  H2  
EPW O   H1  H2  EPW O   H1  H2  EPW O   H1  H2  EPW O   H1  H2  EPW O   H1  H2  
EPW O   H1  H2  EPW O   H1  H2  EPW O   H1  H2  EPW O   H1  H2  EPW O   H1  H2  
EPW O   H1  H2  EPW O   H1  H2  EPW O   H1  H2  EPW O   H1  H2  EPW O   H1  H2  
EPW O   H1  H2  EPW O   H1  H2  EPW O   H1  H2  EPW O   H1  H2  EPW O   H1  H2  
EPW O   H1  H2  EPW O   H1  H2  EPW O   H1  H2  EPW O   H1  H2  EPW O   H1  H2  
EPW O   H1  H2  EPW O   H1  H2  EPW O   H1  H2  EPW O   H1  H2  EPW O   H1  H2  
EPW O   H1  H2  EPW O   H1  H2  EPW O   H1  H2  EPW O   H1  H2  EPW O   H1  H2  
EPW O   H1  H2  EPW O   H1  H2  EPW O   H1  H2  EPW O   H1  H2  EPW O   H1  H2  
EPW O   H1  H2  EPW O   H1  H2  EPW O   H1  H2  EPW O   H1  H2  EPW O   H1  H2  
EPW O   H1  H2  EPW O   H1  H2  EPW O   H1  H2  EPW O   H1  H2  EPW O   H1  H2  
EPW O   H1  H2  EPW O   H1  H2  EPW O   H1  H2  EPW O   H1  H2  EPW O   H1  H2  
EPW O   H1  H2  EPW O   H1  H2  EPW O   H1  H2  EPW O   H1  H2  EPW O   H1  H2  
EPW O   H1  H2  EPW O   H1  H2  EPW O   H1  H2  EPW O   H1  H2  EPW O   H1  H2  
EPW O   H1  H2  EPW O   H1  H2  EPW O   H1  H2  EPW O   H1  H2  EPW O   H1  H2  
EPW O   H1  H2  EPW O   H1  H2  EPW O   H1  H2  EPW O   H1  H2  EPW O   H1  H2  
EPW O   H1  H2  EPW O   H1  H2  EPW O   H1  H2  EPW O   H1  H2  EPW O   H1  H2  
EPW O   H1  H2  EPW O   H1  H2  EPW O   H1  H2  EPW O   H1  H2  EPW O   H1  H2  
EPW O   H1  H2  EPW O   H1  H2  EPW O   H1  H2  EPW O   H1  H2  EPW O   H1  H2  
EPW O   H1  H2  EPW O   H1  H2  EPW O   H1  H2  EPW O   H1  H2  EPW O   H1  H2  
EPW O   H1  H2  EPW O   H1  H2  EPW O   H1  H2  EPW O   H1  H2  EPW O   H1  H2  
EPW O   H1  H2  EPW O   H1  H2  EPW O   H1  H2  EPW O   H1  H2  EPW O   H1  H2  
EPW O   H1  H2  EPW O   H1  H2  EPW O   H1  H2  EPW O   H1  H2  EPW O   H1  H2  
EPW O   H1  H2  EPW O   H1  H2  EPW O   H1  H2  EPW O   H1  H2  EPW O   H1  H2  
EPW O   H1  H2  EPW O   H1  H2  EPW O   H1  H2  EPW O   H1  H2  EPW O   H1  H2  
EPW O   H1  H2  EPW O   H1  H2  EPW O   H1  H2  EPW O   H1  H2  EPW O   H1  H2  
EPW O   H1  H2  EPW O   H1  H2  EPW O   H1  H2  EPW O   H1  H2  EPW O   H1  H2  
EPW O   H1  H2  EPW O   H1  H2  EPW O   H1  H2  EPW O   H1  H2  EPW O   H1  H2  
EPW O   H1  H2  EPW O   H1  H2  EPW O   H1  H2  EPW O   H1  H2  EPW O   H1  H2  
EPW O   H1  H2  EPW O   H1  H2  EPW O   H1  H2  EPW O   H1  H2  EPW O   H1  H2  
EPW O   H1  H2  EPW O   H1  H2  EPW O   H1  H2  EPW O   H1  H2  EPW O   H1  H2  
EPW O   H1  H2  EPW O   H1  H2  EPW O   H1  H2  EPW O   H1  H2  EPW O   H1  H2  
EPW O   H1  H2  EPW O   H1  H2  EPW O   H1  H2  EPW O   H1  H2  EPW O   H1  H2  
EPW O   H1  H2  EPW O   H1  H2  EPW O   H1  H2  EPW O   H1  H2  EPW O   H1  H2  
EPW O   H1  H2  EPW O   H1  H2  EPW O   H1  H2  EPW O   H1  H2  EPW O   H1  H2  
EPW O   H1  H2  EPW O   H1  H2  EPW O   H1  H2  EPW O   H1  H2  EPW O   H1  H2  
EPW O   H1  H2  EPW O   H1  H2  EPW O   H1  H2  EPW O   H1  H2  EPW O   H1  H2  
EPW O   H1  H2  EPW O   H1  H2  EPW O   H1  H2  EPW O   H1  H2  EPW O   H1  H2  
EPW O   H1  H2  EPW O   H1  H2  EPW O   H1  H2  EPW O   H1  H2  EPW O   H1  H2  
EPW O   H1  H2  EPW O   H1  H2  EPW O   H1  H2  EPW O   H1  H2  EPW O   H1  H2  
EPW O   H1  H2  EPW O   H1  H2  EPW O   H1  H2  EPW O   H1  H2  EPW O   H1  H2  
EPW O   H1  H2  EPW O   H1  H2  EPW O   H1  H2  EPW O   H1  H2  EPW O   H1  H2  
EPW O   H1  H2  EPW O   H1  H2  EPW O   H1  H2  EPW O   H1  H2  EPW O   H1  H2  
EPW O   H1  H2  EPW O   H1  H2  EPW O   H1  H2  EPW O   H1  H2  EPW O   H1  H2  
EPW O   H1  H2  EPW O   H1  H2  EPW O   H1  H2  EPW O   H1  H2  EPW O   H1  H2  
EPW O   H1  H2  EPW O   H1  H2  EPW O   H1  H2  EPW O   H1  H2  EPW O   H1  H2  
EPW O   H1  H2  EPW O   H1  H2  EPW O   H1  H2  EPW O   H1  H2  EPW O   H1  H2  
EPW O   H1  H2  EPW O   H1  H2  EPW O   H1  H2  EPW O   H1  H2  EPW O   H1  H2  
EPW O   H1  H2  EPW O   H1  H2  EPW O   H1  H2  EPW O   H1  H2  EPW O   H1  H2  
EPW O   H1  H2  EPW O   H1  H2  EPW O   H1  H2  EPW O   H1  H2  EPW O   H1  H2  
EPW O   H1  H2  EPW O   H1  H2  EPW O   H1  H2  EPW O   H1  H2  EPW O   H1  H2  
EPW O   H1  H2  EPW O   H1  H2  EPW O   H1  H2  EPW O   H1  H2  EPW O   H1  H2  
EPW O   H1  H2  EPW O   H1  H2  EPW O   H1  H2  EPW O   H1  H2  EPW O   H1  H2  
EPW O   H1  H2  EPW O   H1  H2  EPW O   H1  H2  EPW O   H1  H2  EPW O   H1  H2  
EPW O   H1  H2  EPW O   H1  H2  EPW O   H1  H2  EPW O   H1  H2  EPW O   H1  H2  
EPW O   H1  H2  EPW O   H1  H2  EPW O   H1  H2  EPW O   H1  H2  EPW O   H1  H2  
EPW O   H1  H2  EPW O   H1  H2  EPW O   H1  H2  EPW O   H1  H2  EPW O   H1  H2  
EPW O   H1  H2  EPW O   H1  H2  EPW O   H1  H2  EPW O   H1  H2  EPW O   H1  H2  
EPW O   H1  H2  EPW O   H1  H2  EPW O   H1  H2  EPW O   H1  H2  EPW O   H1  H2  
EPW O   H1  H2  EPW O   H1  H2  EPW O   H1  H2  EPW O   H1  H2  EPW O   H1  H2  
EPW O   H1  H2  EPW O   H1  H2  EPW O   H1  H2  EPW O   H1  H2  EPW O   H1  H2  
EPW O   H1  H2  EPW O   H1  H2  EPW O   H1  H2  EPW O   H1  H2  EPW O   H1  H2  
EPW O   H1  H2  EPW O   H1  H2  EPW O   H1  H2  EPW O   H1  H2  EPW O   H1  H2  
EPW O   H1  H2  EPW O   H1  H2  EPW O   H1  H2  EPW O   H1  H2  EPW O   H1  H2  
EPW O   H1  H2  EPW O   H1  H2  EPW O   H1  H2  EPW O   H1  H2  EPW O   H1  H2  
EPW O   H1  H2  EPW O   H1  H2  EPW O   H1  H2  EPW O   H1  H2  EPW O   H1  H2  
EPW O   H1  H2  EPW O   H1  H2  EPW O   H1  H2  EPW O   H1  H2  EPW O   H1  H2  
EPW O   H1  H2  EPW O   H1  H2  EPW O   H1  H2  EPW O   H1  H2  EPW O   H1  H2  
EPW O   H1  H2  EPW O   H1  H2  EPW O   H1  H2  EPW O   H1  H2  EPW O   H1  H2  
EPW O   H1  H2  EPW O   H1  H2  EPW O   H1  H2  EPW O   H1  H2  EPW O   H1  H2  
EPW O   H1  H2  EPW O   H1  H2  EPW O   H1  H2  EPW O   H1  H2  EPW O   H1  H2  
EPW O   H1  H2  EPW O   H1  H2  EPW O   H1  H2  EPW O   H1  H2  EPW O   H1  H2  
EPW O   H1  H2  EPW O   H1  H2  EPW O   H1  H2  EPW O   H1  H2  EPW O   H1  H2  
EPW O   H1  H2  EPW O   H1  H2  EPW O   H1  H2  EPW O   H1  H2  EPW O   H1  H2  
EPW O   H1  H2  EPW O   H1  H2  EPW O   H1  H2  EPW O   H1  H2  EPW O   H1  H2  
EPW O   H1  H2  EPW O   H1  H2  EPW O   H1  H2  EPW O   H1  H2  EPW O   H1  H2  
EPW O   H1  H2  EPW O   H1  H2  EPW O   H1  H2  EPW O   H1  H2  EPW O   H1  H2  
EPW O   H1  H2  EPW O   H1  H2  EPW O   H1  H2  EPW O   H1  H2  EPW O   H1  H2  
EPW O   H1  H2  EPW O   H1  H2  EPW O   H1  H2  EPW O   H1  H2  EPW O   H1  H2  
EPW O   H1  H2  EPW O   H1  H2  EPW O   H1  H2  EPW O   H1  H2  EPW O   H1  H2  
EPW O   H1  H2  EPW O   H1  H2  EPW O   H1  H2  EPW O   H1  H2  EPW O   H1  H2  
EPW O   H1  H2  EPW O   H1  H2  EPW O   H1  H2  EPW O   H1  H2  EPW O   H1  H2  
EPW O   H1  H2  EPW O   H1  H2  EPW O   H1  H2  EPW O   H1  H2  EPW O   H1  H2  
EPW O   H1  H2  EPW O   H1  H2  EPW O   H1  H2  EPW O   H1  H2  EPW O   H1  H2  
EPW O   H1  H2  EPW O   H1  H2  EPW O   H1  H2  EPW O   H1  H2  EPW O   H1  H2  
EPW O   H1  H2  EPW O   H1  H2  EPW O   H1  H2  EPW O   H1  H2  EPW O   H1  H2  
EPW O   H1  H2  EPW O   H1  H2  EPW O   H1  H2  EPW O   H1  H2  EPW O   H1  H2  
EPW O   H1  H2  EPW O   H1  H2  EPW O   H1  H2  EPW O   H1  H2  EPW O   H1  H2  
EPW O   H1  H2  EPW O   H1  H2  EPW O   H1  H2  EPW O   H1  H2  EPW O   H1  H2  
EPW O   H1  H2  EPW O   H1  H2  EPW O   H1  H2  EPW O   H1  H2  EPW O   H1  H2  
EPW O   H1  H2  EPW O   H1  H2  EPW O   H1  H2  EPW O   H1  H2  EPW O   H1  H2  
EPW O   H1  H2  EPW O   H1  H2  EPW O   H1  H2  EPW O   H1  H2  EPW O   H1  H2  
EPW O   H1  H2  EPW O   H1  H2  EPW O   H1  H2  EPW O   H1  H2  EPW O   H1  H2  
EPW O   H1  H2  EPW O   H1  H2  EPW O   H1  H2  EPW O   H1  H2  EPW O   H1  H2  
EPW O   H1  H2  EPW O   H1  H2  EPW O   H1  H2  EPW O   H1  H2  EPW O   H1  H2  
EPW O   H1  H2  EPW O   H1  H2  EPW O   H1  H2  EPW O   H1  H2  EPW O   H1  H2  
EPW O   H1  H2  EPW O   H1  H2  EPW O   H1  H2  EPW O   H1  H2  EPW O   H1  H2  
EPW O   H1  H2  EPW O   H1  H2  EPW O   H1  H2  EPW O   H1  H2  EPW O   H1  H2  
EPW O   H1  H2  EPW O   H1  H2  EPW O   H1  H2  EPW O   H1  H2  EPW O   H1  H2  
EPW O   H1  H2  EPW O   H1  H2  EPW O   H1  H2  EPW O   H1  H2  EPW O   H1  H2  
EPW O   H1  H2  EPW O   H1  H2  EPW O   H1  H2  EPW O   H1  H2  EPW O   H1  H2  
EPW O   H1  H2  EPW O   H1  H2  EPW O   H1  H2  EPW O   H1  H2  EPW O   H1  H2  
EPW O   H1  H2  EPW O   H1  H2  EPW O   H1  H2  EPW O   H1  H2  EPW O   H1  H2  
EPW O   H1  H2  EPW O   H1  H2  EPW O   H1  H2  EPW O   H1  H2  EPW O   H1  H2  
EPW O   H1  H2  EPW O   H1  H2  EPW O   H1  H2  EPW O   H1  H2  EPW O   H1  H2  
EPW O   H1  H2  EPW O   H1  H2  EPW O   H1  H2  EPW O   H1  H2  EPW O   H1  H2  
EPW O   H1  H2  EPW O   H1  H2  EPW O   H1  H2  EPW O   H1  H2  EPW O   H1  H2  
EPW O   H1  H2  EPW O   H1  H2  EPW O   H1  H2  EPW O   H1  H2  EPW O   H1  H2  
EPW O   H1  H2  EPW O   H1  H2  EPW O   H1  H2  EPW O   H1  H2  EPW O   H1  H2  
EPW O   H1  H2  EPW O   H1  H2  EPW O   H1  H2  EPW O   H1  H2  EPW O   H1  H2  
EPW O   H1  H2  EPW O   H1  H2  EPW O   H1  H2  EPW O   H1  H2  EPW O   H1  H2  
EPW O   H1  H2  EPW O   H1  H2  EPW O   H1  H2  EPW O   H1  H2  EPW O   H1  H2  
EPW O   H1  H2  EPW O   H1  H2  EPW O   H1  H2  EPW O   H1  H2  EPW O   H1  H2  
EPW O   H1  H2  EPW O   H1  H2  EPW O   H1  H2  EPW O   H1  H2  EPW O   H1  H2  
EPW O   H1  H2  EPW O   H1  H2  EPW O   H1  H2  EPW O   H1  H2  EPW O   H1  H2  
EPW O   H1  H2  EPW O   H1  H2  EPW O   H1  H2  EPW O   H1  H2  EPW O   H1  H2  
EPW O   H1  H2  EPW O   H1  H2  EPW O   H1  H2  EPW O   H1  H2  EPW O   H1  H2  
EPW O   H1  H2  EPW O   H1  H2  EPW O   H1  H2  EPW O   H1  H2  EPW O   H1  H2  
EPW O   H1  H2  EPW O   H1  H2  EPW O   H1  H2  EPW O   H1  H2  EPW O   H1  H2  
EPW O   H1  H2  EPW O   H1  H2  EPW O   H1  H2  EPW O   H1  H2  EPW O   H1  H2  
EPW O   H1  H2  EPW O   H1  H2  EPW O   H1  H2  EPW O   H1  H2  EPW O   H1  H2  
EPW O   H1  H2  EPW O   H1  H2  EPW O   H1  H2  EPW O   H1  H2  EPW O   H1  H2  
EPW O   H1  H2  EPW O   H1  H2  EPW O   H1  H2  EPW O   H1  H2  EPW O   H1  H2  
EPW O   H1  H2  EPW O   H1  H2  EPW O   H1  H2  EPW O   H1  H2  EPW O   H1  H2  
EPW O   H1  H2  EPW O   H1  H2  EPW O   H1  H2  EPW O   H1  H2  EPW O   H1  H2  
EPW O   H1  H2  EPW O   H1  H2  EPW O   H1  H2  EPW O   H1  H2  EPW O   H1  H2  
EPW O   H1  H2  EPW O   H1  H2  EPW O   H1  H2  EPW O   H1  H2  EPW O   H1  H2  
EPW O   H1  H2  EPW O   H1  H2  EPW O   H1  H2  EPW O   H1  H2  EPW O   H1  H2  
EPW O   H1  H2  EPW O   H1  H2  EPW O   H1  H2  EPW O   H1  H2  EPW O   H1  H2  
EPW O   H1  H2  EPW O   H1  H2  EPW O   H1  H2  EPW O   H1  H2  EPW O   H1  H2  
EPW O   H1  H2  EPW O   H1  H2  EPW O   H1  H2  EPW O   H1  H2  EPW O   H1  H2  
EPW O   H1  H2  EPW O   H1  H2  EPW O   H1  H2  EPW O   H1  H2  EPW O   H1  H2  
EPW O   H1  H2  EPW O   H1  H2  EPW O   H1  H2  EPW O   H1  H2  EPW O   H1  H2  
EPW O   H1  H2  EPW O   H1  H2  EPW O   H1  H2  EPW O   H1  H2  EPW O   H1  H2  
EPW O   H1  H2  EPW O   H1  H2  EPW O   H1  H2  EPW O   H1  H2  EPW O   H1  H2  
EPW O   H1  H2  EPW O   H1  H2  EPW O   H1  H2  EPW O   H1  H2  EPW O   H1  H2  
EPW O   H1  H2  EPW O   H1  H2  EPW O   H1  H2  EPW O   H1  H2  EPW O   H1  H2  
EPW O   H1  H2  EPW O   H1  H2  EPW O   H1  H2  EPW O   H1  H2  EPW O   H1  H2  
EPW O   H1  H2  EPW O   H1  H2  EPW O   H1  H2  EPW O   H1  H2  EPW O   H1  H2  
EPW O   H1  H2  EPW O   H1  H2  EPW O   H1  H2  EPW O   H1  H2  EPW O   H1  H2  
EPW O   H1  H2  EPW O   H1  H2  EPW O   H1  H2  EPW O   H1  H2  EPW O   H1  H2  
EPW O   H1  H2  EPW O   H1  H2  EPW O   H1  H2  EPW O   H1  H2  EPW O   H1  H2  
EPW O   H1  H2  EPW O   H1  H2  EPW O   H1  H2  EPW O   H1  H2  EPW O   H1  H2  
EPW O   H1  H2  EPW O   H1  H2  EPW O   H1  H2  EPW O   H1  H2  EPW O   H1  H2  
EPW O   H1  H2  EPW O   H1  H2  EPW O   H1  H2  EPW O   H1  H2  EPW O   H1  H2  
EPW O   H1  H2  EPW O   H1  H2  EPW O   H1  H2  EPW O   H1  H2  EPW O   H1  H2  
EPW O   H1  H2  EPW O   H1  H2  EPW O   H1  H2  EPW O   H1  H2  EPW O   H1  H2  
EPW O   H1  H2  EPW O   H1  H2  EPW O   H1  H2  EPW O   H1  H2  EPW O   H1  H2  
EPW O   H1  H2  EPW O   H1  H2  EPW O   H1  H2  EPW O   H1  H2  EPW O   H1  H2  
EPW O   H1  H2  EPW O   H1  H2  EPW O   H1  H2  EPW O   H1  H2  EPW O   H1  H2  
EPW O   H1  H2  EPW O   H1  H2  EPW O   H1  H2  EPW O   H1  H2  EPW O   H1  H2  
EPW O   H1  H2  EPW O   H1  H2  EPW O   H1  H2  EPW O   H1  H2  EPW O   H1  H2  
EPW O   H1  H2  EPW O   H1  H2  EPW O   H1  H2  EPW O   H1  H2  EPW O   H1  H2  
EPW O   H1  H2  EPW O   H1  H2  EPW O   H1  H2  EPW O   H1  H2  EPW O   H1  H2  
EPW O   H1  H2  EPW O   H1  H2  EPW O   H1  H2  EPW O   H1  H2  EPW O   H1  H2  
EPW O   H1  H2  EPW O   H1  H2  EPW O   H1  H2  EPW O   H1  H2  EPW O   H1  H2  
EPW O   H1  H2  EPW O   H1  H2  EPW O   H1  H2  EPW O   H1  H2  EPW O   H1  H2  
EPW O   H1  H2  EPW O   H1  H2  EPW O   H1  H2  EPW O   H1  H2  EPW O   H1  H2  
EPW O   H1  H2  EPW O   H1  H2  EPW O   H1  H2  EPW O   H1  H2  EPW O   H1  H2  
EPW O   H1  H2  EPW O   H1  H2  EPW O   H1  H2  EPW O   H1  H2  EPW O   H1  H2  
EPW O   H1  H2  EPW O   H1  H2  EPW O   H1  H2  EPW O   H1  H2  EPW O   H1  H2  
EPW O   H1  H2  EPW O   H1  H2  EPW O   H1  H2  EPW O   H1  H2  EPW O   H1  H2  
EPW O   H1  H2  EPW O   H1  H2  EPW O   H1  H2  EPW O   H1  H2  EPW O   H1  H2  
EPW O   H1  H2  EPW O   H1  H2  EPW O   H1  H2  EPW O   H1  H2  EPW O   H1  H2  
EPW O   H1  H2  EPW O   H1  H2  EPW O   H1  H2  EPW O   H1  H2  EPW O   H1  H2  
EPW O   H1  H2  EPW O   H1  H2  EPW O   H1  H2  EPW O   H1  H2  EPW O   H1  H2  
EPW O   H1  H2  EPW O   H1  H2  EPW O   H1  H2  EPW O   H1  H2  EPW O   H1  H2  
EPW O   H1  H2  EPW O   H1  H2  EPW O   H1  H2  EPW O   H1  H2  EPW O   H1  H2  
EPW O   H1  H2  EPW O   H1  H2  EPW O   H1  H2  EPW O   H1  H2  EPW O   H1  H2  
EPW O   H1  H2  EPW O   H1  H2  EPW O   H1  H2  EPW O   H1  H2  EPW O   H1  H2  
EPW O   H1  H2  EPW O   H1  H2  EPW O   H1  H2  EPW O   H1  H2  EPW O   H1  H2  
EPW O   H1  H2  EPW O   H1  H2  EPW O   H1  H2  EPW O   H1  H2  EPW O   H1  H2  
EPW O   H1  H2  EPW O   H1  H2  EPW O   H1  H2  EPW O   H1  H2  EPW O   H1  H2  
EPW O   H1  H2  EPW O   H1  H2  EPW O   H1  H2  EPW O   H1  H2  EPW O   H1  H2  
EPW O   H1  H2  EPW O   H1  H2  EPW O   H1  H2  EPW O   H1  H2  EPW O   H1  H2  
EPW O   H1  H2  EPW O   H1  H2  EPW O   H1  H2  EPW O   H1  H2  EPW O   H1  H2  
EPW O   H1  H2  EPW O   H1  H2  EPW O   H1  H2  EPW O   H1  H2  EPW O   H1  H2  
EPW O   H1  H2  EPW O   H1  H2  EPW O   H1  H2  EPW O   H1  H2  EPW O   H1  H2  
EPW O   H1  H2  EPW O   H1  H2  EPW O   H1  H2  EPW O   H1  H2  EPW O   H1  H2  
EPW O   H1  H2  EPW O   H1  H2  EPW O   H1  H2  EPW O   H1  H2  EPW O   H1  H2  
EPW O   H1  H2  EPW O   H1  H2  EPW O   H1  H2  EPW O   H1  H2  EPW O   H1  H2  
EPW O   H1  H2  EPW O   H1  H2  EPW O   H1  H2  EPW O   H1  H2  EPW O   H1  H2  
EPW O   H1  H2  EPW O   H1  H2  EPW O   H1  H2  EPW O   H1  H2  EPW O   H1  H2  
EPW O   H1  H2  EPW O   H1  H2  EPW O   H1  H2  EPW O   H1  H2  EPW O   H1  H2  
EPW O   H1  H2  EPW O   H1  H2  EPW O   H1  H2  EPW O   H1  H2  EPW O   H1  H2  
EPW O   H1  H2  EPW O   H1  H2  EPW O   H1  H2  EPW O   H1  H2  EPW O   H1  H2  
EPW O   H1  H2  EPW O   H1  H2  EPW O   H1  H2  EPW O   H1  H2  EPW O   H1  H2  
EPW O   H1  H2  EPW O   H1  H2  EPW O   H1  H2  EPW O   H1  H2  EPW O   H1  H2  
EPW O   H1  H2  EPW O   H1  H2  EPW O   H1  H2  EPW O   H1  H2  EPW O   H1  H2  
EPW O   H1  H2  EPW O   H1  H2  EPW O   H1  H2  EPW O   H1  H2  EPW O   H1  H2  
EPW O   H1  H2  EPW O   H1  H2  EPW O   H1  H2  EPW O   H1  H2  EPW O   H1  H2  
EPW O   H1  H2  EPW O   H1  H2  EPW O   H1  H2  EPW O   H1  H2  EPW O   H1  H2  
EPW O   H1  H2  EPW O   H1  H2  EPW O   H1  H2  EPW O   H1  H2  EPW O   H1  H2  
EPW O   H1  H2  EPW O   H1  H2  EPW O   H1  H2  EPW O   H1  H2  EPW O   H1  H2  
EPW O   H1  H2  EPW O   H1  H2  EPW O   H1  H2  EPW O   H1  H2  EPW O   H1  H2  
EPW O   H1  H2  EPW O   H1  H2  EPW O   H1  H2  EPW O   H1  H2  EPW O   H1  H2  
EPW O   H1  H2  EPW O   H1  H2  EPW O   H1  H2  EPW O   H1  H2  EPW O   H1  H2  
EPW O   H1  H2  EPW O   H1  H2  EPW O   H1  H2  EPW O   H1  H2  EPW O   H1  H2  
EPW O   H1  H2  EPW O   H1  H2  EPW O   H1  H2  EPW O   H1  H2  EPW O   H1  H2  
EPW O   H1  H2  EPW O   H1  H2  EPW O   H1  H2  EPW O   H1  H2  EPW O   H1  H2  
EPW O   H1  H2  EPW O   H1  H2  EPW O   H1  H2  EPW O   H1  H2  EPW O   H1  H2  
EPW O   H1  H2  EPW O   H1  H2  EPW O   H1  H2  EPW O   H1  H2  EPW O   H1  H2  
EPW O   H1  H2  EPW O   H1  H2  EPW O   H1  H2  EPW O   H1  H2  EPW O   H1  H2  
EPW O   H1  H2  EPW O   H1  H2  EPW O   H1  H2  EPW O   H1  H2  EPW O   H1  H2  
EPW O   H1  H2  EPW O   H1  H2  EPW O   H1  H2  EPW O   H1  H2  EPW O   H1  H2  
EPW O   H1  H2  EPW O   H1  H2  EPW O   H1  H2  EPW O   H1  H2  EPW O   H1  H2  
EPW O   H1  H2  EPW O   H1  H2  EPW O   H1  H2  EPW O   H1  H2  EPW O   H1  H2  
EPW O   H1  H2  EPW O   H1  H2  EPW O   H1  H2  EPW O   H1  H2  EPW O   H1  H2  
EPW O   H1  H2  EPW O   H1  H2  EPW O   H1  H2  EPW O   H1  H2  EPW O   H1  H2  
EPW O   H1  H2  EPW O   H1  H2  EPW O   H1  H2  EPW O   H1  H2  EPW O   H1  H2  
EPW O   H1  H2  EPW O   H1  H2  EPW O   H1  H2  EPW O   H1  H2  EPW O   H1  H2  
EPW O   H1  H2  EPW O   H1  H2  EPW O   H1  H2  EPW O   H1  H2  EPW O   H1  H2  
EPW O   H1  H2  EPW O   H1  H2  EPW O   H1  H2  EPW O   H1  H2  EPW O   H1  H2  
EPW O   H1  H2  EPW O   H1  H2  EPW O   H1  H2  EPW O   H1  H2  EPW O   H1  H2  
EPW O   H1  H2  EPW O   H1  H2  EPW O   H1  H2  EPW O   H1  H2  EPW O   H1  H2  
EPW O   H1  H2  EPW O   H1  H2  EPW O   H1  H2  EPW O   H1  H2  EPW O   H1  H2  
EPW O   H1  H2  EPW O   H1  H2  EPW O   H1  H2  EPW O   H1  H2  EPW O   H1  H2  
EPW O   H1  H2  EPW O   H1  H2  EPW O   H1  H2  EPW O   H1  H2  EPW O   H1  H2  
EPW O   H1  H2  EPW O   H1  H2  EPW O   H1  H2  EPW O   H1  H2  EPW O   H1  H2  
EPW O   H1  H2  EPW O   H1  H2  EPW O   H1  H2  EPW O   H1  H2  EPW O   H1  H2  
EPW O   H1  H2  EPW O   H1  H2  EPW O   H1  H2  EPW O   H1  H2  EPW O   H1  H2  
EPW O   H1  H2  EPW O   H1  H2  EPW O   H1  H2  EPW O   H1  H2  EPW O   H1  H2  
EPW O   H1  H2  EPW O   H1  H2  EPW O   H1  H2  EPW O   H1  H2  EPW O   H1  H2  
EPW O   H1  H2  EPW O   H1  H2  EPW O   H1  H2  EPW O   H1  H2  EPW O   H1  H2  
EPW O   H1  H2  EPW O   H1  H2  EPW O   H1  H2  EPW O   H1  H2  EPW O   H1  H2  
EPW O   H1  H2  EPW O   H1  H2  EPW O   H1  H2  EPW O   H1  H2  EPW O   H1  H2  
EPW O   H1  H2  EPW O   H1  H2  EPW O   H1  H2  EPW O   H1  H2  EPW O   H1  H2  
EPW O   H1  H2  EPW O   H1  H2  EPW O   H1  H2  EPW O   H1  H2  EPW O   H1  H2  
EPW O   H1  H2  EPW O   H1  H2  EPW O   H1  H2  EPW O   H1  H2  EPW O   H1  H2  
EPW O   H1  H2  EPW O   H1  H2  EPW O   H1  H2  EPW O   H1  H2  EPW O   H1  H2  
EPW O   H1  H2  EPW O   H1  H2  EPW O   H1  H2  EPW O   H1  H2  EPW O   H1  H2  
EPW O   H1  H2  EPW O   H1  H2  EPW O   H1  H2  EPW O   H1  H2  EPW O   H1  H2  
EPW O   H1  H2  EPW O   H1  H2  EPW O   H1  H2  EPW O   H1  H2  EPW O   H1  H2  
EPW O   H1  H2  EPW O   H1  H2  EPW O   H1  H2  EPW O   H1  H2  EPW O   H1  H2  
EPW O   H1  H2  EPW O   H1  H2  EPW O   H1  H2  EPW O   H1  H2  EPW O   H1  H2  
EPW O   H1  H2  EPW O   H1  H2  EPW O   H1  H2  EPW O   H1  H2  EPW O   H1  H2  
EPW O   H1  H2  EPW O   H1  H2  EPW O   H1  H2  EPW O   H1  H2  EPW O   H1  H2  
EPW O   H1  H2  EPW O   H1  H2  EPW O   H1  H2  EPW O   H1  H2  EPW O   H1  H2  
EPW O   H1  H2  EPW O   H1  H2  EPW O   H1  H2  EPW O   H1  H2  EPW O   H1  H2  
EPW O   H1  H2  EPW O   H1  H2  EPW O   H1  H2  EPW O   H1  H2  EPW O   H1  H2  
EPW O   H1  H2  EPW O   H1  H2  EPW O   H1  H2  EPW O   H1  H2  EPW O   H1  H2  
EPW O   H1  H2  EPW O   H1  H2  EPW O   H1  H2  EPW O   H1  H2  EPW O   H1  H2  
EPW O   H1  H2  EPW O   H1  H2  EPW O   H1  H2  EPW O   H1  H2  EPW O   H1  H2  
EPW O   H1  H2  EPW O   H1  H2  EPW O   H1  H2  EPW O   H1  H2  EPW O   H1  H2  
EPW O   H1  H2  EPW O   H1  H2  EPW O   H1  H2  EPW O   H1  H2  EPW O   H1  H2  
EPW O   H1  H2  EPW O   H1  H2  EPW O   H1  H2  EPW O   H1  H2  EPW O   H1  H2  
EPW O   H1  H2  EPW O   H1  H2  EPW O   H1  H2  EPW O   H1  H2  EPW O   H1  H2  
EPW O   H1  H2  EPW O   H1  H2  EPW O   H1  H2  EPW O   H1  H2  EPW O   H1  H2  
EPW O   H1  H2  EPW O   H1  H2  EPW O   H1  H2  EPW O   H1  H2  EPW O   H1  H2  
EPW O   H1  H2  EPW O   H1  H2  EPW O   H1  H2  EPW O   H1  H2  EPW O   H1  H2  
EPW O   H1  H2  EPW O   H1  H2  EPW O   H1  H2  EPW O   H1  H2  EPW O   H1  H2  
EPW O   H1  H2  EPW O   H1  H2  EPW O   H1  H2  EPW O   H1  H2  EPW O   H1  H2  
EPW O   H1  H2  EPW O   H1  H2  EPW O   H1  H2  EPW O   H1  H2  EPW O   H1  H2  
EPW O   H1  H2  EPW O   H1  H2  EPW O   H1  H2  EPW O   H1  H2  EPW O   H1  H2  
EPW O   H1  H2  EPW O   H1  H2  EPW O   H1  H2  EPW O   H1  H2  EPW O   H1  H2  
EPW O   H1  H2  EPW O   H1  H2  EPW O   H1  H2  EPW O   H1  H2  EPW O   H1  H2  
EPW O   H1  H2  EPW O   H1  H2  EPW O   H1  H2  EPW O   H1  H2  EPW O   H1  H2  
EPW O   H1  H2  EPW O   H1  H2  EPW O   H1  H2  EPW O   H1  H2  EPW O   H1  H2  
EPW O   H1  H2  EPW O   H1  H2  EPW O   H1  H2  EPW O   H1  H2  EPW O   H1  H2  
EPW O   H1  H2  EPW O   H1  H2  EPW O   H1  H2  EPW O   H1  H2  EPW O   H1  H2  
EPW O   H1  H2  EPW O   H1  H2  EPW O   H1  H2  EPW O   H1  H2  EPW O   H1  H2  
EPW O   H1  H2  EPW O   H1  H2  EPW O   H1  H2  EPW O   H1  H2  EPW O   H1  H2  
EPW O   H1  H2  EPW O   H1  H2  EPW O   H1  H2  EPW O   H1  H2  EPW O   H1  H2  
EPW O   H1  H2  EPW O   H1  H2  EPW O   H1  H2  EPW O   H1  H2  EPW O   H1  H2  
EPW O   H1  H2  EPW O   H1  H2  EPW O   H1  H2  EPW O   H1  H2  EPW O   H1  H2  
EPW O   H1  H2  EPW O   H1  H2  EPW O   H1  H2  EPW O   H1  H2  EPW O   H1  H2  
EPW O   H1  H2  EPW O   H1  H2  EPW O   H1  H2  EPW O   H1  H2  EPW O   H1  H2  
EPW O   H1  H2  EPW O   H1  H2  EPW O   H1  H2  EPW O   H1  H2  EPW O   H1  H2  
EPW O   H1  H2  EPW O   H1  H2  EPW O   H1  H2  EPW O   H1  H2  EPW O   H1  H2  
EPW O   H1  H2  EPW O   H1  H2  EPW O   H1  H2  EPW O   H1  H2  EPW O   H1  H2  
EPW O   H1  H2  EPW O   H1  H2  EPW O   H1  H2  EPW O   H1  H2  EPW O   H1  H2  
EPW O   H1  H2  EPW O   H1  H2  EPW O   H1  H2  EPW O   H1  H2  EPW O   H1  H2  
EPW O   H1  H2  EPW O   H1  H2  EPW O   H1  H2  EPW O   H1  H2  EPW O   H1  H2  
EPW O   H1  H2  EPW O   H1  H2  EPW O   H1  H2  EPW O   H1  H2  EPW O   H1  H2  
EPW O   H1  H2  EPW O   H1  H2  EPW O   H1  H2  EPW O   H1  H2  EPW O   H1  H2  
EPW O   H1  H2  EPW O   H1  H2  EPW O   H1  H2  EPW O   H1  H2  EPW O   H1  H2  
EPW O   H1  H2  EPW O   H1  H2  EPW O   H1  H2  EPW O   H1  H2  EPW O   H1  H2  
EPW O   H1  H2  EPW O   H1  H2  EPW O   H1  H2  EPW O   H1  H2  EPW O   H1  H2  
EPW O   H1  H2  EPW O   H1  H2  EPW O   H1  H2  EPW O   H1  H2  EPW O   H1  H2  
EPW O   H1  H2  EPW O   H1  H2  EPW O   H1  H2  EPW O   H1  H2  EPW O   H1  H2  
EPW O   H1  H2  EPW O   H1  H2  EPW O   H1  H2  EPW O   H1  H2  EPW O   H1  H2  
EPW O   H1  H2  EPW O   H1  H2  EPW O   H1  H2  EPW O   H1  H2  EPW O   H1  H2  
EPW O   H1  H2  EPW O   H1  H2  EPW O   H1  H2  EPW O   H1  H2  EPW O   H1  H2  
EPW O   H1  H2  EPW O   H1  H2  EPW O   H1  H2  EPW O   H1  H2  EPW O   H1  H2  
EPW O   H1  H2  EPW O   H1  H2  EPW O   H1  H2  EPW O   H1  H2  EPW O   H1  H2  
EPW O   H1  H2  EPW O   H1  H2  EPW O   H1  H2  EPW O   H1  H2  EPW O   H1  H2  
EPW O   H1  H2  EPW O   H1  H2  EPW O   H1  H2  EPW O   H1  H2  EPW O   H1  H2  
EPW O   H1  H2  EPW O   H1  H2  EPW O   H1  H2  EPW O   H1  H2  EPW O   H1  H2  
EPW O   H1  H2  EPW O   H1  H2  EPW O   H1  H2  EPW O   H1  H2  EPW O   H1  H2  
EPW O   H1  H2  EPW O   H1  H2  EPW O   H1  H2  EPW O   H1  H2  EPW O   H1  H2  
EPW O   H1  H2  EPW O   H1  H2  EPW O   H1  H2  EPW O   H1  H2  EPW O   H1  H2  
EPW O   H1  H2  EPW O   H1  H2  EPW O   H1  H2  EPW O   H1  H2  EPW O   H1  H2  
EPW O   H1  H2  EPW O   H1  H2  EPW O   H1  H2  EPW O   H1  H2  EPW O   H1  H2  
EPW O   H1  H2  EPW O   H1  H2  EPW O   H1  H2  EPW O   H1  H2  EPW O   H1  H2  
EPW O   H1  H2  EPW O   H1  H2  EPW O   H1  H2  EPW O   H1  H2  EPW O   H1  H2  
EPW O   H1  H2  EPW O   H1  H2  EPW O   H1  H2  EPW O   H1  H2  EPW O   H1  H2  
EPW O   H1  H2  EPW O   H1  H2  EPW O   H1  H2  EPW O   H1  H2  EPW O   H1  H2  
EPW O   H1  H2  EPW O   H1  H2  EPW O   H1  H2  EPW O   H1  H2  EPW O   H1  H2  
EPW O   H1  H2  EPW O   H1  H2  EPW O   H1  H2  EPW O   H1  H2  EPW O   H1  H2  
EPW O   H1  H2  EPW O   H1  H2  EPW O   H1  H2  EPW O   H1  H2  EPW O   H1  H2  
EPW O   H1  H2  EPW O   H1  H2  EPW O   H1  H2  EPW O   H1  H2  EPW O   H1  H2  
EPW O   H1  H2  EPW O   H1  H2  EPW O   H1  H2  EPW O   H1  H2  EPW O   H1  H2  
EPW O   H1  H2  EPW O   H1  H2  EPW O   H1  H2  EPW O   H1  H2  EPW O   H1  H2  
EPW O   H1  H2  EPW O   H1  H2  EPW O   H1  H2  EPW O   H1  H2  EPW O   H1  H2  
EPW O   H1  H2  EPW O   H1  H2  EPW O   H1  H2  EPW O   H1  H2  EPW O   H1  H2  
EPW O   H1  H2  EPW O   H1  H2  EPW O   H1  H2  EPW O   H1  H2  EPW O   H1  H2  
EPW O   H1  H2  EPW O   H1  H2  EPW O   H1  H2  EPW O   H1  H2  EPW O   H1  H2  
EPW O   H1  H2  EPW O   H1  H2  EPW O   H1  H2  EPW O   H1  H2  EPW O   H1  H2  
EPW O   H1  H2  EPW O   H1  H2  EPW O   H1  H2  EPW O   H1  H2  EPW O   H1  H2  
EPW O   H1  H2  EPW O   H1  H2  EPW O   H1  H2  EPW O   H1  H2  EPW O   H1  H2  
EPW O   H1  H2  EPW O   H1  H2  EPW O   H1  H2  EPW O   H1  H2  EPW O   H1  H2  
EPW O   H1  H2  EPW O   H1  H2  EPW O   H1  H2  EPW O   H1  H2  EPW O   H1  H2  
EPW O   H1  H2  EPW O   H1  H2  EPW O   H1  H2  EPW O   H1  H2  EPW O   H1  H2  
EPW O   H1  H2  EPW O   H1  H2  EPW O   H1  H2  EPW O   H1  H2  EPW O   H1  H2  
EPW O   H1  H2  EPW O   H1  H2  EPW O   H1  H2  EPW O   H1  H2  EPW O   H1  H2  
EPW O   H1  H2  EPW O   H1  H2  EPW O   H1  H2  EPW O   H1  H2  EPW O   H1  H2  
EPW O   H1  H2  EPW O   H1  H2  EPW O   H1  H2  EPW O   H1  H2  EPW O   H1  H2  
EPW O   H1  H2  EPW O   H1  H2  EPW O   H1  H2  EPW O   H1  H2  EPW O   H1  H2  
EPW O   H1  H2  EPW O   H1  H2  EPW O   H1  H2  EPW O   H1  H2  EPW O   H1  H2  
EPW O   H1  H2  EPW O   H1  H2  EPW O   H1  H2  EPW O   H1  H2  EPW O   H1  H2  
EPW O   H1  H2  EPW O   H1  H2  EPW O   H1  H2  EPW O   H1  H2  EPW O   H1  H2  
EPW O   H1  H2  EPW O   H1  H2  EPW O   H1  H2  EPW O   H1  H2  EPW O   H1  H2  
EPW O   H1  H2  EPW O   H1  H2  EPW O   H1  H2  EPW O   H1  H2  EPW O   H1  H2  
EPW O   H1  H2  EPW O   H1  H2  EPW O   H1  H2  EPW O   H1  H2  EPW O   H1  H2  
EPW O   H1  H2  EPW O   H1  H2  EPW O   H1  H2  EPW O   H1  H2  EPW O   H1  H2  
EPW O   H1  H2  EPW O   H1  H2  EPW O   H1  H2  EPW O   H1  H2  EPW O   H1  H2  
EPW O   H1  H2  EPW O   H1  H2  EPW O   H1  H2  EPW O   H1  H2  EPW O   H1  H2  
EPW O   H1  H2  EPW O   H1  H2  EPW O   H1  H2  EPW O   H1  H2  EPW O   H1  H2  
EPW O   H1  H2  EPW O   H1  H2  EPW O   H1  H2  EPW O   H1  H2  EPW O   H1  H2  
EPW O   H1  H2  EPW O   H1  H2  EPW O   H1  H2  EPW O   H1  H2  EPW O   H1  H2  
EPW O   H1  H2  EPW O   H1  H2  EPW O   H1  H2  EPW O   H1  H2  EPW O   H1  H2  
EPW O   H1  H2  EPW O   H1  H2  EPW O   H1  H2  EPW O   H1  H2  EPW O   H1  H2  
EPW O   H1  H2  EPW O   H1  H2  EPW O   H1  H2  EPW O   H1  H2  EPW O   H1  H2  
EPW O   H1  H2  EPW O   H1  H2  EPW O   H1  H2  EPW O   H1  H2  EPW O   H1  H2  
EPW O   H1  H2  EPW O   H1  H2  EPW O   H1  H2  EPW O   H1  H2  EPW O   H1  H2  
EPW O   H1  H2  EPW O   H1  H2  EPW O   H1  H2  EPW O   H1  H2  EPW O   H1  H2  
EPW O   H1  H2  EPW O   H1  H2  EPW O   H1  H2  EPW O   H1  H2  EPW O   H1  H2  
EPW O   H1  H2  EPW O   H1  H2  EPW O   H1  H2  EPW O   H1  H2  EPW O   H1  H2  
EPW O   H1  H2  EPW O   H1  H2  EPW O   H1  H2  EPW O   H1  H2  EPW O   H1  H2  
EPW O   H1  H2  EPW O   H1  H2  EPW O   H1  H2  EPW O   H1  H2  EPW O   H1  H2  
EPW O   H1  H2  EPW O   H1  H2  EPW O   H1  H2  EPW O   H1  H2  EPW O   H1  H2  
EPW O   H1  H2  EPW O   H1  H2  EPW O   H1  H2  EPW O   H1  H2  EPW O   H1  H2  
EPW O   H1  H2  EPW O   H1  H2  EPW O   H1  H2  EPW O   H1  H2  EPW O   H1  H2  
EPW O   H1  H2  EPW O   H1  H2  EPW O   H1  H2  EPW O   H1  H2  EPW O   H1  H2  
EPW O   H1  H2  EPW O   H1  H2  EPW O   H1  H2  EPW O   H1  H2  EPW O   H1  H2  
EPW O   H1  H2  EPW O   H1  H2  EPW O   H1  H2  EPW O   H1  H2  EPW O   H1  H2  
EPW O   H1  H2  EPW O   H1  H2  EPW O   H1  H2  EPW O   H1  H2  EPW O   H1  H2  
EPW O   H1  H2  EPW O   H1  H2  EPW O   H1  H2  EPW O   H1  H2  EPW O   H1  H2  
EPW O   H1  H2  EPW O   H1  H2  EPW O   H1  H2  EPW O   H1  H2  EPW O   H1  H2  
EPW O   H1  H2  EPW O   H1  H2  EPW O   H1  H2  EPW O   H1  H2  EPW O   H1  H2  
EPW O   H1  H2  EPW O   H1  H2  EPW O   H1  H2  EPW O   H1  H2  EPW O   H1  H2  
EPW O   H1  H2  EPW O   H1  H2  EPW O   H1  H2  EPW O   H1  H2  EPW O   H1  H2  
EPW O   H1  H2  EPW O   H1  H2  EPW O   H1  H2  EPW O   H1  H2  EPW O   H1  H2  
EPW O   H1  H2  EPW O   H1  H2  EPW O   H1  H2  EPW O   H1  H2  EPW O   H1  H2  
EPW O   H1  H2  EPW O   H1  H2  EPW O   H1  H2  EPW O   H1  H2  EPW O   H1  H2  
EPW O   H1  H2  EPW O   H1  H2  EPW O   H1  H2  EPW O   H1  H2  EPW O   H1  H2  
EPW O   H1  H2  EPW O   H1  H2  EPW O   H1  H2  EPW O   H1  H2  EPW O   H1  H2  
EPW O   H1  H2  EPW O   H1  H2  EPW O   H1  H2  EPW O   H1  H2  EPW O   H1  H2  
EPW O   H1  H2  EPW O   H1  H2  EPW O   H1  H2  EPW O   H1  H2  EPW O   H1  H2  
EPW O   H1  H2  EPW O   H1  H2  EPW O   H1  H2  EPW O   H1  H2  EPW O   H1  H2  
EPW O   H1  H2  EPW O   H1  H2  EPW O   H1  H2  EPW O   H1  H2  EPW O   H1  H2  
EPW O   H1  H2  EPW O   H1  H2  EPW O   H1  H2  EPW O   H1  H2  EPW O   H1  H2  
EPW O   H1  H2  EPW O   H1  H2  EPW O   H1  H2  EPW O   H1  H2  EPW O   H1  H2  
EPW O   H1  H2  EPW O   H1  H2  EPW O   H1  H2  EPW O   H1  H2  EPW O   H1  H2  
EPW O   H1  H2  EPW O   H1  H2  EPW O   H1  H2  EPW O   H1  H2  EPW O   H1  H2  
EPW O   H1  H2  EPW O   H1  H2  EPW O   H1  H2  EPW O   H1  H2  EPW O   H1  H2  
EPW O   H1  H2  EPW O   H1  H2  EPW O   H1  H2  EPW O   H1  H2  EPW O   H1  H2  
EPW O   H1  H2  EPW O   H1  H2  EPW O   H1  H2  EPW O   H1  H2  EPW O   H1  H2  
EPW O   H1  H2  EPW O   H1  H2  EPW O   H1  H2  EPW O   H1  H2  EPW O   H1  H2  
EPW O   H1  H2  EPW O   H1  H2  EPW O   H1  H2  EPW O   H1  H2  EPW O   H1  H2  
EPW O   H1  H2  EPW O   H1  H2  EPW O   H1  H2  EPW O   H1  H2  EPW O   H1  H2  
EPW O   H1  H2  EPW O   H1  H2  EPW O   H1  H2  EPW O   H1  H2  EPW O   H1  H2  
EPW O   H1  H2  EPW O   H1  H2  EPW O   H1  H2  EPW O   H1  H2  EPW O   H1  H2  
EPW O   H1  H2  EPW O   H1  H2  EPW O   H1  H2  EPW O   H1  H2  EPW O   H1  H2  
EPW O   H1  H2  EPW O   H1  H2  EPW O   H1  H2  EPW O   H1  H2  EPW O   H1  H2  
EPW O   H1  H2  EPW O   H1  H2  EPW O   H1  H2  EPW O   H1  H2  EPW O   H1  H2  
EPW O   H1  H2  EPW O   H1  H2  EPW O   H1  H2  EPW O   H1  H2  EPW O   H1  H2  
EPW O   H1  H2  EPW O   H1  H2  EPW O   H1  H2  EPW O   H1  H2  EPW O   H1  H2  
EPW O   H1  H2  EPW O   H1  H2  EPW O   H1  H2  EPW O   H1  H2  EPW O   H1  H2  
EPW O   H1  H2  EPW O   H1  H2  EPW O   H1  H2  EPW O   H1  H2  EPW O   H1  H2  
EPW O   H1  H2  EPW O   H1  H2  EPW O   H1  H2  EPW O   H1  H2  EPW O   H1  H2  
EPW O   H1  H2  EPW O   H1  H2  EPW O   H1  H2  EPW O   H1  H2  EPW O   H1  H2  
EPW O   H1  H2  EPW O   H1  H2  EPW O   H1  H2  EPW O   H1  H2  EPW O   H1  H2  
EPW O   H1  H2  EPW O   H1  H2  EPW O   H1  H2  EPW O   H1  H2  EPW O   H1  H2  
EPW O   H1  H2  EPW O   H1  H2  EPW O   H1  H2  EPW O   H1  H2  EPW O   H1  H2  
EPW O   H1  H2  EPW O   H1  H2  EPW O   H1  H2  EPW O   H1  H2  EPW O   H1  H2  
EPW O   H1  H2  EPW O   H1  H2  EPW O   H1  H2  EPW O   H1  H2  EPW O   H1  H2  
EPW O   H1  H2  EPW O   H1  H2  EPW O   H1  H2  EPW O   H1  H2  EPW O   H1  H2  
EPW O   H1  H2  EPW O   H1  H2  EPW 
%FLAG CHARGE                                                                    
%FORMAT(5E16.8)                                                                 
  2.04636429E+00 -6.67300626E+00  2.04636429E+00  2.04636429E+00  1.08823576E+01
 -1.03484442E+01 -7.57501011E+00  4.95464337E+00 -5.01113250E-01  2.04636429E+00
 -9.11115000E-02  6.17735970E-01  6.17735970E-01 -2.57845545E+00 -2.98481274E+00
  3.75743826E+00 -6.22838214E+00  6.21744876E+00  2.51467740E+00 -4.73962023E+00
  2.86454556E+00 -2.06640882E+00  2.58209991E+00 -3.59343756E+00  2.63676681E+00
 -4.34966301E+00  3.09779100E+00  2.26503189E+00  1.08841798E+01 -1.03484442E+01
 -7.57501011E+00  4.95464337E+00 -1.59445125E+00  1.76574087E+00  5.43935655E+00
 -5.41202310E-01 -5.81655816E+00  1.44138393E+00  1.44138393E+00  1.44138393E+00
 -5.81655816E+00  1.44138393E+00  1.44138393E+00  1.44138393E+00  1.08841798E+01
 -1.03484442E+01 -7.57501011E+00  4.95464337E+00 -7.08847470E-01  1.83498561E+00
  6.65842842E+00  7.83558900E-02 -4.44259674E+00  1.16987166E+00  1.16987166E+00
  1.16987166E+00 -1.23200970E+01  7.47478746E+00  1.08841798E+01 -1.03484442E+01
 -7.57501011E+00  4.95464337E+00  3.42579240E-01  1.60538463E+00 -8.41870260E-01
  7.32536460E-01  7.32536460E-01 -4.84713180E-01 -6.94451853E+00  6.64931727E+00
  3.74832711E+00  2.53654416E+00 -1.04359112E+01  2.35432116E+00  2.09009781E+00
  1.08841798E+01 -1.03484442E+01 -6.33953817E+00  5.00566581E+00 -4.80522051E+00
  2.84267880E+00 -1.27556100E-02  5.95869210E-01  5.95869210E-01  7.10669700E-01
  5.19335550E-01  5.19335550E-01  8.85603780E-01  1.25187201E+00  1.25187201E+00
 -9.64870785E+00  6.29762688E+00  1.47163295E+01 -1.57203782E+01  8.15994594E+00
  8.15994594E+00 -1.57203782E+01  8.15994594E+00  8.15994594E+00  1.33769904E+01
 -1.07402236E+01  1.48949080E+01 -1.10736917E+01  1.39036149E+00 -5.51406798E+00
 -5.72180220E-01  1.00222650E-01  1.86778575E+00 -4.54828608E+00 -4.54828608E+00
  1.00222650E-01 -1.24585865E+01  1.83316338E+00  1.83316338E+00  1.83316338E+00
  5.04757710E-01  5.04757710E-01  4.10001750E-01  4.10001750E-01  3.40757010E-01
  3.40757010E-01  2.54929977E+00  2.54929977E+00  3.40757010E-01  3.40757010E-01
  6.23749329E+00 -7.57501011E+00  4.95464337E+00  6.14091510E-01  1.49969529E+00
 -3.32556975E+00  1.09880469E+00  1.09880469E+00  1.09880469E+00  1.08841798E+01
 -1.03484442E+01 -7.57501011E+00  4.95464337E+00 -4.59201960E-01  1.27191654E+00
  1.27191654E+00  1.08841798E+01 -1.03484442E+01 -7.57501011E+00  4.95464337E+00
 -9.43915140E-01  1.68009606E+00 -2.00809746E+00  8.32759110E-01  8.32759110E-01
  6.43429413E+00 -6.57825030E-01 -7.50940983E+00  1.82223000E+00  1.82223000E+00
  1.82223000E+00 -7.50940983E+00  1.82223000E+00  1.82223000E+00  1.82223000E+00
  1.08841798E+01 -1.03484442E+01  1.48949080E+01 -1.10736917E+01  1.39036149E+00
 -5.51406798E+00 -5.72180220E-01  1.00222650E-01 -1.24585865E+01  1.83316338E+00
  1.83316338E+00  1.83316338E+00  5.04757710E-01  5.04757710E-01  4.10001750E-01
  4.10001750E-01  6.23749329E+00 -7.57501011E+00  4.95464337E+00 -4.53735270E-01
  1.53613989E+00  3.85766091E+00  6.41424960E-01  6.41424960E-01 -1.19283176E+01
  7.79003325E+00  1.08841798E+01 -1.03484442E+01 -6.33953817E+00  5.00566581E+00
 -4.80522051E+00  2.84267880E+00 -1.27556100E-02  5.95869210E-01  5.95869210E-01
  7.10669700E-01  5.19335550E-01  5.19335550E-01  8.85603780E-01  1.25187201E+00
  1.25187201E+00 -9.64870785E+00  6.29762688E+00  1.47163295E+01 -1.57203782E+01
  8.15994594E+00  8.15994594E+00 -1.57203782E+01  8.15994594E+00  8.15994594E+00
  1.33769904E+01 -1.07402236E+01 -7.57501011E+00  4.95464337E+00 -4.53735270E-01
  1.53613989E+00  3.85766091E+00  6.41424960E-01  6.41424960E-01 -1.19283176E+01
  7.79003325E+00  1.08841798E+01 -1.03484442E+01 -7.57501011E+00  4.95464337E+00
 -4.59201960E-01  1.27191654E+00  1.27191654E+00  1.08841798E+01 -1.03484442E+01
 -7.57501011E+00  4.95464337E+00 -4.59201960E-01  1.27191654E+00  1.27191654E+00
  1.08841798E+01 -1.03484442E+01 -7.57501011E+00  4.95464337E+00 -1.59445125E+00
  1.76574087E+00  5.43935655E+00 -5.41202310E-01 -5.81655816E+00  1.44138393E+00
  1.44138393E+00  1.44138393E+00 -5.81655816E+00  1.44138393E+00  1.44138393E+00
  1.44138393E+00  1.08841798E+01 -1.03484442E+01 -7.57501011E+00  4.95464337E+00
 -1.59445125E+00  1.76574087E+00  5.43935655E+00 -5.41202310E-01 -5.81655816E+00
  1.44138393E+00  1.44138393E+00  1.44138393E+00 -5.81655816E+00  1.44138393E+00
  1.44138393E+00  1.44138393E+00  1.08841798E+01 -1.03484442E+01 -6.33953817E+00
  5.00566581E+00 -4.37335200E+00  2.59849998E+00 -1.71289620E-01  6.59647260E-01
  6.59647260E-01  3.40757010E-01  1.87689690E-01  1.87689690E-01 -8.72848170E-01
  1.13160483E+00  1.13160483E+00 -2.60578890E-01  2.06823105E+00  2.06823105E+00
 -7.02287442E+00  6.19558200E+00  6.19558200E+00  6.19558200E+00  1.33769904E+01
 -1.07402236E+01 -7.57501011E+00  4.95464337E+00  2.60578890E-01  1.90969704E+00
 -3.71917143E+00  1.45231731E+00  1.45231731E+00  1.29924999E+01 -1.08076461E+01
 -1.67481159E+01  7.64607708E+00  7.64607708E+00  1.08841798E+01 -1.03484442E+01
 -7.57501011E+00  4.95464337E+00  2.60578890E-01  1.90969704E+00 -3.71917143E+00
  1.45231731E+00  1.45231731E+00  1.29924999E+01 -1.08076461E+01 -1.67481159E+01
  7.64607708E+00  7.64607708E+00  1.08841798E+01 -1.03484442E+01 -7.57501011E+00
  4.95464337E+00 -4.37335200E-02  1.78214094E+00 -6.25024890E-01  5.37557850E-01
  5.37557850E-01  2.15023140E-01 -2.28872088E+00  2.42356590E+00 -3.10507992E+00
  2.60578890E+00 -1.95343056E+00  2.36343231E+00 -3.10507992E+00  2.60578890E+00
 -2.28872088E+00  2.42356590E+00  1.08841798E+01 -1.03484442E+01 -7.57501011E+00
  4.95464337E+00 -1.59445125E+00  1.76574087E+00  5.43935655E+00 -5.41202310E-01
 -5.81655816E+00  1.44138393E+00  1.44138393E+00  1.44138393E+00 -5.81655816E+00
  1.44138393E+00  1.44138393E+00  1.44138393E+00  1.08841798E+01 -1.03484442E+01
 -4.64304204E+00  3.49868160E-01  7.12491930E-01  7.12491930E-01  3.44401470E-01
  3.88134990E-01  3.88134990E-01 -1.27556100E-01  4.61024190E-01  4.61024190E-01
 -4.84713180E-01  1.16804943E+00  1.07438681E+01 -1.04741780E+01 -7.57501011E+00
  4.95464337E+00 -7.08847470E-01  1.83498561E+00  6.65842842E+00  7.83558900E-02
 -4.44259674E+00  1.16987166E+00  1.16987166E+00  1.16987166E+00 -1.23200970E+01
  7.47478746E+00  1.08841798E+01 -1.03484442E+01 -9.40817349E+00  5.35006728E+00
  6.94269630E-01  1.60356240E+00 -5.52135690E-01 -2.22312060E-01 -2.22312060E-01
  1.45669066E+01 -1.46033512E+01 -1.46033512E+01  9.77808618E+00 -1.06035564E+01
 -7.57501011E+00  4.95464337E+00 -1.59445125E+00  1.76574087E+00  5.43935655E+00
 -5.41202310E-01 -5.81655816E+00  1.44138393E+00  1.44138393E+00  1.44138393E+00
 -5.81655816E+00  1.44138393E+00  1.44138393E+00  1.44138393E+00  1.08841798E+01
 -1.03484442E+01 -7.57501011E+00  4.95464337E+00 -4.59201960E-01  1.27191654E+00
  1.27191654E+00  1.08841798E+01 -1.03484442E+01 -4.64304204E+00  3.49868160E-01
  7.12491930E-01  7.12491930E-01  3.44401470E-01  3.88134990E-01  3.88134990E-01
 -1.27556100E-01  4.61024190E-01  4.61024190E-01 -4.84713180E-01  1.16804943E+00
  1.07438681E+01 -1.04741780E+01 -7.57501011E+00  4.95464337E+00 -4.37335200E-02
  1.78214094E+00 -6.25024890E-01  5.37557850E-01  5.37557850E-01  2.15023140E-01
 -2.28872088E+00  2.42356590E+00 -3.10507992E+00  2.60578890E+00 -1.95343056E+00
  2.36343231E+00 -3.10507992E+00  2.60578890E+00 -2.28872088E+00  2.42356590E+00
  1.08841798E+01 -1.03484442E+01 -7.57501011E+00  4.95464337E+00  6.14091510E-01
  1.49969529E+00 -3.32556975E+00  1.09880469E+00  1.09880469E+00  1.09880469E+00
  1.08841798E+01 -1.03484442E+01 -7.57501011E+00  4.95464337E+00 -4.37335200E-02
  1.78214094E+00 -6.25024890E-01  5.37557850E-01  5.37557850E-01  2.15023140E-01
 -2.28872088E+00  2.42356590E+00 -3.10507992E+00  2.60578890E+00 -1.95343056E+00
  2.36343231E+00 -3.10507992E+00  2.60578890E+00 -2.28872088E+00  2.42356590E+00
  1.08841798E+01 -1.03484442E+01 -8.43692490E+00  4.21846245E+00  4.21846245E+00
  1.82223000E+01  1.82223000E+01  1.82223000E+01  1.82223000E+01  1.82223000E+01
  1.82223000E+01  1.82223000E+01  1.82223000E+01  1.82223000E+01  1.82223000E+01
  1.82223000E+01  1.82223000E+01  1.82223000E+01  1.82223000E+01  1.82223000E+01
  1.82223000E+01  1.82223000E+01  1.82223000E+01  1.82223000E+01  1.82223000E+01
  1.82223000E+01 -1.82223000E+01 -1.82223000E+01 -1.82223000E+01 -1.82223000E+01
 -1.82223000E+01 -1.82223000E+01 -1.82223000E+01 -1.82223000E+01 -1.82223000E+01
 -1.82223000E+01 -1.82223000E+01 -1.82223000E+01 -1.82223000E+01 -1.82223000E+01
 -1.82223000E+01 -1.82223000E+01 -1.82223000E+01 -1.82223000E+01 -1.82223000E+01
 -1.82223000E+01 -1.82223000E+01 -1.82223000E+01 -1.82223000E+01  0.00000000E+00
  1.23755293E+01  1.23755293E+01 -2.47510585E+01  0.00000000E+00  1.23755293E+01
  1.23755293E+01 -2.47510585E+01  0.00000000E+00  1.23755293E+01  1.23755293E+01
 -2.47510585E+01  0.00000000E+00  1.23755293E+01  1.23755293E+01 -2.47510585E+01
  0.00000000E+00  1.23755293E+01  1.23755293E+01 -2.47510585E+01  0.00000000E+00
  1.23755293E+01  1.23755293E+01 -2.47510585E+01  0.00000000E+00  1.23755293E+01
  1.23755293E+01 -2.47510585E+01  0.00000000E+00  1.23755293E+01  1.23755293E+01
 -2.47510585E+01  0.00000000E+00  1.23755293E+01  1.23755293E+01 -2.47510585E+01
  0.00000000E+00  1.23755293E+01  1.23755293E+01 -2.47510585E+01  0.00000000E+00
  1.23755293E+01  1.23755293E+01 -2.47510585E+01  0.00000000E+00  1.23755293E+01
  1.23755293E+01 -2.47510585E+01  0.00000000E+00  1.23755293E+01  1.23755293E+01
 -2.47510585E+01  0.00000000E+00  1.23755293E+01  1.23755293E+01 -2.47510585E+01
  0.00000000E+00  1.23755293E+01  1.23755293E+01 -2.47510585E+01  0.00000000E+00
  1.23755293E+01  1.23755293E+01 -2.47510585E+01  0.00000000E+00  1.23755293E+01
  1.23755293E+01 -2.47510585E+01  0.00000000E+00  1.23755293E+01  1.23755293E+01
 -2.47510585E+01  0.00000000E+00  1.23755293E+01  1.23755293E+01 -2.47510585E+01
  0.00000000E+00  1.23755293E+01  1.23755293E+01 -2.47510585E+01  0.00000000E+00
  1.23755293E+01  1.23755293E+01 -2.47510585E+01  0.00000000E+00  1.23755293E+01
  1.23755293E+01 -2.47510585E+01  0.00000000E+00  1.23755293E+01  1.23755293E+01
 -2.47510585E+01  0.00000000E+00  1.23755293E+01  1.23755293E+01 -2.47510585E+01
  0.00000000E+00  1.23755293E+01  1.23755293E+01 -2.47510585E+01  0.00000000E+00
  1.23755293E+01  1.23755293E+01 -2.47510585E+01  0.00000000E+00  1.23755293E+01
  1.23755293E+01 -2.47510585E+01  0.00000000E+00  1.23755293E+01  1.23755293E+01
 -2.47510585E+01  0.00000000E+00  1.23755293E+01  1.23755293E+01 -2.47510585E+01
  0.00000000E+00  1.23755293E+01  1.23755293E+01 -2.47510585E+01  0.00000000E+00
  1.23755293E+01  1.23755293E+01 -2.47510585E+01  0.00000000E+00  1.23755293E+01
  1.23755293E+01 -2.47510585E+01  0.00000000E+00  1.23755293E+01  1.23755293E+01
 -2.47510585E+01  0.00000000E+00  1.23755293E+01  1.23755293E+01 -2.47510585E+01
  0.00000000E+00  1.23755293E+01  1.23755293E+01 -2.47510585E+01  0.00000000E+00
  1.23755293E+01  1.23755293E+01 -2.47510585E+01  0.00000000E+00  1.23755293E+01
  1.23755293E+01 -2.47510585E+01  0.00000000E+00  1.23755293E+01  1.23755293E+01
 -2.47510585E+01  0.00000000E+00  1.23755293E+01  1.23755293E+01 -2.47510585E+01
  0.00000000E+00  1.23755293E+01  1.23755293E+01 -2.47510585E+01  0.00000000E+00
  1.23755293E+01  1.23755293E+01 -2.47510585E+01  0.00000000E+00  1.23755293E+01
  1.23755293E+01 -2.47510585E+01  0.00000000E+00  1.23755293E+01  1.23755293E+01
 -2.47510585E+01  0.00000000E+00  1.23755293E+01  1.23755293E+01 -2.47510585E+01
  0.00000000E+00  1.23755293E+01  1.23755293E+01 -2.47510585E+01  0.00000000E+00
  1.23755293E+01  1.23755293E+01 -2.47510585E+01  0.00000000E+00  1.23755293E+01
  1.23755293E+01 -2.47510585E+01  0.00000000E+00  1.23755293E+01  1.23755293E+01
 -2.47510585E+01  0.00000000E+00  1.23755293E+01  1.23755293E+01 -2.47510585E+01
  0.00000000E+00  1.23755293E+01  1.23755293E+01 -2.47510585E+01  0.00000000E+00
  1.23755293E+01  1.23755293E+01 -2.47510585E+01  0.00000000E+00  1.23755293E+01
  1.23755293E+01 -2.47510585E+01  0.00000000E+00  1.23755293E+01  1.23755293E+01
 -2.47510585E+01  0.00000000E+00  1.23755293E+01  1.23755293E+01 -2.47510585E+01
  0.00000000E+00  1.23755293E+01  1.23755293E+01 -2.47510585E+01  0.00000000E+00
  1.23755293E+01  1.23755293E+01 -2.47510585E+01  0.00000000E+00  1.23755293E+01
  1.23755293E+01 -2.47510585E+01  0.00000000E+00  1.23755293E+01  1.23755293E+01
 -2.47510585E+01  0.00000000E+00  1.23755293E+01  1.23755293E+01 -2.47510585E+01
  0.00000000E+00  1.23755293E+01  1.23755293E+01 -2.47510585E+01  0.00000000E+00
  1.23755293E+01  1.23755293E+01 -2.47510585E+01  0.00000000E+00  1.23755293E+01
  1.23755293E+01 -2.47510585E+01  0.00000000E+00  1.23755293E+01  1.23755293E+01
 -2.47510585E+01  0.00000000E+00  1.23755293E+01  1.23755293E+01 -2.47510585E+01
  0.00000000E+00  1.23755293E+01  1.23755293E+01 -2.47510585E+01  0.00000000E+00
  1.23755293E+01  1.23755293E+01 -2.47510585E+01  0.00000000E+00  1.23755293E+01
  1.23755293E+01 -2.47510585E+01  0.00000000E+00  1.23755293E+01  1.23755293E+01
 -2.47510585E+01  0.00000000E+00  1.23755293E+01  1.23755293E+01 -2.47510585E+01
  0.00000000E+00  1.23755293E+01  1.23755293E+01 -2.47510585E+01  0.00000000E+00
  1.23755293E+01  1.23755293E+01 -2.47510585E+01  0.00000000E+00  1.23755293E+01
  1.23755293E+01 -2.47510585E+01  0.00000000E+00  1.23755293E+01  1.23755293E+01
 -2.47510585E+01  0.00000000E+00  1.23755293E+01  1.23755293E+01 -2.47510585E+01
  0.00000000E+00  1.23755293E+01  1.23755293E+01 -2.47510585E+01  0.00000000E+00
  1.23755293E+01  1.23755293E+01 -2.47510585E+01  0.00000000E+00  1.23755293E+01
  1.23755293E+01 -2.47510585E+01  0.00000000E+00  1.23755293E+01  1.23755293E+01
 -2.47510585E+01  0.00000000E+00  1.23755293E+01  1.23755293E+01 -2.47510585E+01
  0.00000000E+00  1.23755293E+01  1.23755293E+01 -2.47510585E+01  0.00000000E+00
  1.23755293E+01  1.23755293E+01 -2.47510585E+01  0.00000000E+00  1.23755293E+01
  1.23755293E+01 -2.47510585E+01  0.00000000E+00  1.23755293E+01  1.23755293E+01
 -2.47510585E+01  0.00000000E+00  1.23755293E+01  1.23755293E+01 -2.47510585E+01
  0.00000000E+00  1.23755293E+01  1.23755293E+01 -2.47510585E+01  0.00000000E+00
  1.23755293E+01  1.23755293E+01 -2.47510585E+01  0.00000000E+00  1.23755293E+01
  1.23755293E+01 -2.47510585E+01  0.00000000E+00  1.23755293E+01  1.23755293E+01
 -2.47510585E+01  0.00000000E+00  1.23755293E+01  1.23755293E+01 -2.47510585E+01
  0.00000000E+00  1.23755293E+01  1.23755293E+01 -2.47510585E+01  0.00000000E+00
  1.23755293E+01  1.23755293E+01 -2.47510585E+01  0.00000000E+00  1.23755293E+01
  1.23755293E+01 -2.47510585E+01  0.00000000E+00  1.23755293E+01  1.23755293E+01
 -2.47510585E+01  0.00000000E+00  1.23755293E+01  1.23755293E+01 -2.47510585E+01
  0.00000000E+00  1.23755293E+01  1.23755293E+01 -2.47510585E+01  0.00000000E+00
  1.23755293E+01  1.23755293E+01 -2.47510585E+01  0.00000000E+00  1.23755293E+01
  1.23755293E+01 -2.47510585E+01  0.00000000E+00  1.23755293E+01  1.23755293E+01
 -2.47510585E+01  0.00000000E+00  1.23755293E+01  1.23755293E+01 -2.47510585E+01
  0.00000000E+00  1.23755293E+01  1.23755293E+01 -2.47510585E+01  0.00000000E+00
  1.23755293E+01  1.23755293E+01 -2.47510585E+01  0.00000000E+00  1.23755293E+01
  1.23755293E+01 -2.47510585E+01  0.00000000E+00  1.23755293E+01  1.23755293E+01
 -2.47510585E+01  0.00000000E+00  1.23755293E+01  1.23755293E+01 -2.47510585E+01
  0.00000000E+00  1.23755293E+01  1.23755293E+01 -2.47510585E+01  0.00000000E+00
  1.23755293E+01  1.23755293E+01 -2.47510585E+01  0.00000000E+00  1.23755293E+01
  1.23755293E+01 -2.47510585E+01  0.00000000E+00  1.23755293E+01  1.23755293E+01
 -2.47510585E+01  0.00000000E+00  1.23755293E+01  1.23755293E+01 -2.47510585E+01
  0.00000000E+00  1.23755293E+01  1.23755293E+01 -2.47510585E+01  0.00000000E+00
  1.23755293E+01  1.23755293E+01 -2.47510585E+01  0.00000000E+00  1.23755293E+01
  1.23755293E+01 -2.47510585E+01  0.00000000E+00  1.23755293E+01  1.23755293E+01
 -2.47510585E+01  0.00000000E+00  1.23755293E+01  1.23755293E+01 -2.47510585E+01
  0.00000000E+00  1.23755293E+01  1.23755293E+01 -2.47510585E+01  0.00000000E+00
  1.23755293E+01  1.23755293E+01 -2.47510585E+01  0.00000000E+00  1.23755293E+01
  1.23755293E+01 -2.47510585E+01  0.00000000E+00  1.23755293E+01  1.23755293E+01
 -2.47510585E+01  0.00000000E+00  1.23755293E+01  1.23755293E+01 -2.47510585E+01
  0.00000000E+00  1.23755293E+01  1.23755293E+01 -2.47510585E+01  0.00000000E+00
  1.23755293E+01  1.23755293E+01 -2.47510585E+01  0.00000000E+00  1.23755293E+01
  1.23755293E+01 -2.47510585E+01  0.00000000E+00  1.23755293E+01  1.23755293E+01
 -2.47510585E+01  0.00000000E+00  1.23755293E+01  1.23755293E+01 -2.47510585E+01
  0.00000000E+00  1.23755293E+01  1.23755293E+01 -2.47510585E+01  0.00000000E+00
  1.23755293E+01  1.23755293E+01 -2.47510585E+01  0.00000000E+00  1.23755293E+01
  1.23755293E+01 -2.47510585E+01  0.00000000E+00  1.23755293E+01  1.23755293E+01
 -2.47510585E+01  0.00000000E+00  1.23755293E+01  1.23755293E+01 -2.47510585E+01
  0.00000000E+00  1.23755293E+01  1.23755293E+01 -2.47510585E+01  0.00000000E+00
  1.23755293E+01  1.23755293E+01 -2.47510585E+01  0.00000000E+00  1.23755293E+01
  1.23755293E+01 -2.47510585E+01  0.00000000E+00  1.23755293E+01  1.23755293E+01
 -2.47510585E+01  0.00000000E+00  1.23755293E+01  1.23755293E+01 -2.47510585E+01
  0.00000000E+00  1.23755293E+01  1.23755293E+01 -2.47510585E+01  0.00000000E+00
  1.23755293E+01  1.23755293E+01 -2.47510585E+01  0.00000000E+00  1.23755293E+01
  1.23755293E+01 -2.47510585E+01  0.00000000E+00  1.23755293E+01  1.23755293E+01
 -2.47510585E+01  0.00000000E+00  1.23755293E+01  1.23755293E+01 -2.47510585E+01
  0.00000000E+00  1.23755293E+01  1.23755293E+01 -2.47510585E+01  0.00000000E+00
  1.23755293E+01  1.23755293E+01 -2.47510585E+01  0.00000000E+00  1.23755293E+01
  1.23755293E+01 -2.47510585E+01  0.00000000E+00  1.23755293E+01  1.23755293E+01
 -2.47510585E+01  0.00000000E+00  1.23755293E+01  1.23755293E+01 -2.47510585E+01
  0.00000000E+00  1.23755293E+01  1.23755293E+01 -2.47510585E+01  0.00000000E+00
  1.23755293E+01  1.23755293E+01 -2.47510585E+01  0.00000000E+00  1.23755293E+01
  1.23755293E+01 -2.47510585E+01  0.00000000E+00  1.23755293E+01  1.23755293E+01
 -2.47510585E+01  0.00000000E+00  1.23755293E+01  1.23755293E+01 -2.47510585E+01
  0.00000000E+00  1.23755293E+01  1.23755293E+01 -2.47510585E+01  0.00000000E+00
  1.23755293E+01  1.23755293E+01 -2.47510585E+01  0.00000000E+00  1.23755293E+01
  1.23755293E+01 -2.47510585E+01  0.00000000E+00  1.23755293E+01  1.23755293E+01
 -2.47510585E+01  0.00000000E+00  1.23755293E+01  1.23755293E+01 -2.47510585E+01
  0.00000000E+00  1.23755293E+01  1.23755293E+01 -2.47510585E+01  0.00000000E+00
  1.23755293E+01  1.23755293E+01 -2.47510585E+01  0.00000000E+00  1.23755293E+01
  1.23755293E+01 -2.47510585E+01  0.00000000E+00  1.23755293E+01  1.23755293E+01
 -2.47510585E+01  0.00000000E+00  1.23755293E+01  1.23755293E+01 -2.47510585E+01
  0.00000000E+00  1.23755293E+01  1.23755293E+01 -2.47510585E+01  0.00000000E+00
  1.23755293E+01  1.23755293E+01 -2.47510585E+01  0.00000000E+00  1.23755293E+01
  1.23755293E+01 -2.47510585E+01  0.00000000E+00  1.23755293E+01  1.23755293E+01
 -2.47510585E+01  0.00000000E+00  1.23755293E+01  1.23755293E+01 -2.47510585E+01
  0.00000000E+00  1.23755293E+01  1.23755293E+01 -2.47510585E+01  0.00000000E+00
  1.23755293E+01  1.23755293E+01 -2.47510585E+01  0.00000000E+00  1.23755293E+01
  1.23755293E+01 -2.47510585E+01  0.00000000E+00  1.23755293E+01  1.23755293E+01
 -2.47510585E+01  0.00000000E+00  1.23755293E+01  1.23755293E+01 -2.47510585E+01
  0.00000000E+00  1.23755293E+01  1.23755293E+01 -2.47510585E+01  0.00000000E+00
  1.23755293E+01  1.23755293E+01 -2.47510585E+01  0.00000000E+00  1.23755293E+01
  1.23755293E+01 -2.47510585E+01  0.00000000E+00  1.23755293E+01  1.23755293E+01
 -2.47510585E+01  0.00000000E+00  1.23755293E+01  1.23755293E+01 -2.47510585E+01
  0.00000000E+00  1.23755293E+01  1.23755293E+01 -2.47510585E+01  0.00000000E+00
  1.23755293E+01  1.23755293E+01 -2.47510585E+01  0.00000000E+00  1.23755293E+01
  1.23755293E+01 -2.47510585E+01  0.00000000E+00  1.23755293E+01  1.23755293E+01
 -2.47510585E+01  0.00000000E+00  1.23755293E+01  1.23755293E+01 -2.47510585E+01
  0.00000000E+00  1.23755293E+01  1.23755293E+01 -2.47510585E+01  0.00000000E+00
  1.23755293E+01  1.23755293E+01 -2.47510585E+01  0.00000000E+00  1.23755293E+01
  1.23755293E+01 -2.47510585E+01  0.00000000E+00  1.23755293E+01  1.23755293E+01
 -2.47510585E+01  0.00000000E+00  1.23755293E+01  1.23755293E+01 -2.47510585E+01
  0.00000000E+00  1.23755293E+01  1.23755293E+01 -2.47510585E+01  0.00000000E+00
  1.23755293E+01  1.23755293E+01 -2.47510585E+01  0.00000000E+00  1.23755293E+01
  1.23755293E+01 -2.47510585E+01  0.00000000E+00  1.23755293E+01  1.23755293E+01
 -2.47510585E+01  0.00000000E+00  1.23755293E+01  1.23755293E+01 -2.47510585E+01
  0.00000000E+00  1.23755293E+01  1.23755293E+01 -2.47510585E+01  0.00000000E+00
  1.23755293E+01  1.23755293E+01 -2.47510585E+01  0.00000000E+00  1.23755293E+01
  1.23755293E+01 -2.47510585E+01  0.00000000E+00  1.23755293E+01  1.23755293E+01
 -2.47510585E+01  0.00000000E+00  1.23755293E+01  1.23755293E+01 -2.47510585E+01
  0.00000000E+00  1.23755293E+01  1.23755293E+01 -2.47510585E+01  0.00000000E+00
  1.23755293E+01  1.23755293E+01 -2.47510585E+01  0.00000000E+00  1.23755293E+01
  1.23755293E+01 -2.47510585E+01  0.00000000E+00  1.23755293E+01  1.23755293E+01
 -2.47510585E+01  0.00000000E+00  1.23755293E+01  1.23755293E+01 -2.47510585E+01
  0.00000000E+00  1.23755293E+01  1.23755293E+01 -2.47510585E+01  0.00000000E+00
  1.23755293E+01  1.23755293E+01 -2.47510585E+01  0.00000000E+00  1.23755293E+01
  1.23755293E+01 -2.47510585E+01  0.00000000E+00  1.23755293E+01  1.23755293E+01
 -2.47510585E+01  0.00000000E+00  1.23755293E+01  1.23755293E+01 -2.47510585E+01
  0.00000000E+00  1.23755293E+01  1.23755293E+01 -2.47510585E+01  0.00000000E+00
  1.23755293E+01  1.23755293E+01 -2.47510585E+01  0.00000000E+00  1.23755293E+01
  1.23755293E+01 -2.47510585E+01  0.00000000E+00  1.23755293E+01  1.23755293E+01
 -2.47510585E+01  0.00000000E+00  1.23755293E+01  1.23755293E+01 -2.47510585E+01
  0.00000000E+00  1.23755293E+01  1.23755293E+01 -2.47510585E+01  0.00000000E+00
  1.23755293E+01  1.23755293E+01 -2.47510585E+01  0.00000000E+00  1.23755293E+01
  1.23755293E+01 -2.47510585E+01  0.00000000E+00  1.23755293E+01  1.23755293E+01
 -2.47510585E+01  0.00000000E+00  1.23755293E+01  1.23755293E+01 -2.47510585E+01
  0.00000000E+00  1.23755293E+01  1.23755293E+01 -2.47510585E+01  0.00000000E+00
  1.23755293E+01  1.23755293E+01 -2.47510585E+01  0.00000000E+00  1.23755293E+01
  1.23755293E+01 -2.47510585E+01  0.00000000E+00  1.23755293E+01  1.23755293E+01
 -2.47510585E+01  0.00000000E+00  1.23755293E+01  1.23755293E+01 -2.47510585E+01
  0.00000000E+00  1.23755293E+01  1.23755293E+01 -2.47510585E+01  0.00000000E+00
  1.23755293E+01  1.23755293E+01 -2.47510585E+01  0.00000000E+00  1.23755293E+01
  1.23755293E+01 -2.47510585E+01  0.00000000E+00  1.23755293E+01  1.23755293E+01
 -2.47510585E+01  0.00000000E+00  1.23755293E+01  1.23755293E+01 -2.47510585E+01
  0.00000000E+00  1.23755293E+01  1.23755293E+01 -2.47510585E+01  0.00000000E+00
  1.23755293E+01  1.23755293E+01 -2.47510585E+01  0.00000000E+00  1.23755293E+01
  1.23755293E+01 -2.47510585E+01  0.00000000E+00  1.23755293E+01  1.23755293E+01
 -2.47510585E+01  0.00000000E+00  1.23755293E+01  1.23755293E+01 -2.47510585E+01
  0.00000000E+00  1.23755293E+01  1.23755293E+01 -2.47510585E+01  0.00000000E+00
  1.23755293E+01  1.23755293E+01 -2.47510585E+01  0.00000000E+00  1.23755293E+01
  1.23755293E+01 -2.47510585E+01  0.00000000E+00  1.23755293E+01  1.23755293E+01
 -2.47510585E+01  0.00000000E+00  1.23755293E+01  1.23755293E+01 -2.47510585E+01
  0.00000000E+00  1.23755293E+01  1.23755293E+01 -2.47510585E+01  0.00000000E+00
  1.23755293E+01  1.23755293E+01 -2.47510585E+01  0.00000000E+00  1.23755293E+01
  1.23755293E+01 -2.47510585E+01  0.00000000E+00  1.23755293E+01  1.23755293E+01
 -2.47510585E+01  0.00000000E+00  1.23755293E+01  1.23755293E+01 -2.47510585E+01
  0.00000000E+00  1.23755293E+01  1.23755293E+01 -2.47510585E+01  0.00000000E+00
  1.23755293E+01  1.23755293E+01 -2.47510585E+01  0.00000000E+00  1.23755293E+01
  1.23755293E+01 -2.47510585E+01  0.00000000E+00  1.23755293E+01  1.23755293E+01
 -2.47510585E+01  0.00000000E+00  1.23755293E+01  1.23755293E+01 -2.47510585E+01
  0.00000000E+00  1.23755293E+01  1.23755293E+01 -2.47510585E+01  0.00000000E+00
  1.23755293E+01  1.23755293E+01 -2.47510585E+01  0.00000000E+00  1.23755293E+01
  1.23755293E+01 -2.47510585E+01  0.00000000E+00  1.23755293E+01  1.23755293E+01
 -2.47510585E+01  0.00000000E+00  1.23755293E+01  1.23755293E+01 -2.47510585E+01
  0.00000000E+00  1.23755293E+01  1.23755293E+01 -2.47510585E+01  0.00000000E+00
  1.23755293E+01  1.23755293E+01 -2.47510585E+01  0.00000000E+00  1.23755293E+01
  1.23755293E+01 -2.47510585E+01  0.00000000E+00  1.23755293E+01  1.23755293E+01
 -2.47510585E+01  0.00000000E+00  1.23755293E+01  1.23755293E+01 -2.47510585E+01
  0.00000000E+00  1.23755293E+01  1.23755293E+01 -2.47510585E+01  0.00000000E+00
  1.23755293E+01  1.23755293E+01 -2.47510585E+01  0.00000000E+00  1.23755293E+01
  1.23755293E+01 -2.47510585E+01  0.00000000E+00  1.23755293E+01  1.23755293E+01
 -2.47510585E+01  0.00000000E+00  1.23755293E+01  1.23755293E+01 -2.47510585E+01
  0.00000000E+00  1.23755293E+01  1.23755293E+01 -2.47510585E+01  0.00000000E+00
  1.23755293E+01  1.23755293E+01 -2.47510585E+01  0.00000000E+00  1.23755293E+01
  1.23755293E+01 -2.47510585E+01  0.00000000E+00  1.23755293E+01  1.23755293E+01
 -2.47510585E+01  0.00000000E+00  1.23755293E+01  1.23755293E+01 -2.47510585E+01
  0.00000000E+00  1.23755293E+01  1.23755293E+01 -2.47510585E+01  0.00000000E+00
  1.23755293E+01  1.23755293E+01 -2.47510585E+01  0.00000000E+00  1.23755293E+01
  1.23755293E+01 -2.47510585E+01  0.00000000E+00  1.23755293E+01  1.23755293E+01
 -2.47510585E+01  0.00000000E+00  1.23755293E+01  1.23755293E+01 -2.47510585E+01
  0.00000000E+00  1.23755293E+01  1.23755293E+01 -2.47510585E+01  0.00000000E+00
  1.23755293E+01  1.23755293E+01 -2.47510585E+01  0.00000000E+00  1.23755293E+01
  1.23755293E+01 -2.47510585E+01  0.00000000E+00  1.23755293E+01  1.23755293E+01
 -2.47510585E+01  0.00000000E+00  1.23755293E+01  1.23755293E+01 -2.47510585E+01
  0.00000000E+00  1.23755293E+01  1.23755293E+01 -2.47510585E+01  0.00000000E+00
  1.23755293E+01  1.23755293E+01 -2.47510585E+01  0.00000000E+00  1.23755293E+01
  1.23755293E+01 -2.47510585E+01  0.00000000E+00  1.23755293E+01  1.23755293E+01
 -2.47510585E+01  0.00000000E+00  1.23755293E+01  1.23755293E+01 -2.47510585E+01
  0.00000000E+00  1.23755293E+01  1.23755293E+01 -2.47510585E+01  0.00000000E+00
  1.23755293E+01  1.23755293E+01 -2.47510585E+01  0.00000000E+00  1.23755293E+01
  1.23755293E+01 -2.47510585E+01  0.00000000E+00  1.23755293E+01  1.23755293E+01
 -2.47510585E+01  0.00000000E+00  1.23755293E+01  1.23755293E+01 -2.47510585E+01
  0.00000000E+00  1.23755293E+01  1.23755293E+01 -2.47510585E+01  0.00000000E+00
  1.23755293E+01  1.23755293E+01 -2.47510585E+01  0.00000000E+00  1.23755293E+01
  1.23755293E+01 -2.47510585E+01  0.00000000E+00  1.23755293E+01  1.23755293E+01
 -2.47510585E+01  0.00000000E+00  1.23755293E+01  1.23755293E+01 -2.47510585E+01
  0.00000000E+00  1.23755293E+01  1.23755293E+01 -2.47510585E+01  0.00000000E+00
  1.23755293E+01  1.23755293E+01 -2.47510585E+01  0.00000000E+00  1.23755293E+01
  1.23755293E+01 -2.47510585E+01  0.00000000E+00  1.23755293E+01  1.23755293E+01
 -2.47510585E+01  0.00000000E+00  1.23755293E+01  1.23755293E+01 -2.47510585E+01
  0.00000000E+00  1.23755293E+01  1.23755293E+01 -2.47510585E+01  0.00000000E+00
  1.23755293E+01  1.23755293E+01 -2.47510585E+01  0.00000000E+00  1.23755293E+01
  1.23755293E+01 -2.47510585E+01  0.00000000E+00  1.23755293E+01  1.23755293E+01
 -2.47510585E+01  0.00000000E+00  1.23755293E+01  1.23755293E+01 -2.47510585E+01
  0.00000000E+00  1.23755293E+01  1.23755293E+01 -2.47510585E+01  0.00000000E+00
  1.23755293E+01  1.23755293E+01 -2.47510585E+01  0.00000000E+00  1.23755293E+01
  1.23755293E+01 -2.47510585E+01  0.00000000E+00  1.23755293E+01  1.23755293E+01
 -2.47510585E+01  0.00000000E+00  1.23755293E+01  1.23755293E+01 -2.47510585E+01
  0.00000000E+00  1.23755293E+01  1.23755293E+01 -2.47510585E+01  0.00000000E+00
  1.23755293E+01  1.23755293E+01 -2.47510585E+01  0.00000000E+00  1.23755293E+01
  1.23755293E+01 -2.47510585E+01  0.00000000E+00  1.23755293E+01  1.23755293E+01
 -2.47510585E+01  0.00000000E+00  1.23755293E+01  1.23755293E+01 -2.47510585E+01
  0.00000000E+00  1.23755293E+01  1.23755293E+01 -2.47510585E+01  0.00000000E+00
  1.23755293E+01  1.23755293E+01 -2.47510585E+01  0.00000000E+00  1.23755293E+01
  1.23755293E+01 -2.47510585E+01  0.00000000E+00  1.23755293E+01  1.23755293E+01
 -2.47510585E+01  0.00000000E+00  1.23755293E+01  1.23755293E+01 -2.47510585E+01
  0.00000000E+00  1.23755293E+01  1.23755293E+01 -2.47510585E+01  0.00000000E+00
  1.23755293E+01  1.23755293E+01 -2.47510585E+01  0.00000000E+00  1.23755293E+01
  1.23755293E+01 -2.47510585E+01  0.00000000E+00  1.23755293E+01  1.23755293E+01
 -2.47510585E+01  0.00000000E+00  1.23755293E+01  1.23755293E+01 -2.47510585E+01
  0.00000000E+00  1.23755293E+01  1.23755293E+01 -2.47510585E+01  0.00000000E+00
  1.23755293E+01  1.23755293E+01 -2.47510585E+01  0.00000000E+00  1.23755293E+01
  1.23755293E+01 -2.47510585E+01  0.00000000E+00  1.23755293E+01  1.23755293E+01
 -2.47510585E+01  0.00000000E+00  1.23755293E+01  1.23755293E+01 -2.47510585E+01
  0.00000000E+00  1.23755293E+01  1.23755293E+01 -2.47510585E+01  0.00000000E+00
  1.23755293E+01  1.23755293E+01 -2.47510585E+01  0.00000000E+00  1.23755293E+01
  1.23755293E+01 -2.47510585E+01  0.00000000E+00  1.23755293E+01  1.23755293E+01
 -2.47510585E+01  0.00000000E+00  1.23755293E+01  1.23755293E+01 -2.47510585E+01
  0.00000000E+00  1.23755293E+01  1.23755293E+01 -2.47510585E+01  0.00000000E+00
  1.23755293E+01  1.23755293E+01 -2.47510585E+01  0.00000000E+00  1.23755293E+01
  1.23755293E+01 -2.47510585E+01  0.00000000E+00  1.23755293E+01  1.23755293E+01
 -2.47510585E+01  0.00000000E+00  1.23755293E+01  1.23755293E+01 -2.47510585E+01
  0.00000000E+00  1.23755293E+01  1.23755293E+01 -2.47510585E+01  0.00000000E+00
  1.23755293E+01  1.23755293E+01 -2.47510585E+01  0.00000000E+00  1.23755293E+01
  1.23755293E+01 -2.47510585E+01  0.00000000E+00  1.23755293E+01  1.23755293E+01
 -2.47510585E+01  0.00000000E+00  1.23755293E+01  1.23755293E+01 -2.47510585E+01
  0.00000000E+00  1.23755293E+01  1.23755293E+01 -2.47510585E+01  0.00000000E+00
  1.23755293E+01  1.23755293E+01 -2.47510585E+01  0.00000000E+00  1.23755293E+01
  1.23755293E+01 -2.47510585E+01  0.00000000E+00  1.23755293E+01  1.23755293E+01
 -2.47510585E+01  0.00000000E+00  1.23755293E+01  1.23755293E+01 -2.47510585E+01
  0.00000000E+00  1.23755293E+01  1.23755293E+01 -2.47510585E+01  0.00000000E+00
  1.23755293E+01  1.23755293E+01 -2.47510585E+01  0.00000000E+00  1.23755293E+01
  1.23755293E+01 -2.47510585E+01  0.00000000E+00  1.23755293E+01  1.23755293E+01
 -2.47510585E+01  0.00000000E+00  1.23755293E+01  1.23755293E+01 -2.47510585E+01
  0.00000000E+00  1.23755293E+01  1.23755293E+01 -2.47510585E+01  0.00000000E+00
  1.23755293E+01  1.23755293E+01 -2.47510585E+01  0.00000000E+00  1.23755293E+01
  1.23755293E+01 -2.47510585E+01  0.00000000E+00  1.23755293E+01  1.23755293E+01
 -2.47510585E+01  0.00000000E+00  1.23755293E+01  1.23755293E+01 -2.47510585E+01
  0.00000000E+00  1.23755293E+01  1.23755293E+01 -2.47510585E+01  0.00000000E+00
  1.23755293E+01  1.23755293E+01 -2.47510585E+01  0.00000000E+00  1.23755293E+01
  1.23755293E+01 -2.47510585E+01  0.00000000E+00  1.23755293E+01  1.23755293E+01
 -2.47510585E+01  0.00000000E+00  1.23755293E+01  1.23755293E+01 -2.47510585E+01
  0.00000000E+00  1.23755293E+01  1.23755293E+01 -2.47510585E+01  0.00000000E+00
  1.23755293E+01  1.23755293E+01 -2.47510585E+01  0.00000000E+00  1.23755293E+01
  1.23755293E+01 -2.47510585E+01  0.00000000E+00  1.23755293E+01  1.23755293E+01
 -2.47510585E+01  0.00000000E+00  1.23755293E+01  1.23755293E+01 -2.47510585E+01
  0.00000000E+00  1.23755293E+01  1.23755293E+01 -2.47510585E+01  0.00000000E+00
  1.23755293E+01  1.23755293E+01 -2.47510585E+01  0.00000000E+00  1.23755293E+01
  1.23755293E+01 -2.47510585E+01  0.00000000E+00  1.23755293E+01  1.23755293E+01
 -2.47510585E+01  0.00000000E+00  1.23755293E+01  1.23755293E+01 -2.47510585E+01
  0.00000000E+00  1.23755293E+01  1.23755293E+01 -2.47510585E+01  0.00000000E+00
  1.23755293E+01  1.23755293E+01 -2.47510585E+01  0.00000000E+00  1.23755293E+01
  1.23755293E+01 -2.47510585E+01  0.00000000E+00  1.23755293E+01  1.23755293E+01
 -2.47510585E+01  0.00000000E+00  1.23755293E+01  1.23755293E+01 -2.47510585E+01
  0.00000000E+00  1.23755293E+01  1.23755293E+01 -2.47510585E+01  0.00000000E+00
  1.23755293E+01  1.23755293E+01 -2.47510585E+01  0.00000000E+00  1.23755293E+01
  1.23755293E+01 -2.47510585E+01  0.00000000E+00  1.23755293E+01  1.23755293E+01
 -2.47510585E+01  0.00000000E+00  1.23755293E+01  1.23755293E+01 -2.47510585E+01
  0.00000000E+00  1.23755293E+01  1.23755293E+01 -2.47510585E+01  0.00000000E+00
  1.23755293E+01  1.23755293E+01 -2.47510585E+01  0.00000000E+00  1.23755293E+01
  1.23755293E+01 -2.47510585E+01  0.00000000E+00  1.23755293E+01  1.23755293E+01
 -2.47510585E+01  0.00000000E+00  1.23755293E+01  1.23755293E+01 -2.47510585E+01
  0.00000000E+00  1.23755293E+01  1.23755293E+01 -2.47510585E+01  0.00000000E+00
  1.23755293E+01  1.23755293E+01 -2.47510585E+01  0.00000000E+00  1.23755293E+01
  1.23755293E+01 -2.47510585E+01  0.00000000E+00  1.23755293E+01  1.23755293E+01
 -2.47510585E+01  0.00000000E+00  1.23755293E+01  1.23755293E+01 -2.47510585E+01
  0.00000000E+00  1.23755293E+01  1.23755293E+01 -2.47510585E+01  0.00000000E+00
  1.23755293E+01  1.23755293E+01 -2.47510585E+01  0.00000000E+00  1.23755293E+01
  1.23755293E+01 -2.47510585E+01  0.00000000E+00  1.23755293E+01  1.23755293E+01
 -2.47510585E+01  0.00000000E+00  1.23755293E+01  1.23755293E+01 -2.47510585E+01
  0.00000000E+00  1.23755293E+01  1.23755293E+01 -2.47510585E+01  0.00000000E+00
  1.23755293E+01  1.23755293E+01 -2.47510585E+01  0.00000000E+00  1.23755293E+01
  1.23755293E+01 -2.47510585E+01  0.00000000E+00  1.23755293E+01  1.23755293E+01
 -2.47510585E+01  0.00000000E+00  1.23755293E+01  1.23755293E+01 -2.47510585E+01
  0.00000000E+00  1.23755293E+01  1.23755293E+01 -2.47510585E+01  0.00000000E+00
  1.23755293E+01  1.23755293E+01 -2.47510585E+01  0.00000000E+00  1.23755293E+01
  1.23755293E+01 -2.47510585E+01  0.00000000E+00  1.23755293E+01  1.23755293E+01
 -2.47510585E+01  0.00000000E+00  1.23755293E+01  1.23755293E+01 -2.47510585E+01
  0.00000000E+00  1.23755293E+01  1.23755293E+01 -2.47510585E+01  0.00000000E+00
  1.23755293E+01  1.23755293E+01 -2.47510585E+01  0.00000000E+00  1.23755293E+01
  1.23755293E+01 -2.47510585E+01  0.00000000E+00  1.23755293E+01  1.23755293E+01
 -2.47510585E+01  0.00000000E+00  1.23755293E+01  1.23755293E+01 -2.47510585E+01
  0.00000000E+00  1.23755293E+01  1.23755293E+01 -2.47510585E+01  0.00000000E+00
  1.23755293E+01  1.23755293E+01 -2.47510585E+01  0.00000000E+00  1.23755293E+01
  1.23755293E+01 -2.47510585E+01  0.00000000E+00  1.23755293E+01  1.23755293E+01
 -2.47510585E+01  0.00000000E+00  1.23755293E+01  1.23755293E+01 -2.47510585E+01
  0.00000000E+00  1.23755293E+01  1.23755293E+01 -2.47510585E+01  0.00000000E+00
  1.23755293E+01  1.23755293E+01 -2.47510585E+01  0.00000000E+00  1.23755293E+01
  1.23755293E+01 -2.47510585E+01  0.00000000E+00  1.23755293E+01  1.23755293E+01
 -2.47510585E+01  0.00000000E+00  1.23755293E+01  1.23755293E+01 -2.47510585E+01
  0.00000000E+00  1.23755293E+01  1.23755293E+01 -2.47510585E+01  0.00000000E+00
  1.23755293E+01  1.23755293E+01 -2.47510585E+01  0.00000000E+00  1.23755293E+01
  1.23755293E+01 -2.47510585E+01  0.00000000E+00  1.23755293E+01  1.23755293E+01
 -2.47510585E+01  0.00000000E+00  1.23755293E+01  1.23755293E+01 -2.47510585E+01
  0.00000000E+00  1.23755293E+01  1.23755293E+01 -2.47510585E+01  0.00000000E+00
  1.23755293E+01  1.23755293E+01 -2.47510585E+01  0.00000000E+00  1.23755293E+01
  1.23755293E+01 -2.47510585E+01  0.00000000E+00  1.23755293E+01  1.23755293E+01
 -2.47510585E+01  0.00000000E+00  1.23755293E+01  1.23755293E+01 -2.47510585E+01
  0.00000000E+00  1.23755293E+01  1.23755293E+01 -2.47510585E+01  0.00000000E+00
  1.23755293E+01  1.23755293E+01 -2.47510585E+01  0.00000000E+00  1.23755293E+01
  1.23755293E+01 -2.47510585E+01  0.00000000E+00  1.23755293E+01  1.23755293E+01
 -2.47510585E+01  0.00000000E+00  1.23755293E+01  1.23755293E+01 -2.47510585E+01
  0.00000000E+00  1.23755293E+01  1.23755293E+01 -2.47510585E+01  0.00000000E+00
  1.23755293E+01  1.23755293E+01 -2.47510585E+01  0.00000000E+00  1.23755293E+01
  1.23755293E+01 -2.47510585E+01  0.00000000E+00  1.23755293E+01  1.23755293E+01
 -2.47510585E+01  0.00000000E+00  1.23755293E+01  1.23755293E+01 -2.47510585E+01
  0.00000000E+00  1.23755293E+01  1.23755293E+01 -2.47510585E+01  0.00000000E+00
  1.23755293E+01  1.23755293E+01 -2.47510585E+01  0.00000000E+00  1.23755293E+01
  1.23755293E+01 -2.47510585E+01  0.00000000E+00  1.23755293E+01  1.23755293E+01
 -2.47510585E+01  0.00000000E+00  1.23755293E+01  1.23755293E+01 -2.47510585E+01
  0.00000000E+00  1.23755293E+01  1.23755293E+01 -2.47510585E+01  0.00000000E+00
  1.23755293E+01  1.23755293E+01 -2.47510585E+01  0.00000000E+00  1.23755293E+01
  1.23755293E+01 -2.47510585E+01  0.00000000E+00  1.23755293E+01  1.23755293E+01
 -2.47510585E+01  0.00000000E+00  1.23755293E+01  1.23755293E+01 -2.47510585E+01
  0.00000000E+00  1.23755293E+01  1.23755293E+01 -2.47510585E+01  0.00000000E+00
  1.23755293E+01  1.23755293E+01 -2.47510585E+01  0.00000000E+00  1.23755293E+01
  1.23755293E+01 -2.47510585E+01  0.00000000E+00  1.23755293E+01  1.23755293E+01
 -2.47510585E+01  0.00000000E+00  1.23755293E+01  1.23755293E+01 -2.47510585E+01
  0.00000000E+00  1.23755293E+01  1.23755293E+01 -2.47510585E+01  0.00000000E+00
  1.23755293E+01  1.23755293E+01 -2.47510585E+01  0.00000000E+00  1.23755293E+01
  1.23755293E+01 -2.47510585E+01  0.00000000E+00  1.23755293E+01  1.23755293E+01
 -2.47510585E+01  0.00000000E+00  1.23755293E+01  1.23755293E+01 -2.47510585E+01
  0.00000000E+00  1.23755293E+01  1.23755293E+01 -2.47510585E+01  0.00000000E+00
  1.23755293E+01  1.23755293E+01 -2.47510585E+01  0.00000000E+00  1.23755293E+01
  1.23755293E+01 -2.47510585E+01  0.00000000E+00  1.23755293E+01  1.23755293E+01
 -2.47510585E+01  0.00000000E+00  1.23755293E+01  1.23755293E+01 -2.47510585E+01
  0.00000000E+00  1.23755293E+01  1.23755293E+01 -2.47510585E+01  0.00000000E+00
  1.23755293E+01  1.23755293E+01 -2.47510585E+01  0.00000000E+00  1.23755293E+01
  1.23755293E+01 -2.47510585E+01  0.00000000E+00  1.23755293E+01  1.23755293E+01
 -2.47510585E+01  0.00000000E+00  1.23755293E+01  1.23755293E+01 -2.47510585E+01
  0.00000000E+00  1.23755293E+01  1.23755293E+01 -2.47510585E+01  0.00000000E+00
  1.23755293E+01  1.23755293E+01 -2.47510585E+01  0.00000000E+00  1.23755293E+01
  1.23755293E+01 -2.47510585E+01  0.00000000E+00  1.23755293E+01  1.23755293E+01
 -2.47510585E+01  0.00000000E+00  1.23755293E+01  1.23755293E+01 -2.47510585E+01
  0.00000000E+00  1.23755293E+01  1.23755293E+01 -2.47510585E+01  0.00000000E+00
  1.23755293E+01  1.23755293E+01 -2.47510585E+01  0.00000000E+00  1.23755293E+01
  1.23755293E+01 -2.47510585E+01  0.00000000E+00  1.23755293E+01  1.23755293E+01
 -2.47510585E+01  0.00000000E+00  1.23755293E+01  1.23755293E+01 -2.47510585E+01
  0.00000000E+00  1.23755293E+01  1.23755293E+01 -2.47510585E+01  0.00000000E+00
  1.23755293E+01  1.23755293E+01 -2.47510585E+01  0.00000000E+00  1.23755293E+01
  1.23755293E+01 -2.47510585E+01  0.00000000E+00  1.23755293E+01  1.23755293E+01
 -2.47510585E+01  0.00000000E+00  1.23755293E+01  1.23755293E+01 -2.47510585E+01
  0.00000000E+00  1.23755293E+01  1.23755293E+01 -2.47510585E+01  0.00000000E+00
  1.23755293E+01  1.23755293E+01 -2.47510585E+01  0.00000000E+00  1.23755293E+01
  1.23755293E+01 -2.47510585E+01  0.00000000E+00  1.23755293E+01  1.23755293E+01
 -2.47510585E+01  0.00000000E+00  1.23755293E+01  1.23755293E+01 -2.47510585E+01
  0.00000000E+00  1.23755293E+01  1.23755293E+01 -2.47510585E+01  0.00000000E+00
  1.23755293E+01  1.23755293E+01 -2.47510585E+01  0.00000000E+00  1.23755293E+01
  1.23755293E+01 -2.47510585E+01  0.00000000E+00  1.23755293E+01  1.23755293E+01
 -2.47510585E+01  0.00000000E+00  1.23755293E+01  1.23755293E+01 -2.47510585E+01
  0.00000000E+00  1.23755293E+01  1.23755293E+01 -2.47510585E+01  0.00000000E+00
  1.23755293E+01  1.23755293E+01 -2.47510585E+01  0.00000000E+00  1.23755293E+01
  1.23755293E+01 -2.47510585E+01  0.00000000E+00  1.23755293E+01  1.23755293E+01
 -2.47510585E+01  0.00000000E+00  1.23755293E+01  1.23755293E+01 -2.47510585E+01
  0.00000000E+00  1.23755293E+01  1.23755293E+01 -2.47510585E+01  0.00000000E+00
  1.23755293E+01  1.23755293E+01 -2.47510585E+01  0.00000000E+00  1.23755293E+01
  1.23755293E+01 -2.47510585E+01  0.00000000E+00  1.23755293E+01  1.23755293E+01
 -2.47510585E+01  0.00000000E+00  1.23755293E+01  1.23755293E+01 -2.47510585E+01
  0.00000000E+00  1.23755293E+01  1.23755293E+01 -2.47510585E+01  0.00000000E+00
  1.23755293E+01  1.23755293E+01 -2.47510585E+01  0.00000000E+00  1.23755293E+01
  1.23755293E+01 -2.47510585E+01  0.00000000E+00  1.23755293E+01  1.23755293E+01
 -2.47510585E+01  0.00000000E+00  1.23755293E+01  1.23755293E+01 -2.47510585E+01
  0.00000000E+00  1.23755293E+01  1.23755293E+01 -2.47510585E+01  0.00000000E+00
  1.23755293E+01  1.23755293E+01 -2.47510585E+01  0.00000000E+00  1.23755293E+01
  1.23755293E+01 -2.47510585E+01  0.00000000E+00  1.23755293E+01  1.23755293E+01
 -2.47510585E+01  0.00000000E+00  1.23755293E+01  1.23755293E+01 -2.47510585E+01
  0.00000000E+00  1.23755293E+01  1.23755293E+01 -2.47510585E+01  0.00000000E+00
  1.23755293E+01  1.23755293E+01 -2.47510585E+01  0.00000000E+00  1.23755293E+01
  1.23755293E+01 -2.47510585E+01  0.00000000E+00  1.23755293E+01  1.23755293E+01
 -2.47510585E+01  0.00000000E+00  1.23755293E+01  1.23755293E+01 -2.47510585E+01
  0.00000000E+00  1.23755293E+01  1.23755293E+01 -2.47510585E+01  0.00000000E+00
  1.23755293E+01  1.23755293E+01 -2.47510585E+01  0.00000000E+00  1.23755293E+01
  1.23755293E+01 -2.47510585E+01  0.00000000E+00  1.23755293E+01  1.23755293E+01
 -2.47510585E+01  0.00000000E+00  1.23755293E+01  1.23755293E+01 -2.47510585E+01
  0.00000000E+00  1.23755293E+01  1.23755293E+01 -2.47510585E+01  0.00000000E+00
  1.23755293E+01  1.23755293E+01 -2.47510585E+01  0.00000000E+00  1.23755293E+01
  1.23755293E+01 -2.47510585E+01  0.00000000E+00  1.23755293E+01  1.23755293E+01
 -2.47510585E+01  0.00000000E+00  1.23755293E+01  1.23755293E+01 -2.47510585E+01
  0.00000000E+00  1.23755293E+01  1.23755293E+01 -2.47510585E+01  0.00000000E+00
  1.23755293E+01  1.23755293E+01 -2.47510585E+01  0.00000000E+00  1.23755293E+01
  1.23755293E+01 -2.47510585E+01  0.00000000E+00  1.23755293E+01  1.23755293E+01
 -2.47510585E+01  0.00000000E+00  1.23755293E+01  1.23755293E+01 -2.47510585E+01
  0.00000000E+00  1.23755293E+01  1.23755293E+01 -2.47510585E+01  0.00000000E+00
  1.23755293E+01  1.23755293E+01 -2.47510585E+01  0.00000000E+00  1.23755293E+01
  1.23755293E+01 -2.47510585E+01  0.00000000E+00  1.23755293E+01  1.23755293E+01
 -2.47510585E+01  0.00000000E+00  1.23755293E+01  1.23755293E+01 -2.47510585E+01
  0.00000000E+00  1.23755293E+01  1.23755293E+01 -2.47510585E+01  0.00000000E+00
  1.23755293E+01  1.23755293E+01 -2.47510585E+01  0.00000000E+00  1.23755293E+01
  1.23755293E+01 -2.47510585E+01  0.00000000E+00  1.23755293E+01  1.23755293E+01
 -2.47510585E+01  0.00000000E+00  1.23755293E+01  1.23755293E+01 -2.47510585E+01
  0.00000000E+00  1.23755293E+01  1.23755293E+01 -2.47510585E+01  0.00000000E+00
  1.23755293E+01  1.23755293E+01 -2.47510585E+01  0.00000000E+00  1.23755293E+01
  1.23755293E+01 -2.47510585E+01  0.00000000E+00  1.23755293E+01  1.23755293E+01
 -2.47510585E+01  0.00000000E+00  1.23755293E+01  1.23755293E+01 -2.47510585E+01
  0.00000000E+00  1.23755293E+01  1.23755293E+01 -2.47510585E+01  0.00000000E+00
  1.23755293E+01  1.23755293E+01 -2.47510585E+01  0.00000000E+00  1.23755293E+01
  1.23755293E+01 -2.47510585E+01  0.00000000E+00  1.23755293E+01  1.23755293E+01
 -2.47510585E+01  0.00000000E+00  1.23755293E+01  1.23755293E+01 -2.47510585E+01
  0.00000000E+00  1.23755293E+01  1.23755293E+01 -2.47510585E+01  0.00000000E+00
  1.23755293E+01  1.23755293E+01 -2.47510585E+01  0.00000000E+00  1.23755293E+01
  1.23755293E+01 -2.47510585E+01  0.00000000E+00  1.23755293E+01  1.23755293E+01
 -2.47510585E+01  0.00000000E+00  1.23755293E+01  1.23755293E+01 -2.47510585E+01
  0.00000000E+00  1.23755293E+01  1.23755293E+01 -2.47510585E+01  0.00000000E+00
  1.23755293E+01  1.23755293E+01 -2.47510585E+01  0.00000000E+00  1.23755293E+01
  1.23755293E+01 -2.47510585E+01  0.00000000E+00  1.23755293E+01  1.23755293E+01
 -2.47510585E+01  0.00000000E+00  1.23755293E+01  1.23755293E+01 -2.47510585E+01
  0.00000000E+00  1.23755293E+01  1.23755293E+01 -2.47510585E+01  0.00000000E+00
  1.23755293E+01  1.23755293E+01 -2.47510585E+01  0.00000000E+00  1.23755293E+01
  1.23755293E+01 -2.47510585E+01  0.00000000E+00  1.23755293E+01  1.23755293E+01
 -2.47510585E+01  0.00000000E+00  1.23755293E+01  1.23755293E+01 -2.47510585E+01
  0.00000000E+00  1.23755293E+01  1.23755293E+01 -2.47510585E+01  0.00000000E+00
  1.23755293E+01  1.23755293E+01 -2.47510585E+01  0.00000000E+00  1.23755293E+01
  1.23755293E+01 -2.47510585E+01  0.00000000E+00  1.23755293E+01  1.23755293E+01
 -2.47510585E+01  0.00000000E+00  1.23755293E+01  1.23755293E+01 -2.47510585E+01
  0.00000000E+00  1.23755293E+01  1.23755293E+01 -2.47510585E+01  0.00000000E+00
  1.23755293E+01  1.23755293E+01 -2.47510585E+01  0.00000000E+00  1.23755293E+01
  1.23755293E+01 -2.47510585E+01  0.00000000E+00  1.23755293E+01  1.23755293E+01
 -2.47510585E+01  0.00000000E+00  1.23755293E+01  1.23755293E+01 -2.47510585E+01
  0.00000000E+00  1.23755293E+01  1.23755293E+01 -2.47510585E+01  0.00000000E+00
  1.23755293E+01  1.23755293E+01 -2.47510585E+01  0.00000000E+00  1.23755293E+01
  1.23755293E+01 -2.47510585E+01  0.00000000E+00  1.23755293E+01  1.23755293E+01
 -2.47510585E+01  0.00000000E+00  1.23755293E+01  1.23755293E+01 -2.47510585E+01
  0.00000000E+00  1.23755293E+01  1.23755293E+01 -2.47510585E+01  0.00000000E+00
  1.23755293E+01  1.23755293E+01 -2.47510585E+01  0.00000000E+00  1.23755293E+01
  1.23755293E+01 -2.47510585E+01  0.00000000E+00  1.23755293E+01  1.23755293E+01
 -2.47510585E+01  0.00000000E+00  1.23755293E+01  1.23755293E+01 -2.47510585E+01
  0.00000000E+00  1.23755293E+01  1.23755293E+01 -2.47510585E+01  0.00000000E+00
  1.23755293E+01  1.23755293E+01 -2.47510585E+01  0.00000000E+00  1.23755293E+01
  1.23755293E+01 -2.47510585E+01  0.00000000E+00  1.23755293E+01  1.23755293E+01
 -2.47510585E+01  0.00000000E+00  1.23755293E+01  1.23755293E+01 -2.47510585E+01
  0.00000000E+00  1.23755293E+01  1.23755293E+01 -2.47510585E+01  0.00000000E+00
  1.23755293E+01  1.23755293E+01 -2.47510585E+01  0.00000000E+00  1.23755293E+01
  1.23755293E+01 -2.47510585E+01  0.00000000E+00  1.23755293E+01  1.23755293E+01
 -2.47510585E+01  0.00000000E+00  1.23755293E+01  1.23755293E+01 -2.47510585E+01
  0.00000000E+00  1.23755293E+01  1.23755293E+01 -2.47510585E+01  0.00000000E+00
  1.23755293E+01  1.23755293E+01 -2.47510585E+01  0.00000000E+00  1.23755293E+01
  1.23755293E+01 -2.47510585E+01  0.00000000E+00  1.23755293E+01  1.23755293E+01
 -2.47510585E+01  0.00000000E+00  1.23755293E+01  1.23755293E+01 -2.47510585E+01
  0.00000000E+00  1.23755293E+01  1.23755293E+01 -2.47510585E+01  0.00000000E+00
  1.23755293E+01  1.23755293E+01 -2.47510585E+01  0.00000000E+00  1.23755293E+01
  1.23755293E+01 -2.47510585E+01  0.00000000E+00  1.23755293E+01  1.23755293E+01
 -2.47510585E+01  0.00000000E+00  1.23755293E+01  1.23755293E+01 -2.47510585E+01
  0.00000000E+00  1.23755293E+01  1.23755293E+01 -2.47510585E+01  0.00000000E+00
  1.23755293E+01  1.23755293E+01 -2.47510585E+01  0.00000000E+00  1.23755293E+01
  1.23755293E+01 -2.47510585E+01  0.00000000E+00  1.23755293E+01  1.23755293E+01
 -2.47510585E+01  0.00000000E+00  1.23755293E+01  1.23755293E+01 -2.47510585E+01
  0.00000000E+00  1.23755293E+01  1.23755293E+01 -2.47510585E+01  0.00000000E+00
  1.23755293E+01  1.23755293E+01 -2.47510585E+01  0.00000000E+00  1.23755293E+01
  1.23755293E+01 -2.47510585E+01  0.00000000E+00  1.23755293E+01  1.23755293E+01
 -2.47510585E+01  0.00000000E+00  1.23755293E+01  1.23755293E+01 -2.47510585E+01
  0.00000000E+00  1.23755293E+01  1.23755293E+01 -2.47510585E+01  0.00000000E+00
  1.23755293E+01  1.23755293E+01 -2.47510585E+01  0.00000000E+00  1.23755293E+01
  1.23755293E+01 -2.47510585E+01  0.00000000E+00  1.23755293E+01  1.23755293E+01
 -2.47510585E+01  0.00000000E+00  1.23755293E+01  1.23755293E+01 -2.47510585E+01
  0.00000000E+00  1.23755293E+01  1.23755293E+01 -2.47510585E+01  0.00000000E+00
  1.23755293E+01  1.23755293E+01 -2.47510585E+01  0.00000000E+00  1.23755293E+01
  1.23755293E+01 -2.47510585E+01  0.00000000E+00  1.23755293E+01  1.23755293E+01
 -2.47510585E+01  0.00000000E+00  1.23755293E+01  1.23755293E+01 -2.47510585E+01
  0.00000000E+00  1.23755293E+01  1.23755293E+01 -2.47510585E+01  0.00000000E+00
  1.23755293E+01  1.23755293E+01 -2.47510585E+01  0.00000000E+00  1.23755293E+01
  1.23755293E+01 -2.47510585E+01  0.00000000E+00  1.23755293E+01  1.23755293E+01
 -2.47510585E+01  0.00000000E+00  1.23755293E+01  1.23755293E+01 -2.47510585E+01
  0.00000000E+00  1.23755293E+01  1.23755293E+01 -2.47510585E+01  0.00000000E+00
  1.23755293E+01  1.23755293E+01 -2.47510585E+01  0.00000000E+00  1.23755293E+01
  1.23755293E+01 -2.47510585E+01  0.00000000E+00  1.23755293E+01  1.23755293E+01
 -2.47510585E+01  0.00000000E+00  1.23755293E+01  1.23755293E+01 -2.47510585E+01
  0.00000000E+00  1.23755293E+01  1.23755293E+01 -2.47510585E+01  0.00000000E+00
  1.23755293E+01  1.23755293E+01 -2.47510585E+01  0.00000000E+00  1.23755293E+01
  1.23755293E+01 -2.47510585E+01  0.00000000E+00  1.23755293E+01  1.23755293E+01
 -2.47510585E+01  0.00000000E+00  1.23755293E+01  1.23755293E+01 -2.47510585E+01
  0.00000000E+00  1.23755293E+01  1.23755293E+01 -2.47510585E+01  0.00000000E+00
  1.23755293E+01  1.23755293E+01 -2.47510585E+01  0.00000000E+00  1.23755293E+01
  1.23755293E+01 -2.47510585E+01  0.00000000E+00  1.23755293E+01  1.23755293E+01
 -2.47510585E+01  0.00000000E+00  1.23755293E+01  1.23755293E+01 -2.47510585E+01
  0.00000000E+00  1.23755293E+01  1.23755293E+01 -2.47510585E+01  0.00000000E+00
  1.23755293E+01  1.23755293E+01 -2.47510585E+01  0.00000000E+00  1.23755293E+01
  1.23755293E+01 -2.47510585E+01  0.00000000E+00  1.23755293E+01  1.23755293E+01
 -2.47510585E+01  0.00000000E+00  1.23755293E+01  1.23755293E+01 -2.47510585E+01
  0.00000000E+00  1.23755293E+01  1.23755293E+01 -2.47510585E+01  0.00000000E+00
  1.23755293E+01  1.23755293E+01 -2.47510585E+01  0.00000000E+00  1.23755293E+01
  1.23755293E+01 -2.47510585E+01  0.00000000E+00  1.23755293E+01  1.23755293E+01
 -2.47510585E+01  0.00000000E+00  1.23755293E+01  1.23755293E+01 -2.47510585E+01
  0.00000000E+00  1.23755293E+01  1.23755293E+01 -2.47510585E+01  0.00000000E+00
  1.23755293E+01  1.23755293E+01 -2.47510585E+01  0.00000000E+00  1.23755293E+01
  1.23755293E+01 -2.47510585E+01  0.00000000E+00  1.23755293E+01  1.23755293E+01
 -2.47510585E+01  0.00000000E+00  1.23755293E+01  1.23755293E+01 -2.47510585E+01
  0.00000000E+00  1.23755293E+01  1.23755293E+01 -2.47510585E+01  0.00000000E+00
  1.23755293E+01  1.23755293E+01 -2.47510585E+01  0.00000000E+00  1.23755293E+01
  1.23755293E+01 -2.47510585E+01  0.00000000E+00  1.23755293E+01  1.23755293E+01
 -2.47510585E+01  0.00000000E+00  1.23755293E+01  1.23755293E+01 -2.47510585E+01
  0.00000000E+00  1.23755293E+01  1.23755293E+01 -2.47510585E+01  0.00000000E+00
  1.23755293E+01  1.23755293E+01 -2.47510585E+01  0.00000000E+00  1.23755293E+01
  1.23755293E+01 -2.47510585E+01  0.00000000E+00  1.23755293E+01  1.23755293E+01
 -2.47510585E+01  0.00000000E+00  1.23755293E+01  1.23755293E+01 -2.47510585E+01
  0.00000000E+00  1.23755293E+01  1.23755293E+01 -2.47510585E+01  0.00000000E+00
  1.23755293E+01  1.23755293E+01 -2.47510585E+01  0.00000000E+00  1.23755293E+01
  1.23755293E+01 -2.47510585E+01  0.00000000E+00  1.23755293E+01  1.23755293E+01
 -2.47510585E+01  0.00000000E+00  1.23755293E+01  1.23755293E+01 -2.47510585E+01
  0.00000000E+00  1.23755293E+01  1.23755293E+01 -2.47510585E+01  0.00000000E+00
  1.23755293E+01  1.23755293E+01 -2.47510585E+01  0.00000000E+00  1.23755293E+01
  1.23755293E+01 -2.47510585E+01  0.00000000E+00  1.23755293E+01  1.23755293E+01
 -2.47510585E+01  0.00000000E+00  1.23755293E+01  1.23755293E+01 -2.47510585E+01
  0.00000000E+00  1.23755293E+01  1.23755293E+01 -2.47510585E+01  0.00000000E+00
  1.23755293E+01  1.23755293E+01 -2.47510585E+01  0.00000000E+00  1.23755293E+01
  1.23755293E+01 -2.47510585E+01  0.00000000E+00  1.23755293E+01  1.23755293E+01
 -2.47510585E+01  0.00000000E+00  1.23755293E+01  1.23755293E+01 -2.47510585E+01
  0.00000000E+00  1.23755293E+01  1.23755293E+01 -2.47510585E+01  0.00000000E+00
  1.23755293E+01  1.23755293E+01 -2.47510585E+01  0.00000000E+00  1.23755293E+01
  1.23755293E+01 -2.47510585E+01  0.00000000E+00  1.23755293E+01  1.23755293E+01
 -2.47510585E+01  0.00000000E+00  1.23755293E+01  1.23755293E+01 -2.47510585E+01
  0.00000000E+00  1.23755293E+01  1.23755293E+01 -2.47510585E+01  0.00000000E+00
  1.23755293E+01  1.23755293E+01 -2.47510585E+01  0.00000000E+00  1.23755293E+01
  1.23755293E+01 -2.47510585E+01  0.00000000E+00  1.23755293E+01  1.23755293E+01
 -2.47510585E+01  0.00000000E+00  1.23755293E+01  1.23755293E+01 -2.47510585E+01
  0.00000000E+00  1.23755293E+01  1.23755293E+01 -2.47510585E+01  0.00000000E+00
  1.23755293E+01  1.23755293E+01 -2.47510585E+01  0.00000000E+00  1.23755293E+01
  1.23755293E+01 -2.47510585E+01  0.00000000E+00  1.23755293E+01  1.23755293E+01
 -2.47510585E+01  0.00000000E+00  1.23755293E+01  1.23755293E+01 -2.47510585E+01
  0.00000000E+00  1.23755293E+01  1.23755293E+01 -2.47510585E+01  0.00000000E+00
  1.23755293E+01  1.23755293E+01 -2.47510585E+01  0.00000000E+00  1.23755293E+01
  1.23755293E+01 -2.47510585E+01  0.00000000E+00  1.23755293E+01  1.23755293E+01
 -2.47510585E+01  0.00000000E+00  1.23755293E+01  1.23755293E+01 -2.47510585E+01
  0.00000000E+00  1.23755293E+01  1.23755293E+01 -2.47510585E+01  0.00000000E+00
  1.23755293E+01  1.23755293E+01 -2.47510585E+01  0.00000000E+00  1.23755293E+01
  1.23755293E+01 -2.47510585E+01  0.00000000E+00  1.23755293E+01  1.23755293E+01
 -2.47510585E+01  0.00000000E+00  1.23755293E+01  1.23755293E+01 -2.47510585E+01
  0.00000000E+00  1.23755293E+01  1.23755293E+01 -2.47510585E+01  0.00000000E+00
  1.23755293E+01  1.23755293E+01 -2.47510585E+01  0.00000000E+00  1.23755293E+01
  1.23755293E+01 -2.47510585E+01  0.00000000E+00  1.23755293E+01  1.23755293E+01
 -2.47510585E+01  0.00000000E+00  1.23755293E+01  1.23755293E+01 -2.47510585E+01
  0.00000000E+00  1.23755293E+01  1.23755293E+01 -2.47510585E+01  0.00000000E+00
  1.23755293E+01  1.23755293E+01 -2.47510585E+01  0.00000000E+00  1.23755293E+01
  1.23755293E+01 -2.47510585E+01  0.00000000E+00  1.23755293E+01  1.23755293E+01
 -2.47510585E+01  0.00000000E+00  1.23755293E+01  1.23755293E+01 -2.47510585E+01
  0.00000000E+00  1.23755293E+01  1.23755293E+01 -2.47510585E+01  0.00000000E+00
  1.23755293E+01  1.23755293E+01 -2.47510585E+01  0.00000000E+00  1.23755293E+01
  1.23755293E+01 -2.47510585E+01  0.00000000E+00  1.23755293E+01  1.23755293E+01
 -2.47510585E+01  0.00000000E+00  1.23755293E+01  1.23755293E+01 -2.47510585E+01
  0.00000000E+00  1.23755293E+01  1.23755293E+01 -2.47510585E+01  0.00000000E+00
  1.23755293E+01  1.23755293E+01 -2.47510585E+01  0.00000000E+00  1.23755293E+01
  1.23755293E+01 -2.47510585E+01  0.00000000E+00  1.23755293E+01  1.23755293E+01
 -2.47510585E+01  0.00000000E+00  1.23755293E+01  1.23755293E+01 -2.47510585E+01
  0.00000000E+00  1.23755293E+01  1.23755293E+01 -2.47510585E+01  0.00000000E+00
  1.23755293E+01  1.23755293E+01 -2.47510585E+01  0.00000000E+00  1.23755293E+01
  1.23755293E+01 -2.47510585E+01  0.00000000E+00  1.23755293E+01  1.23755293E+01
 -2.47510585E+01  0.00000000E+00  1.23755293E+01  1.23755293E+01 -2.47510585E+01
  0.00000000E+00  1.23755293E+01  1.23755293E+01 -2.47510585E+01  0.00000000E+00
  1.23755293E+01  1.23755293E+01 -2.47510585E+01  0.00000000E+00  1.23755293E+01
  1.23755293E+01 -2.47510585E+01  0.00000000E+00  1.23755293E+01  1.23755293E+01
 -2.47510585E+01  0.00000000E+00  1.23755293E+01  1.23755293E+01 -2.47510585E+01
  0.00000000E+00  1.23755293E+01  1.23755293E+01 -2.47510585E+01  0.00000000E+00
  1.23755293E+01  1.23755293E+01 -2.47510585E+01  0.00000000E+00  1.23755293E+01
  1.23755293E+01 -2.47510585E+01  0.00000000E+00  1.23755293E+01  1.23755293E+01
 -2.47510585E+01  0.00000000E+00  1.23755293E+01  1.23755293E+01 -2.47510585E+01
  0.00000000E+00  1.23755293E+01  1.23755293E+01 -2.47510585E+01  0.00000000E+00
  1.23755293E+01  1.23755293E+01 -2.47510585E+01  0.00000000E+00  1.23755293E+01
  1.23755293E+01 -2.47510585E+01  0.00000000E+00  1.23755293E+01  1.23755293E+01
 -2.47510585E+01  0.00000000E+00  1.23755293E+01  1.23755293E+01 -2.47510585E+01
  0.00000000E+00  1.23755293E+01  1.23755293E+01 -2.47510585E+01  0.00000000E+00
  1.23755293E+01  1.23755293E+01 -2.47510585E+01  0.00000000E+00  1.23755293E+01
  1.23755293E+01 -2.47510585E+01  0.00000000E+00  1.23755293E+01  1.23755293E+01
 -2.47510585E+01  0.00000000E+00  1.23755293E+01  1.23755293E+01 -2.47510585E+01
  0.00000000E+00  1.23755293E+01  1.23755293E+01 -2.47510585E+01  0.00000000E+00
  1.23755293E+01  1.23755293E+01 -2.47510585E+01  0.00000000E+00  1.23755293E+01
  1.23755293E+01 -2.47510585E+01  0.00000000E+00  1.23755293E+01  1.23755293E+01
 -2.47510585E+01  0.00000000E+00  1.23755293E+01  1.23755293E+01 -2.47510585E+01
  0.00000000E+00  1.23755293E+01  1.23755293E+01 -2.47510585E+01  0.00000000E+00
  1.23755293E+01  1.23755293E+01 -2.47510585E+01  0.00000000E+00  1.23755293E+01
  1.23755293E+01 -2.47510585E+01  0.00000000E+00  1.23755293E+01  1.23755293E+01
 -2.47510585E+01  0.00000000E+00  1.23755293E+01  1.23755293E+01 -2.47510585E+01
  0.00000000E+00  1.23755293E+01  1.23755293E+01 -2.47510585E+01  0.00000000E+00
  1.23755293E+01  1.23755293E+01 -2.47510585E+01  0.00000000E+00  1.23755293E+01
  1.23755293E+01 -2.47510585E+01  0.00000000E+00  1.23755293E+01  1.23755293E+01
 -2.47510585E+01  0.00000000E+00  1.23755293E+01  1.23755293E+01 -2.47510585E+01
  0.00000000E+00  1.23755293E+01  1.23755293E+01 -2.47510585E+01  0.00000000E+00
  1.23755293E+01  1.23755293E+01 -2.47510585E+01  0.00000000E+00  1.23755293E+01
  1.23755293E+01 -2.47510585E+01  0.00000000E+00  1.23755293E+01  1.23755293E+01
 -2.47510585E+01  0.00000000E+00  1.23755293E+01  1.23755293E+01 -2.47510585E+01
  0.00000000E+00  1.23755293E+01  1.23755293E+01 -2.47510585E+01  0.00000000E+00
  1.23755293E+01  1.23755293E+01 -2.47510585E+01  0.00000000E+00  1.23755293E+01
  1.23755293E+01 -2.47510585E+01  0.00000000E+00  1.23755293E+01  1.23755293E+01
 -2.47510585E+01  0.00000000E+00  1.23755293E+01  1.23755293E+01 -2.47510585E+01
  0.00000000E+00  1.23755293E+01  1.23755293E+01 -2.47510585E+01  0.00000000E+00
  1.23755293E+01  1.23755293E+01 -2.47510585E+01  0.00000000E+00  1.23755293E+01
  1.23755293E+01 -2.47510585E+01  0.00000000E+00  1.23755293E+01  1.23755293E+01
 -2.47510585E+01  0.00000000E+00  1.23755293E+01  1.23755293E+01 -2.47510585E+01
  0.00000000E+00  1.23755293E+01  1.23755293E+01 -2.47510585E+01  0.00000000E+00
  1.23755293E+01  1.23755293E+01 -2.47510585E+01  0.00000000E+00  1.23755293E+01
  1.23755293E+01 -2.47510585E+01  0.00000000E+00  1.23755293E+01  1.23755293E+01
 -2.47510585E+01  0.00000000E+00  1.23755293E+01  1.23755293E+01 -2.47510585E+01
  0.00000000E+00  1.23755293E+01  1.23755293E+01 -2.47510585E+01  0.00000000E+00
  1.23755293E+01  1.23755293E+01 -2.47510585E+01  0.00000000E+00  1.23755293E+01
  1.23755293E+01 -2.47510585E+01  0.00000000E+00  1.23755293E+01  1.23755293E+01
 -2.47510585E+01  0.00000000E+00  1.23755293E+01  1.23755293E+01 -2.47510585E+01
  0.00000000E+00  1.23755293E+01  1.23755293E+01 -2.47510585E+01  0.00000000E+00
  1.23755293E+01  1.23755293E+01 -2.47510585E+01  0.00000000E+00  1.23755293E+01
  1.23755293E+01 -2.47510585E+01  0.00000000E+00  1.23755293E+01  1.23755293E+01
 -2.47510585E+01  0.00000000E+00  1.23755293E+01  1.23755293E+01 -2.47510585E+01
  0.00000000E+00  1.23755293E+01  1.23755293E+01 -2.47510585E+01  0.00000000E+00
  1.23755293E+01  1.23755293E+01 -2.47510585E+01  0.00000000E+00  1.23755293E+01
  1.23755293E+01 -2.47510585E+01  0.00000000E+00  1.23755293E+01  1.23755293E+01
 -2.47510585E+01  0.00000000E+00  1.23755293E+01  1.23755293E+01 -2.47510585E+01
  0.00000000E+00  1.23755293E+01  1.23755293E+01 -2.47510585E+01  0.00000000E+00
  1.23755293E+01  1.23755293E+01 -2.47510585E+01  0.00000000E+00  1.23755293E+01
  1.23755293E+01 -2.47510585E+01  0.00000000E+00  1.23755293E+01  1.23755293E+01
 -2.47510585E+01  0.00000000E+00  1.23755293E+01  1.23755293E+01 -2.47510585E+01
  0.00000000E+00  1.23755293E+01  1.23755293E+01 -2.47510585E+01  0.00000000E+00
  1.23755293E+01  1.23755293E+01 -2.47510585E+01  0.00000000E+00  1.23755293E+01
  1.23755293E+01 -2.47510585E+01  0.00000000E+00  1.23755293E+01  1.23755293E+01
 -2.47510585E+01  0.00000000E+00  1.23755293E+01  1.23755293E+01 -2.47510585E+01
  0.00000000E+00  1.23755293E+01  1.23755293E+01 -2.47510585E+01  0.00000000E+00
  1.23755293E+01  1.23755293E+01 -2.47510585E+01  0.00000000E+00  1.23755293E+01
  1.23755293E+01 -2.47510585E+01  0.00000000E+00  1.23755293E+01  1.23755293E+01
 -2.47510585E+01  0.00000000E+00  1.23755293E+01  1.23755293E+01 -2.47510585E+01
  0.00000000E+00  1.23755293E+01  1.23755293E+01 -2.47510585E+01  0.00000000E+00
  1.23755293E+01  1.23755293E+01 -2.47510585E+01  0.00000000E+00  1.23755293E+01
  1.23755293E+01 -2.47510585E+01  0.00000000E+00  1.23755293E+01  1.23755293E+01
 -2.47510585E+01  0.00000000E+00  1.23755293E+01  1.23755293E+01 -2.47510585E+01
  0.00000000E+00  1.23755293E+01  1.23755293E+01 -2.47510585E+01  0.00000000E+00
  1.23755293E+01  1.23755293E+01 -2.47510585E+01  0.00000000E+00  1.23755293E+01
  1.23755293E+01 -2.47510585E+01  0.00000000E+00  1.23755293E+01  1.23755293E+01
 -2.47510585E+01  0.00000000E+00  1.23755293E+01  1.23755293E+01 -2.47510585E+01
  0.00000000E+00  1.23755293E+01  1.23755293E+01 -2.47510585E+01  0.00000000E+00
  1.23755293E+01  1.23755293E+01 -2.47510585E+01  0.00000000E+00  1.23755293E+01
  1.23755293E+01 -2.47510585E+01  0.00000000E+00  1.23755293E+01  1.23755293E+01
 -2.47510585E+01  0.00000000E+00  1.23755293E+01  1.23755293E+01 -2.47510585E+01
  0.00000000E+00  1.23755293E+01  1.23755293E+01 -2.47510585E+01  0.00000000E+00
  1.23755293E+01  1.23755293E+01 -2.47510585E+01  0.00000000E+00  1.23755293E+01
  1.23755293E+01 -2.47510585E+01  0.00000000E+00  1.23755293E+01  1.23755293E+01
 -2.47510585E+01  0.00000000E+00  1.23755293E+01  1.23755293E+01 -2.47510585E+01
  0.00000000E+00  1.23755293E+01  1.23755293E+01 -2.47510585E+01  0.00000000E+00
  1.23755293E+01  1.23755293E+01 -2.47510585E+01  0.00000000E+00  1.23755293E+01
  1.23755293E+01 -2.47510585E+01  0.00000000E+00  1.23755293E+01  1.23755293E+01
 -2.47510585E+01  0.00000000E+00  1.23755293E+01  1.23755293E+01 -2.47510585E+01
  0.00000000E+00  1.23755293E+01  1.23755293E+01 -2.47510585E+01  0.00000000E+00
  1.23755293E+01  1.23755293E+01 -2.47510585E+01  0.00000000E+00  1.23755293E+01
  1.23755293E+01 -2.47510585E+01  0.00000000E+00  1.23755293E+01  1.23755293E+01
 -2.47510585E+01  0.00000000E+00  1.23755293E+01  1.23755293E+01 -2.47510585E+01
  0.00000000E+00  1.23755293E+01  1.23755293E+01 -2.47510585E+01  0.00000000E+00
  1.23755293E+01  1.23755293E+01 -2.47510585E+01  0.00000000E+00  1.23755293E+01
  1.23755293E+01 -2.47510585E+01  0.00000000E+00  1.23755293E+01  1.23755293E+01
 -2.47510585E+01  0.00000000E+00  1.23755293E+01  1.23755293E+01 -2.47510585E+01
  0.00000000E+00  1.23755293E+01  1.23755293E+01 -2.47510585E+01  0.00000000E+00
  1.23755293E+01  1.23755293E+01 -2.47510585E+01  0.00000000E+00  1.23755293E+01
  1.23755293E+01 -2.47510585E+01  0.00000000E+00  1.23755293E+01  1.23755293E+01
 -2.47510585E+01  0.00000000E+00  1.23755293E+01  1.23755293E+01 -2.47510585E+01
  0.00000000E+00  1.23755293E+01  1.23755293E+01 -2.47510585E+01  0.00000000E+00
  1.23755293E+01  1.23755293E+01 -2.47510585E+01  0.00000000E+00  1.23755293E+01
  1.23755293E+01 -2.47510585E+01  0.00000000E+00  1.23755293E+01  1.23755293E+01
 -2.47510585E+01  0.00000000E+00  1.23755293E+01  1.23755293E+01 -2.47510585E+01
  0.00000000E+00  1.23755293E+01  1.23755293E+01 -2.47510585E+01  0.00000000E+00
  1.23755293E+01  1.23755293E+01 -2.47510585E+01  0.00000000E+00  1.23755293E+01
  1.23755293E+01 -2.47510585E+01  0.00000000E+00  1.23755293E+01  1.23755293E+01
 -2.47510585E+01  0.00000000E+00  1.23755293E+01  1.23755293E+01 -2.47510585E+01
  0.00000000E+00  1.23755293E+01  1.23755293E+01 -2.47510585E+01  0.00000000E+00
  1.23755293E+01  1.23755293E+01 -2.47510585E+01  0.00000000E+00  1.23755293E+01
  1.23755293E+01 -2.47510585E+01  0.00000000E+00  1.23755293E+01  1.23755293E+01
 -2.47510585E+01  0.00000000E+00  1.23755293E+01  1.23755293E+01 -2.47510585E+01
  0.00000000E+00  1.23755293E+01  1.23755293E+01 -2.47510585E+01  0.00000000E+00
  1.23755293E+01  1.23755293E+01 -2.47510585E+01  0.00000000E+00  1.23755293E+01
  1.23755293E+01 -2.47510585E+01  0.00000000E+00  1.23755293E+01  1.23755293E+01
 -2.47510585E+01  0.00000000E+00  1.23755293E+01  1.23755293E+01 -2.47510585E+01
  0.00000000E+00  1.23755293E+01  1.23755293E+01 -2.47510585E+01  0.00000000E+00
  1.23755293E+01  1.23755293E+01 -2.47510585E+01  0.00000000E+00  1.23755293E+01
  1.23755293E+01 -2.47510585E+01  0.00000000E+00  1.23755293E+01  1.23755293E+01
 -2.47510585E+01  0.00000000E+00  1.23755293E+01  1.23755293E+01 -2.47510585E+01
  0.00000000E+00  1.23755293E+01  1.23755293E+01 -2.47510585E+01  0.00000000E+00
  1.23755293E+01  1.23755293E+01 -2.47510585E+01  0.00000000E+00  1.23755293E+01
  1.23755293E+01 -2.47510585E+01  0.00000000E+00  1.23755293E+01  1.23755293E+01
 -2.47510585E+01  0.00000000E+00  1.23755293E+01  1.23755293E+01 -2.47510585E+01
  0.00000000E+00  1.23755293E+01  1.23755293E+01 -2.47510585E+01  0.00000000E+00
  1.23755293E+01  1.23755293E+01 -2.47510585E+01  0.00000000E+00  1.23755293E+01
  1.23755293E+01 -2.47510585E+01  0.00000000E+00  1.23755293E+01  1.23755293E+01
 -2.47510585E+01  0.00000000E+00  1.23755293E+01  1.23755293E+01 -2.47510585E+01
  0.00000000E+00  1.23755293E+01  1.23755293E+01 -2.47510585E+01  0.00000000E+00
  1.23755293E+01  1.23755293E+01 -2.47510585E+01  0.00000000E+00  1.23755293E+01
  1.23755293E+01 -2.47510585E+01  0.00000000E+00  1.23755293E+01  1.23755293E+01
 -2.47510585E+01  0.00000000E+00  1.23755293E+01  1.23755293E+01 -2.47510585E+01
  0.00000000E+00  1.23755293E+01  1.23755293E+01 -2.47510585E+01  0.00000000E+00
  1.23755293E+01  1.23755293E+01 -2.47510585E+01  0.00000000E+00  1.23755293E+01
  1.23755293E+01 -2.47510585E+01  0.00000000E+00  1.23755293E+01  1.23755293E+01
 -2.47510585E+01  0.00000000E+00  1.23755293E+01  1.23755293E+01 -2.47510585E+01
  0.00000000E+00  1.23755293E+01  1.23755293E+01 -2.47510585E+01  0.00000000E+00
  1.23755293E+01  1.23755293E+01 -2.47510585E+01  0.00000000E+00  1.23755293E+01
  1.23755293E+01 -2.47510585E+01  0.00000000E+00  1.23755293E+01  1.23755293E+01
 -2.47510585E+01  0.00000000E+00  1.23755293E+01  1.23755293E+01 -2.47510585E+01
  0.00000000E+00  1.23755293E+01  1.23755293E+01 -2.47510585E+01  0.00000000E+00
  1.23755293E+01  1.23755293E+01 -2.47510585E+01  0.00000000E+00  1.23755293E+01
  1.23755293E+01 -2.47510585E+01  0.00000000E+00  1.23755293E+01  1.23755293E+01
 -2.47510585E+01  0.00000000E+00  1.23755293E+01  1.23755293E+01 -2.47510585E+01
  0.00000000E+00  1.23755293E+01  1.23755293E+01 -2.47510585E+01  0.00000000E+00
  1.23755293E+01  1.23755293E+01 -2.47510585E+01  0.00000000E+00  1.23755293E+01
  1.23755293E+01 -2.47510585E+01  0.00000000E+00  1.23755293E+01  1.23755293E+01
 -2.47510585E+01  0.00000000E+00  1.23755293E+01  1.23755293E+01 -2.47510585E+01
  0.00000000E+00  1.23755293E+01  1.23755293E+01 -2.47510585E+01  0.00000000E+00
  1.23755293E+01  1.23755293E+01 -2.47510585E+01  0.00000000E+00  1.23755293E+01
  1.23755293E+01 -2.47510585E+01  0.00000000E+00  1.23755293E+01  1.23755293E+01
 -2.47510585E+01  0.00000000E+00  1.23755293E+01  1.23755293E+01 -2.47510585E+01
  0.00000000E+00  1.23755293E+01  1.23755293E+01 -2.47510585E+01  0.00000000E+00
  1.23755293E+01  1.23755293E+01 -2.47510585E+01  0.00000000E+00  1.23755293E+01
  1.23755293E+01 -2.47510585E+01  0.00000000E+00  1.23755293E+01  1.23755293E+01
 -2.47510585E+01  0.00000000E+00  1.23755293E+01  1.23755293E+01 -2.47510585E+01
  0.00000000E+00  1.23755293E+01  1.23755293E+01 -2.47510585E+01  0.00000000E+00
  1.23755293E+01  1.23755293E+01 -2.47510585E+01  0.00000000E+00  1.23755293E+01
  1.23755293E+01 -2.47510585E+01  0.00000000E+00  1.23755293E+01  1.23755293E+01
 -2.47510585E+01  0.00000000E+00  1.23755293E+01  1.23755293E+01 -2.47510585E+01
  0.00000000E+00  1.23755293E+01  1.23755293E+01 -2.47510585E+01  0.00000000E+00
  1.23755293E+01  1.23755293E+01 -2.47510585E+01  0.00000000E+00  1.23755293E+01
  1.23755293E+01 -2.47510585E+01  0.00000000E+00  1.23755293E+01  1.23755293E+01
 -2.47510585E+01  0.00000000E+00  1.23755293E+01  1.23755293E+01 -2.47510585E+01
  0.00000000E+00  1.23755293E+01  1.23755293E+01 -2.47510585E+01  0.00000000E+00
  1.23755293E+01  1.23755293E+01 -2.47510585E+01  0.00000000E+00  1.23755293E+01
  1.23755293E+01 -2.47510585E+01  0.00000000E+00  1.23755293E+01  1.23755293E+01
 -2.47510585E+01  0.00000000E+00  1.23755293E+01  1.23755293E+01 -2.47510585E+01
  0.00000000E+00  1.23755293E+01  1.23755293E+01 -2.47510585E+01  0.00000000E+00
  1.23755293E+01  1.23755293E+01 -2.47510585E+01  0.00000000E+00  1.23755293E+01
  1.23755293E+01 -2.47510585E+01  0.00000000E+00  1.23755293E+01  1.23755293E+01
 -2.47510585E+01  0.00000000E+00  1.23755293E+01  1.23755293E+01 -2.47510585E+01
  0.00000000E+00  1.23755293E+01  1.23755293E+01 -2.47510585E+01  0.00000000E+00
  1.23755293E+01  1.23755293E+01 -2.47510585E+01  0.00000000E+00  1.23755293E+01
  1.23755293E+01 -2.47510585E+01  0.00000000E+00  1.23755293E+01  1.23755293E+01
 -2.47510585E+01  0.00000000E+00  1.23755293E+01  1.23755293E+01 -2.47510585E+01
  0.00000000E+00  1.23755293E+01  1.23755293E+01 -2.47510585E+01  0.00000000E+00
  1.23755293E+01  1.23755293E+01 -2.47510585E+01  0.00000000E+00  1.23755293E+01
  1.23755293E+01 -2.47510585E+01  0.00000000E+00  1.23755293E+01  1.23755293E+01
 -2.47510585E+01  0.00000000E+00  1.23755293E+01  1.23755293E+01 -2.47510585E+01
  0.00000000E+00  1.23755293E+01  1.23755293E+01 -2.47510585E+01  0.00000000E+00
  1.23755293E+01  1.23755293E+01 -2.47510585E+01  0.00000000E+00  1.23755293E+01
  1.23755293E+01 -2.47510585E+01  0.00000000E+00  1.23755293E+01  1.23755293E+01
 -2.47510585E+01  0.00000000E+00  1.23755293E+01  1.23755293E+01 -2.47510585E+01
  0.00000000E+00  1.23755293E+01  1.23755293E+01 -2.47510585E+01  0.00000000E+00
  1.23755293E+01  1.23755293E+01 -2.47510585E+01  0.00000000E+00  1.23755293E+01
  1.23755293E+01 -2.47510585E+01  0.00000000E+00  1.23755293E+01  1.23755293E+01
 -2.47510585E+01  0.00000000E+00  1.23755293E+01  1.23755293E+01 -2.47510585E+01
  0.00000000E+00  1.23755293E+01  1.23755293E+01 -2.47510585E+01  0.00000000E+00
  1.23755293E+01  1.23755293E+01 -2.47510585E+01  0.00000000E+00  1.23755293E+01
  1.23755293E+01 -2.47510585E+01  0.00000000E+00  1.23755293E+01  1.23755293E+01
 -2.47510585E+01  0.00000000E+00  1.23755293E+01  1.23755293E+01 -2.47510585E+01
  0.00000000E+00  1.23755293E+01  1.23755293E+01 -2.47510585E+01  0.00000000E+00
  1.23755293E+01  1.23755293E+01 -2.47510585E+01  0.00000000E+00  1.23755293E+01
  1.23755293E+01 -2.47510585E+01  0.00000000E+00  1.23755293E+01  1.23755293E+01
 -2.47510585E+01  0.00000000E+00  1.23755293E+01  1.23755293E+01 -2.47510585E+01
  0.00000000E+00  1.23755293E+01  1.23755293E+01 -2.47510585E+01  0.00000000E+00
  1.23755293E+01  1.23755293E+01 -2.47510585E+01  0.00000000E+00  1.23755293E+01
  1.23755293E+01 -2.47510585E+01  0.00000000E+00  1.23755293E+01  1.23755293E+01
 -2.47510585E+01  0.00000000E+00  1.23755293E+01  1.23755293E+01 -2.47510585E+01
  0.00000000E+00  1.23755293E+01  1.23755293E+01 -2.47510585E+01  0.00000000E+00
  1.23755293E+01  1.23755293E+01 -2.47510585E+01  0.00000000E+00  1.23755293E+01
  1.23755293E+01 -2.47510585E+01  0.00000000E+00  1.23755293E+01  1.23755293E+01
 -2.47510585E+01  0.00000000E+00  1.23755293E+01  1.23755293E+01 -2.47510585E+01
  0.00000000E+00  1.23755293E+01  1.23755293E+01 -2.47510585E+01  0.00000000E+00
  1.23755293E+01  1.23755293E+01 -2.47510585E+01  0.00000000E+00  1.23755293E+01
  1.23755293E+01 -2.47510585E+01  0.00000000E+00  1.23755293E+01  1.23755293E+01
 -2.47510585E+01  0.00000000E+00  1.23755293E+01  1.23755293E+01 -2.47510585E+01
  0.00000000E+00  1.23755293E+01  1.23755293E+01 -2.47510585E+01  0.00000000E+00
  1.23755293E+01  1.23755293E+01 -2.47510585E+01  0.00000000E+00  1.23755293E+01
  1.23755293E+01 -2.47510585E+01  0.00000000E+00  1.23755293E+01  1.23755293E+01
 -2.47510585E+01  0.00000000E+00  1.23755293E+01  1.23755293E+01 -2.47510585E+01
  0.00000000E+00  1.23755293E+01  1.23755293E+01 -2.47510585E+01  0.00000000E+00
  1.23755293E+01  1.23755293E+01 -2.47510585E+01  0.00000000E+00  1.23755293E+01
  1.23755293E+01 -2.47510585E+01  0.00000000E+00  1.23755293E+01  1.23755293E+01
 -2.47510585E+01  0.00000000E+00  1.23755293E+01  1.23755293E+01 -2.47510585E+01
  0.00000000E+00  1.23755293E+01  1.23755293E+01 -2.47510585E+01  0.00000000E+00
  1.23755293E+01  1.23755293E+01 -2.47510585E+01  0.00000000E+00  1.23755293E+01
  1.23755293E+01 -2.47510585E+01  0.00000000E+00  1.23755293E+01  1.23755293E+01
 -2.47510585E+01  0.00000000E+00  1.23755293E+01  1.23755293E+01 -2.47510585E+01
  0.00000000E+00  1.23755293E+01  1.23755293E+01 -2.47510585E+01  0.00000000E+00
  1.23755293E+01  1.23755293E+01 -2.47510585E+01  0.00000000E+00  1.23755293E+01
  1.23755293E+01 -2.47510585E+01  0.00000000E+00  1.23755293E+01  1.23755293E+01
 -2.47510585E+01  0.00000000E+00  1.23755293E+01  1.23755293E+01 -2.47510585E+01
  0.00000000E+00  1.23755293E+01  1.23755293E+01 -2.47510585E+01  0.00000000E+00
  1.23755293E+01  1.23755293E+01 -2.47510585E+01  0.00000000E+00  1.23755293E+01
  1.23755293E+01 -2.47510585E+01  0.00000000E+00  1.23755293E+01  1.23755293E+01
 -2.47510585E+01  0.00000000E+00  1.23755293E+01  1.23755293E+01 -2.47510585E+01
  0.00000000E+00  1.23755293E+01  1.23755293E+01 -2.47510585E+01  0.00000000E+00
  1.23755293E+01  1.23755293E+01 -2.47510585E+01  0.00000000E+00  1.23755293E+01
  1.23755293E+01 -2.47510585E+01  0.00000000E+00  1.23755293E+01  1.23755293E+01
 -2.47510585E+01  0.00000000E+00  1.23755293E+01  1.23755293E+01 -2.47510585E+01
  0.00000000E+00  1.23755293E+01  1.23755293E+01 -2.47510585E+01  0.00000000E+00
  1.23755293E+01  1.23755293E+01 -2.47510585E+01  0.00000000E+00  1.23755293E+01
  1.23755293E+01 -2.47510585E+01  0.00000000E+00  1.23755293E+01  1.23755293E+01
 -2.47510585E+01  0.00000000E+00  1.23755293E+01  1.23755293E+01 -2.47510585E+01
  0.00000000E+00  1.23755293E+01  1.23755293E+01 -2.47510585E+01  0.00000000E+00
  1.23755293E+01  1.23755293E+01 -2.47510585E+01  0.00000000E+00  1.23755293E+01
  1.23755293E+01 -2.47510585E+01  0.00000000E+00  1.23755293E+01  1.23755293E+01
 -2.47510585E+01  0.00000000E+00  1.23755293E+01  1.23755293E+01 -2.47510585E+01
  0.00000000E+00  1.23755293E+01  1.23755293E+01 -2.47510585E+01  0.00000000E+00
  1.23755293E+01  1.23755293E+01 -2.47510585E+01  0.00000000E+00  1.23755293E+01
  1.23755293E+01 -2.47510585E+01  0.00000000E+00  1.23755293E+01  1.23755293E+01
 -2.47510585E+01  0.00000000E+00  1.23755293E+01  1.23755293E+01 -2.47510585E+01
  0.00000000E+00  1.23755293E+01  1.23755293E+01 -2.47510585E+01  0.00000000E+00
  1.23755293E+01  1.23755293E+01 -2.47510585E+01  0.00000000E+00  1.23755293E+01
  1.23755293E+01 -2.47510585E+01  0.00000000E+00  1.23755293E+01  1.23755293E+01
 -2.47510585E+01  0.00000000E+00  1.23755293E+01  1.23755293E+01 -2.47510585E+01
  0.00000000E+00  1.23755293E+01  1.23755293E+01 -2.47510585E+01  0.00000000E+00
  1.23755293E+01  1.23755293E+01 -2.47510585E+01  0.00000000E+00  1.23755293E+01
  1.23755293E+01 -2.47510585E+01  0.00000000E+00  1.23755293E+01  1.23755293E+01
 -2.47510585E+01  0.00000000E+00  1.23755293E+01  1.23755293E+01 -2.47510585E+01
  0.00000000E+00  1.23755293E+01  1.23755293E+01 -2.47510585E+01  0.00000000E+00
  1.23755293E+01  1.23755293E+01 -2.47510585E+01  0.00000000E+00  1.23755293E+01
  1.23755293E+01 -2.47510585E+01  0.00000000E+00  1.23755293E+01  1.23755293E+01
 -2.47510585E+01  0.00000000E+00  1.23755293E+01  1.23755293E+01 -2.47510585E+01
  0.00000000E+00  1.23755293E+01  1.23755293E+01 -2.47510585E+01  0.00000000E+00
  1.23755293E+01  1.23755293E+01 -2.47510585E+01  0.00000000E+00  1.23755293E+01
  1.23755293E+01 -2.47510585E+01  0.00000000E+00  1.23755293E+01  1.23755293E+01
 -2.47510585E+01  0.00000000E+00  1.23755293E+01  1.23755293E+01 -2.47510585E+01
  0.00000000E+00  1.23755293E+01  1.23755293E+01 -2.47510585E+01  0.00000000E+00
  1.23755293E+01  1.23755293E+01 -2.47510585E+01  0.00000000E+00  1.23755293E+01
  1.23755293E+01 -2.47510585E+01  0.00000000E+00  1.23755293E+01  1.23755293E+01
 -2.47510585E+01  0.00000000E+00  1.23755293E+01  1.23755293E+01 -2.47510585E+01
  0.00000000E+00  1.23755293E+01  1.23755293E+01 -2.47510585E+01  0.00000000E+00
  1.23755293E+01  1.23755293E+01 -2.47510585E+01  0.00000000E+00  1.23755293E+01
  1.23755293E+01 -2.47510585E+01  0.00000000E+00  1.23755293E+01  1.23755293E+01
 -2.47510585E+01  0.00000000E+00  1.23755293E+01  1.23755293E+01 -2.47510585E+01
  0.00000000E+00  1.23755293E+01  1.23755293E+01 -2.47510585E+01  0.00000000E+00
  1.23755293E+01  1.23755293E+01 -2.47510585E+01  0.00000000E+00  1.23755293E+01
  1.23755293E+01 -2.47510585E+01  0.00000000E+00  1.23755293E+01  1.23755293E+01
 -2.47510585E+01  0.00000000E+00  1.23755293E+01  1.23755293E+01 -2.47510585E+01
  0.00000000E+00  1.23755293E+01  1.23755293E+01 -2.47510585E+01  0.00000000E+00
  1.23755293E+01  1.23755293E+01 -2.47510585E+01  0.00000000E+00  1.23755293E+01
  1.23755293E+01 -2.47510585E+01  0.00000000E+00  1.23755293E+01  1.23755293E+01
 -2.47510585E+01  0.00000000E+00  1.23755293E+01  1.23755293E+01 -2.47510585E+01
  0.00000000E+00  1.23755293E+01  1.23755293E+01 -2.47510585E+01  0.00000000E+00
  1.23755293E+01  1.23755293E+01 -2.47510585E+01  0.00000000E+00  1.23755293E+01
  1.23755293E+01 -2.47510585E+01  0.00000000E+00  1.23755293E+01  1.23755293E+01
 -2.47510585E+01  0.00000000E+00  1.23755293E+01  1.23755293E+01 -2.47510585E+01
  0.00000000E+00  1.23755293E+01  1.23755293E+01 -2.47510585E+01  0.00000000E+00
  1.23755293E+01  1.23755293E+01 -2.47510585E+01  0.00000000E+00  1.23755293E+01
  1.23755293E+01 -2.47510585E+01  0.00000000E+00  1.23755293E+01  1.23755293E+01
 -2.47510585E+01  0.00000000E+00  1.23755293E+01  1.23755293E+01 -2.47510585E+01
  0.00000000E+00  1.23755293E+01  1.23755293E+01 -2.47510585E+01  0.00000000E+00
  1.23755293E+01  1.23755293E+01 -2.47510585E+01  0.00000000E+00  1.23755293E+01
  1.23755293E+01 -2.47510585E+01  0.00000000E+00  1.23755293E+01  1.23755293E+01
 -2.47510585E+01  0.00000000E+00  1.23755293E+01  1.23755293E+01 -2.47510585E+01
  0.00000000E+00  1.23755293E+01  1.23755293E+01 -2.47510585E+01  0.00000000E+00
  1.23755293E+01  1.23755293E+01 -2.47510585E+01  0.00000000E+00  1.23755293E+01
  1.23755293E+01 -2.47510585E+01  0.00000000E+00  1.23755293E+01  1.23755293E+01
 -2.47510585E+01  0.00000000E+00  1.23755293E+01  1.23755293E+01 -2.47510585E+01
  0.00000000E+00  1.23755293E+01  1.23755293E+01 -2.47510585E+01  0.00000000E+00
  1.23755293E+01  1.23755293E+01 -2.47510585E+01  0.00000000E+00  1.23755293E+01
  1.23755293E+01 -2.47510585E+01  0.00000000E+00  1.23755293E+01  1.23755293E+01
 -2.47510585E+01  0.00000000E+00  1.23755293E+01  1.23755293E+01 -2.47510585E+01
  0.00000000E+00  1.23755293E+01  1.23755293E+01 -2.47510585E+01  0.00000000E+00
  1.23755293E+01  1.23755293E+01 -2.47510585E+01  0.00000000E+00  1.23755293E+01
  1.23755293E+01 -2.47510585E+01  0.00000000E+00  1.23755293E+01  1.23755293E+01
 -2.47510585E+01  0.00000000E+00  1.23755293E+01  1.23755293E+01 -2.47510585E+01
  0.00000000E+00  1.23755293E+01  1.23755293E+01 -2.47510585E+01  0.00000000E+00
  1.23755293E+01  1.23755293E+01 -2.47510585E+01  0.00000000E+00  1.23755293E+01
  1.23755293E+01 -2.47510585E+01  0.00000000E+00  1.23755293E+01  1.23755293E+01
 -2.47510585E+01  0.00000000E+00  1.23755293E+01  1.23755293E+01 -2.47510585E+01
  0.00000000E+00  1.23755293E+01  1.23755293E+01 -2.47510585E+01  0.00000000E+00
  1.23755293E+01  1.23755293E+01 -2.47510585E+01  0.00000000E+00  1.23755293E+01
  1.23755293E+01 -2.47510585E+01  0.00000000E+00  1.23755293E+01  1.23755293E+01
 -2.47510585E+01  0.00000000E+00  1.23755293E+01  1.23755293E+01 -2.47510585E+01
  0.00000000E+00  1.23755293E+01  1.23755293E+01 -2.47510585E+01  0.00000000E+00
  1.23755293E+01  1.23755293E+01 -2.47510585E+01  0.00000000E+00  1.23755293E+01
  1.23755293E+01 -2.47510585E+01  0.00000000E+00  1.23755293E+01  1.23755293E+01
 -2.47510585E+01  0.00000000E+00  1.23755293E+01  1.23755293E+01 -2.47510585E+01
  0.00000000E+00  1.23755293E+01  1.23755293E+01 -2.47510585E+01  0.00000000E+00
  1.23755293E+01  1.23755293E+01 -2.47510585E+01  0.00000000E+00  1.23755293E+01
  1.23755293E+01 -2.47510585E+01  0.00000000E+00  1.23755293E+01  1.23755293E+01
 -2.47510585E+01  0.00000000E+00  1.23755293E+01  1.23755293E+01 -2.47510585E+01
  0.00000000E+00  1.23755293E+01  1.23755293E+01 -2.47510585E+01  0.00000000E+00
  1.23755293E+01  1.23755293E+01 -2.47510585E+01  0.00000000E+00  1.23755293E+01
  1.23755293E+01 -2.47510585E+01  0.00000000E+00  1.23755293E+01  1.23755293E+01
 -2.47510585E+01  0.00000000E+00  1.23755293E+01  1.23755293E+01 -2.47510585E+01
  0.00000000E+00  1.23755293E+01  1.23755293E+01 -2.47510585E+01  0.00000000E+00
  1.23755293E+01  1.23755293E+01 -2.47510585E+01  0.00000000E+00  1.23755293E+01
  1.23755293E+01 -2.47510585E+01  0.00000000E+00  1.23755293E+01  1.23755293E+01
 -2.47510585E+01  0.00000000E+00  1.23755293E+01  1.23755293E+01 -2.47510585E+01
  0.00000000E+00  1.23755293E+01  1.23755293E+01 -2.47510585E+01  0.00000000E+00
  1.23755293E+01  1.23755293E+01 -2.47510585E+01  0.00000000E+00  1.23755293E+01
  1.23755293E+01 -2.47510585E+01  0.00000000E+00  1.23755293E+01  1.23755293E+01
 -2.47510585E+01  0.00000000E+00  1.23755293E+01  1.23755293E+01 -2.47510585E+01
  0.00000000E+00  1.23755293E+01  1.23755293E+01 -2.47510585E+01  0.00000000E+00
  1.23755293E+01  1.23755293E+01 -2.47510585E+01  0.00000000E+00  1.23755293E+01
  1.23755293E+01 -2.47510585E+01  0.00000000E+00  1.23755293E+01  1.23755293E+01
 -2.47510585E+01  0.00000000E+00  1.23755293E+01  1.23755293E+01 -2.47510585E+01
  0.00000000E+00  1.23755293E+01  1.23755293E+01 -2.47510585E+01  0.00000000E+00
  1.23755293E+01  1.23755293E+01 -2.47510585E+01  0.00000000E+00  1.23755293E+01
  1.23755293E+01 -2.47510585E+01  0.00000000E+00  1.23755293E+01  1.23755293E+01
 -2.47510585E+01  0.00000000E+00  1.23755293E+01  1.23755293E+01 -2.47510585E+01
  0.00000000E+00  1.23755293E+01  1.23755293E+01 -2.47510585E+01  0.00000000E+00
  1.23755293E+01  1.23755293E+01 -2.47510585E+01  0.00000000E+00  1.23755293E+01
  1.23755293E+01 -2.47510585E+01  0.00000000E+00  1.23755293E+01  1.23755293E+01
 -2.47510585E+01  0.00000000E+00  1.23755293E+01  1.23755293E+01 -2.47510585E+01
  0.00000000E+00  1.23755293E+01  1.23755293E+01 -2.47510585E+01  0.00000000E+00
  1.23755293E+01  1.23755293E+01 -2.47510585E+01  0.00000000E+00  1.23755293E+01
  1.23755293E+01 -2.47510585E+01  0.00000000E+00  1.23755293E+01  1.23755293E+01
 -2.47510585E+01  0.00000000E+00  1.23755293E+01  1.23755293E+01 -2.47510585E+01
  0.00000000E+00  1.23755293E+01  1.23755293E+01 -2.47510585E+01  0.00000000E+00
  1.23755293E+01  1.23755293E+01 -2.47510585E+01  0.00000000E+00  1.23755293E+01
  1.23755293E+01 -2.47510585E+01  0.00000000E+00  1.23755293E+01  1.23755293E+01
 -2.47510585E+01  0.00000000E+00  1.23755293E+01  1.23755293E+01 -2.47510585E+01
  0.00000000E+00  1.23755293E+01  1.23755293E+01 -2.47510585E+01  0.00000000E+00
  1.23755293E+01  1.23755293E+01 -2.47510585E+01  0.00000000E+00  1.23755293E+01
  1.23755293E+01 -2.47510585E+01  0.00000000E+00  1.23755293E+01  1.23755293E+01
 -2.47510585E+01  0.00000000E+00  1.23755293E+01  1.23755293E+01 -2.47510585E+01
  0.00000000E+00  1.23755293E+01  1.23755293E+01 -2.47510585E+01  0.00000000E+00
  1.23755293E+01  1.23755293E+01 -2.47510585E+01  0.00000000E+00  1.23755293E+01
  1.23755293E+01 -2.47510585E+01  0.00000000E+00  1.23755293E+01  1.23755293E+01
 -2.47510585E+01  0.00000000E+00  1.23755293E+01  1.23755293E+01 -2.47510585E+01
  0.00000000E+00  1.23755293E+01  1.23755293E+01 -2.47510585E+01  0.00000000E+00
  1.23755293E+01  1.23755293E+01 -2.47510585E+01  0.00000000E+00  1.23755293E+01
  1.23755293E+01 -2.47510585E+01  0.00000000E+00  1.23755293E+01  1.23755293E+01
 -2.47510585E+01  0.00000000E+00  1.23755293E+01  1.23755293E+01 -2.47510585E+01
  0.00000000E+00  1.23755293E+01  1.23755293E+01 -2.47510585E+01  0.00000000E+00
  1.23755293E+01  1.23755293E+01 -2.47510585E+01  0.00000000E+00  1.23755293E+01
  1.23755293E+01 -2.47510585E+01  0.00000000E+00  1.23755293E+01  1.23755293E+01
 -2.47510585E+01  0.00000000E+00  1.23755293E+01  1.23755293E+01 -2.47510585E+01
  0.00000000E+00  1.23755293E+01  1.23755293E+01 -2.47510585E+01  0.00000000E+00
  1.23755293E+01  1.23755293E+01 -2.47510585E+01  0.00000000E+00  1.23755293E+01
  1.23755293E+01 -2.47510585E+01  0.00000000E+00  1.23755293E+01  1.23755293E+01
 -2.47510585E+01  0.00000000E+00  1.23755293E+01  1.23755293E+01 -2.47510585E+01
  0.00000000E+00  1.23755293E+01  1.23755293E+01 -2.47510585E+01  0.00000000E+00
  1.23755293E+01  1.23755293E+01 -2.47510585E+01  0.00000000E+00  1.23755293E+01
  1.23755293E+01 -2.47510585E+01  0.00000000E+00  1.23755293E+01  1.23755293E+01
 -2.47510585E+01  0.00000000E+00  1.23755293E+01  1.23755293E+01 -2.47510585E+01
  0.00000000E+00  1.23755293E+01  1.23755293E+01 -2.47510585E+01  0.00000000E+00
  1.23755293E+01  1.23755293E+01 -2.47510585E+01  0.00000000E+00  1.23755293E+01
  1.23755293E+01 -2.47510585E+01  0.00000000E+00  1.23755293E+01  1.23755293E+01
 -2.47510585E+01  0.00000000E+00  1.23755293E+01  1.23755293E+01 -2.47510585E+01
  0.00000000E+00  1.23755293E+01  1.23755293E+01 -2.47510585E+01  0.00000000E+00
  1.23755293E+01  1.23755293E+01 -2.47510585E+01  0.00000000E+00  1.23755293E+01
  1.23755293E+01 -2.47510585E+01  0.00000000E+00  1.23755293E+01  1.23755293E+01
 -2.47510585E+01  0.00000000E+00  1.23755293E+01  1.23755293E+01 -2.47510585E+01
  0.00000000E+00  1.23755293E+01  1.23755293E+01 -2.47510585E+01  0.00000000E+00
  1.23755293E+01  1.23755293E+01 -2.47510585E+01  0.00000000E+00  1.23755293E+01
  1.23755293E+01 -2.47510585E+01  0.00000000E+00  1.23755293E+01  1.23755293E+01
 -2.47510585E+01  0.00000000E+00  1.23755293E+01  1.23755293E+01 -2.47510585E+01
  0.00000000E+00  1.23755293E+01  1.23755293E+01 -2.47510585E+01  0.00000000E+00
  1.23755293E+01  1.23755293E+01 -2.47510585E+01  0.00000000E+00  1.23755293E+01
  1.23755293E+01 -2.47510585E+01  0.00000000E+00  1.23755293E+01  1.23755293E+01
 -2.47510585E+01  0.00000000E+00  1.23755293E+01  1.23755293E+01 -2.47510585E+01
  0.00000000E+00  1.23755293E+01  1.23755293E+01 -2.47510585E+01  0.00000000E+00
  1.23755293E+01  1.23755293E+01 -2.47510585E+01  0.00000000E+00  1.23755293E+01
  1.23755293E+01 -2.47510585E+01  0.00000000E+00  1.23755293E+01  1.23755293E+01
 -2.47510585E+01  0.00000000E+00  1.23755293E+01  1.23755293E+01 -2.47510585E+01
  0.00000000E+00  1.23755293E+01  1.23755293E+01 -2.47510585E+01  0.00000000E+00
  1.23755293E+01  1.23755293E+01 -2.47510585E+01  0.00000000E+00  1.23755293E+01
  1.23755293E+01 -2.47510585E+01  0.00000000E+00  1.23755293E+01  1.23755293E+01
 -2.47510585E+01  0.00000000E+00  1.23755293E+01  1.23755293E+01 -2.47510585E+01
  0.00000000E+00  1.23755293E+01  1.23755293E+01 -2.47510585E+01  0.00000000E+00
  1.23755293E+01  1.23755293E+01 -2.47510585E+01  0.00000000E+00  1.23755293E+01
  1.23755293E+01 -2.47510585E+01  0.00000000E+00  1.23755293E+01  1.23755293E+01
 -2.47510585E+01  0.00000000E+00  1.23755293E+01  1.23755293E+01 -2.47510585E+01
  0.00000000E+00  1.23755293E+01  1.23755293E+01 -2.47510585E+01  0.00000000E+00
  1.23755293E+01  1.23755293E+01 -2.47510585E+01  0.00000000E+00  1.23755293E+01
  1.23755293E+01 -2.47510585E+01  0.00000000E+00  1.23755293E+01  1.23755293E+01
 -2.47510585E+01  0.00000000E+00  1.23755293E+01  1.23755293E+01 -2.47510585E+01
  0.00000000E+00  1.23755293E+01  1.23755293E+01 -2.47510585E+01  0.00000000E+00
  1.23755293E+01  1.23755293E+01 -2.47510585E+01  0.00000000E+00  1.23755293E+01
  1.23755293E+01 -2.47510585E+01  0.00000000E+00  1.23755293E+01  1.23755293E+01
 -2.47510585E+01  0.00000000E+00  1.23755293E+01  1.23755293E+01 -2.47510585E+01
  0.00000000E+00  1.23755293E+01  1.23755293E+01 -2.47510585E+01  0.00000000E+00
  1.23755293E+01  1.23755293E+01 -2.47510585E+01  0.00000000E+00  1.23755293E+01
  1.23755293E+01 -2.47510585E+01  0.00000000E+00  1.23755293E+01  1.23755293E+01
 -2.47510585E+01  0.00000000E+00  1.23755293E+01  1.23755293E+01 -2.47510585E+01
  0.00000000E+00  1.23755293E+01  1.23755293E+01 -2.47510585E+01  0.00000000E+00
  1.23755293E+01  1.23755293E+01 -2.47510585E+01  0.00000000E+00  1.23755293E+01
  1.23755293E+01 -2.47510585E+01  0.00000000E+00  1.23755293E+01  1.23755293E+01
 -2.47510585E+01  0.00000000E+00  1.23755293E+01  1.23755293E+01 -2.47510585E+01
  0.00000000E+00  1.23755293E+01  1.23755293E+01 -2.47510585E+01  0.00000000E+00
  1.23755293E+01  1.23755293E+01 -2.47510585E+01  0.00000000E+00  1.23755293E+01
  1.23755293E+01 -2.47510585E+01  0.00000000E+00  1.23755293E+01  1.23755293E+01
 -2.47510585E+01  0.00000000E+00  1.23755293E+01  1.23755293E+01 -2.47510585E+01
  0.00000000E+00  1.23755293E+01  1.23755293E+01 -2.47510585E+01  0.00000000E+00
  1.23755293E+01  1.23755293E+01 -2.47510585E+01  0.00000000E+00  1.23755293E+01
  1.23755293E+01 -2.47510585E+01  0.00000000E+00  1.23755293E+01  1.23755293E+01
 -2.47510585E+01  0.00000000E+00  1.23755293E+01  1.23755293E+01 -2.47510585E+01
  0.00000000E+00  1.23755293E+01  1.23755293E+01 -2.47510585E+01  0.00000000E+00
  1.23755293E+01  1.23755293E+01 -2.47510585E+01  0.00000000E+00  1.23755293E+01
  1.23755293E+01 -2.47510585E+01  0.00000000E+00  1.23755293E+01  1.23755293E+01
 -2.47510585E+01  0.00000000E+00  1.23755293E+01  1.23755293E+01 -2.47510585E+01
  0.00000000E+00  1.23755293E+01  1.23755293E+01 -2.47510585E+01  0.00000000E+00
  1.23755293E+01  1.23755293E+01 -2.47510585E+01  0.00000000E+00  1.23755293E+01
  1.23755293E+01 -2.47510585E+01  0.00000000E+00  1.23755293E+01  1.23755293E+01
 -2.47510585E+01  0.00000000E+00  1.23755293E+01  1.23755293E+01 -2.47510585E+01
  0.00000000E+00  1.23755293E+01  1.23755293E+01 -2.47510585E+01  0.00000000E+00
  1.23755293E+01  1.23755293E+01 -2.47510585E+01  0.00000000E+00  1.23755293E+01
  1.23755293E+01 -2.47510585E+01  0.00000000E+00  1.23755293E+01  1.23755293E+01
 -2.47510585E+01  0.00000000E+00  1.23755293E+01  1.23755293E+01 -2.47510585E+01
  0.00000000E+00  1.23755293E+01  1.23755293E+01 -2.47510585E+01  0.00000000E+00
  1.23755293E+01  1.23755293E+01 -2.47510585E+01  0.00000000E+00  1.23755293E+01
  1.23755293E+01 -2.47510585E+01  0.00000000E+00  1.23755293E+01  1.23755293E+01
 -2.47510585E+01  0.00000000E+00  1.23755293E+01  1.23755293E+01 -2.47510585E+01
  0.00000000E+00  1.23755293E+01  1.23755293E+01 -2.47510585E+01  0.00000000E+00
  1.23755293E+01  1.23755293E+01 -2.47510585E+01  0.00000000E+00  1.23755293E+01
  1.23755293E+01 -2.47510585E+01  0.00000000E+00  1.23755293E+01  1.23755293E+01
 -2.47510585E+01  0.00000000E+00  1.23755293E+01  1.23755293E+01 -2.47510585E+01
  0.00000000E+00  1.23755293E+01  1.23755293E+01 -2.47510585E+01  0.00000000E+00
  1.23755293E+01  1.23755293E+01 -2.47510585E+01  0.00000000E+00  1.23755293E+01
  1.23755293E+01 -2.47510585E+01  0.00000000E+00  1.23755293E+01  1.23755293E+01
 -2.47510585E+01  0.00000000E+00  1.23755293E+01  1.23755293E+01 -2.47510585E+01
  0.00000000E+00  1.23755293E+01  1.23755293E+01 -2.47510585E+01  0.00000000E+00
  1.23755293E+01  1.23755293E+01 -2.47510585E+01  0.00000000E+00  1.23755293E+01
  1.23755293E+01 -2.47510585E+01  0.00000000E+00  1.23755293E+01  1.23755293E+01
 -2.47510585E+01  0.00000000E+00  1.23755293E+01  1.23755293E+01 -2.47510585E+01
  0.00000000E+00  1.23755293E+01  1.23755293E+01 -2.47510585E+01  0.00000000E+00
  1.23755293E+01  1.23755293E+01 -2.47510585E+01  0.00000000E+00  1.23755293E+01
  1.23755293E+01 -2.47510585E+01  0.00000000E+00  1.23755293E+01  1.23755293E+01
 -2.47510585E+01  0.00000000E+00  1.23755293E+01  1.23755293E+01 -2.47510585E+01
  0.00000000E+00  1.23755293E+01  1.23755293E+01 -2.47510585E+01  0.00000000E+00
  1.23755293E+01  1.23755293E+01 -2.47510585E+01  0.00000000E+00  1.23755293E+01
  1.23755293E+01 -2.47510585E+01  0.00000000E+00  1.23755293E+01  1.23755293E+01
 -2.47510585E+01  0.00000000E+00  1.23755293E+01  1.23755293E+01 -2.47510585E+01
  0.00000000E+00  1.23755293E+01  1.23755293E+01 -2.47510585E+01  0.00000000E+00
  1.23755293E+01  1.23755293E+01 -2.47510585E+01  0.00000000E+00  1.23755293E+01
  1.23755293E+01 -2.47510585E+01  0.00000000E+00  1.23755293E+01  1.23755293E+01
 -2.47510585E+01  0.00000000E+00  1.23755293E+01  1.23755293E+01 -2.47510585E+01
  0.00000000E+00  1.23755293E+01  1.23755293E+01 -2.47510585E+01  0.00000000E+00
  1.23755293E+01  1.23755293E+01 -2.47510585E+01  0.00000000E+00  1.23755293E+01
  1.23755293E+01 -2.47510585E+01  0.00000000E+00  1.23755293E+01  1.23755293E+01
 -2.47510585E+01  0.00000000E+00  1.23755293E+01  1.23755293E+01 -2.47510585E+01
  0.00000000E+00  1.23755293E+01  1.23755293E+01 -2.47510585E+01  0.00000000E+00
  1.23755293E+01  1.23755293E+01 -2.47510585E+01  0.00000000E+00  1.23755293E+01
  1.23755293E+01 -2.47510585E+01  0.00000000E+00  1.23755293E+01  1.23755293E+01
 -2.47510585E+01  0.00000000E+00  1.23755293E+01  1.23755293E+01 -2.47510585E+01
  0.00000000E+00  1.23755293E+01  1.23755293E+01 -2.47510585E+01  0.00000000E+00
  1.23755293E+01  1.23755293E+01 -2.47510585E+01  0.00000000E+00  1.23755293E+01
  1.23755293E+01 -2.47510585E+01  0.00000000E+00  1.23755293E+01  1.23755293E+01
 -2.47510585E+01  0.00000000E+00  1.23755293E+01  1.23755293E+01 -2.47510585E+01
  0.00000000E+00  1.23755293E+01  1.23755293E+01 -2.47510585E+01  0.00000000E+00
  1.23755293E+01  1.23755293E+01 -2.47510585E+01  0.00000000E+00  1.23755293E+01
  1.23755293E+01 -2.47510585E+01  0.00000000E+00  1.23755293E+01  1.23755293E+01
 -2.47510585E+01  0.00000000E+00  1.23755293E+01  1.23755293E+01 -2.47510585E+01
  0.00000000E+00  1.23755293E+01  1.23755293E+01 -2.47510585E+01  0.00000000E+00
  1.23755293E+01  1.23755293E+01 -2.47510585E+01  0.00000000E+00  1.23755293E+01
  1.23755293E+01 -2.47510585E+01  0.00000000E+00  1.23755293E+01  1.23755293E+01
 -2.47510585E+01  0.00000000E+00  1.23755293E+01  1.23755293E+01 -2.47510585E+01
  0.00000000E+00  1.23755293E+01  1.23755293E+01 -2.47510585E+01  0.00000000E+00
  1.23755293E+01  1.23755293E+01 -2.47510585E+01  0.00000000E+00  1.23755293E+01
  1.23755293E+01 -2.47510585E+01  0.00000000E+00  1.23755293E+01  1.23755293E+01
 -2.47510585E+01  0.00000000E+00  1.23755293E+01  1.23755293E+01 -2.47510585E+01
  0.00000000E+00  1.23755293E+01  1.23755293E+01 -2.47510585E+01  0.00000000E+00
  1.23755293E+01  1.23755293E+01 -2.47510585E+01  0.00000000E+00  1.23755293E+01
  1.23755293E+01 -2.47510585E+01  0.00000000E+00  1.23755293E+01  1.23755293E+01
 -2.47510585E+01  0.00000000E+00  1.23755293E+01  1.23755293E+01 -2.47510585E+01
  0.00000000E+00  1.23755293E+01  1.23755293E+01 -2.47510585E+01  0.00000000E+00
  1.23755293E+01  1.23755293E+01 -2.47510585E+01  0.00000000E+00  1.23755293E+01
  1.23755293E+01 -2.47510585E+01  0.00000000E+00  1.23755293E+01  1.23755293E+01
 -2.47510585E+01  0.00000000E+00  1.23755293E+01  1.23755293E+01 -2.47510585E+01
  0.00000000E+00  1.23755293E+01  1.23755293E+01 -2.47510585E+01  0.00000000E+00
  1.23755293E+01  1.23755293E+01 -2.47510585E+01  0.00000000E+00  1.23755293E+01
  1.23755293E+01 -2.47510585E+01  0.00000000E+00  1.23755293E+01  1.23755293E+01
 -2.47510585E+01  0.00000000E+00  1.23755293E+01  1.23755293E+01 -2.47510585E+01
  0.00000000E+00  1.23755293E+01  1.23755293E+01 -2.47510585E+01  0.00000000E+00
  1.23755293E+01  1.23755293E+01 -2.47510585E+01  0.00000000E+00  1.23755293E+01
  1.23755293E+01 -2.47510585E+01  0.00000000E+00  1.23755293E+01  1.23755293E+01
 -2.47510585E+01  0.00000000E+00  1.23755293E+01  1.23755293E+01 -2.47510585E+01
  0.00000000E+00  1.23755293E+01  1.23755293E+01 -2.47510585E+01  0.00000000E+00
  1.23755293E+01  1.23755293E+01 -2.47510585E+01  0.00000000E+00  1.23755293E+01
  1.23755293E+01 -2.47510585E+01  0.00000000E+00  1.23755293E+01  1.23755293E+01
 -2.47510585E+01  0.00000000E+00  1.23755293E+01  1.23755293E+01 -2.47510585E+01
  0.00000000E+00  1.23755293E+01  1.23755293E+01 -2.47510585E+01  0.00000000E+00
  1.23755293E+01  1.23755293E+01 -2.47510585E+01  0.00000000E+00  1.23755293E+01
  1.23755293E+01 -2.47510585E+01  0.00000000E+00  1.23755293E+01  1.23755293E+01
 -2.47510585E+01  0.00000000E+00  1.23755293E+01  1.23755293E+01 -2.47510585E+01
  0.00000000E+00  1.23755293E+01  1.23755293E+01 -2.47510585E+01  0.00000000E+00
  1.23755293E+01  1.23755293E+01 -2.47510585E+01  0.00000000E+00  1.23755293E+01
  1.23755293E+01 -2.47510585E+01  0.00000000E+00  1.23755293E+01  1.23755293E+01
 -2.47510585E+01  0.00000000E+00  1.23755293E+01  1.23755293E+01 -2.47510585E+01
  0.00000000E+00  1.23755293E+01  1.23755293E+01 -2.47510585E+01  0.00000000E+00
  1.23755293E+01  1.23755293E+01 -2.47510585E+01  0.00000000E+00  1.23755293E+01
  1.23755293E+01 -2.47510585E+01  0.00000000E+00  1.23755293E+01  1.23755293E+01
 -2.47510585E+01  0.00000000E+00  1.23755293E+01  1.23755293E+01 -2.47510585E+01
  0.00000000E+00  1.23755293E+01  1.23755293E+01 -2.47510585E+01  0.00000000E+00
  1.23755293E+01  1.23755293E+01 -2.47510585E+01  0.00000000E+00  1.23755293E+01
  1.23755293E+01 -2.47510585E+01  0.00000000E+00  1.23755293E+01  1.23755293E+01
 -2.47510585E+01  0.00000000E+00  1.23755293E+01  1.23755293E+01 -2.47510585E+01
  0.00000000E+00  1.23755293E+01  1.23755293E+01 -2.47510585E+01  0.00000000E+00
  1.23755293E+01  1.23755293E+01 -2.47510585E+01  0.00000000E+00  1.23755293E+01
  1.23755293E+01 -2.47510585E+01  0.00000000E+00  1.23755293E+01  1.23755293E+01
 -2.47510585E+01  0.00000000E+00  1.23755293E+01  1.23755293E+01 -2.47510585E+01
  0.00000000E+00  1.23755293E+01  1.23755293E+01 -2.47510585E+01  0.00000000E+00
  1.23755293E+01  1.23755293E+01 -2.47510585E+01  0.00000000E+00  1.23755293E+01
  1.23755293E+01 -2.47510585E+01  0.00000000E+00  1.23755293E+01  1.23755293E+01
 -2.47510585E+01  0.00000000E+00  1.23755293E+01  1.23755293E+01 -2.47510585E+01
  0.00000000E+00  1.23755293E+01  1.23755293E+01 -2.47510585E+01  0.00000000E+00
  1.23755293E+01  1.23755293E+01 -2.47510585E+01  0.00000000E+00  1.23755293E+01
  1.23755293E+01 -2.47510585E+01  0.00000000E+00  1.23755293E+01  1.23755293E+01
 -2.47510585E+01  0.00000000E+00  1.23755293E+01  1.23755293E+01 -2.47510585E+01
  0.00000000E+00  1.23755293E+01  1.23755293E+01 -2.47510585E+01  0.00000000E+00
  1.23755293E+01  1.23755293E+01 -2.47510585E+01  0.00000000E+00  1.23755293E+01
  1.23755293E+01 -2.47510585E+01  0.00000000E+00  1.23755293E+01  1.23755293E+01
 -2.47510585E+01  0.00000000E+00  1.23755293E+01  1.23755293E+01 -2.47510585E+01
  0.00000000E+00  1.23755293E+01  1.23755293E+01 -2.47510585E+01  0.00000000E+00
  1.23755293E+01  1.23755293E+01 -2.47510585E+01  0.00000000E+00  1.23755293E+01
  1.23755293E+01 -2.47510585E+01  0.00000000E+00  1.23755293E+01  1.23755293E+01
 -2.47510585E+01  0.00000000E+00  1.23755293E+01  1.23755293E+01 -2.47510585E+01
  0.00000000E+00  1.23755293E+01  1.23755293E+01 -2.47510585E+01  0.00000000E+00
  1.23755293E+01  1.23755293E+01 -2.47510585E+01  0.00000000E+00  1.23755293E+01
  1.23755293E+01 -2.47510585E+01  0.00000000E+00  1.23755293E+01  1.23755293E+01
 -2.47510585E+01  0.00000000E+00  1.23755293E+01  1.23755293E+01 -2.47510585E+01
  0.00000000E+00  1.23755293E+01  1.23755293E+01 -2.47510585E+01  0.00000000E+00
  1.23755293E+01  1.23755293E+01 -2.47510585E+01  0.00000000E+00  1.23755293E+01
  1.23755293E+01 -2.47510585E+01  0.00000000E+00  1.23755293E+01  1.23755293E+01
 -2.47510585E+01  0.00000000E+00  1.23755293E+01  1.23755293E+01 -2.47510585E+01
  0.00000000E+00  1.23755293E+01  1.23755293E+01 -2.47510585E+01  0.00000000E+00
  1.23755293E+01  1.23755293E+01 -2.47510585E+01  0.00000000E+00  1.23755293E+01
  1.23755293E+01 -2.47510585E+01  0.00000000E+00  1.23755293E+01  1.23755293E+01
 -2.47510585E+01  0.00000000E+00  1.23755293E+01  1.23755293E+01 -2.47510585E+01
  0.00000000E+00  1.23755293E+01  1.23755293E+01 -2.47510585E+01  0.00000000E+00
  1.23755293E+01  1.23755293E+01 -2.47510585E+01  0.00000000E+00  1.23755293E+01
  1.23755293E+01 -2.47510585E+01  0.00000000E+00  1.23755293E+01  1.23755293E+01
 -2.47510585E+01  0.00000000E+00  1.23755293E+01  1.23755293E+01 -2.47510585E+01
  0.00000000E+00  1.23755293E+01  1.23755293E+01 -2.47510585E+01  0.00000000E+00
  1.23755293E+01  1.23755293E+01 -2.47510585E+01  0.00000000E+00  1.23755293E+01
  1.23755293E+01 -2.47510585E+01  0.00000000E+00  1.23755293E+01  1.23755293E+01
 -2.47510585E+01  0.00000000E+00  1.23755293E+01  1.23755293E+01 -2.47510585E+01
  0.00000000E+00  1.23755293E+01  1.23755293E+01 -2.47510585E+01  0.00000000E+00
  1.23755293E+01  1.23755293E+01 -2.47510585E+01  0.00000000E+00  1.23755293E+01
  1.23755293E+01 -2.47510585E+01  0.00000000E+00  1.23755293E+01  1.23755293E+01
 -2.47510585E+01  0.00000000E+00  1.23755293E+01  1.23755293E+01 -2.47510585E+01
  0.00000000E+00  1.23755293E+01  1.23755293E+01 -2.47510585E+01  0.00000000E+00
  1.23755293E+01  1.23755293E+01 -2.47510585E+01  0.00000000E+00  1.23755293E+01
  1.23755293E+01 -2.47510585E+01  0.00000000E+00  1.23755293E+01  1.23755293E+01
 -2.47510585E+01  0.00000000E+00  1.23755293E+01  1.23755293E+01 -2.47510585E+01
  0.00000000E+00  1.23755293E+01  1.23755293E+01 -2.47510585E+01  0.00000000E+00
  1.23755293E+01  1.23755293E+01 -2.47510585E+01  0.00000000E+00  1.23755293E+01
  1.23755293E+01 -2.47510585E+01  0.00000000E+00  1.23755293E+01  1.23755293E+01
 -2.47510585E+01  0.00000000E+00  1.23755293E+01  1.23755293E+01 -2.47510585E+01
  0.00000000E+00  1.23755293E+01  1.23755293E+01 -2.47510585E+01  0.00000000E+00
  1.23755293E+01  1.23755293E+01 -2.47510585E+01  0.00000000E+00  1.23755293E+01
  1.23755293E+01 -2.47510585E+01  0.00000000E+00  1.23755293E+01  1.23755293E+01
 -2.47510585E+01  0.00000000E+00  1.23755293E+01  1.23755293E+01 -2.47510585E+01
  0.00000000E+00  1.23755293E+01  1.23755293E+01 -2.47510585E+01  0.00000000E+00
  1.23755293E+01  1.23755293E+01 -2.47510585E+01  0.00000000E+00  1.23755293E+01
  1.23755293E+01 -2.47510585E+01  0.00000000E+00  1.23755293E+01  1.23755293E+01
 -2.47510585E+01  0.00000000E+00  1.23755293E+01  1.23755293E+01 -2.47510585E+01
  0.00000000E+00  1.23755293E+01  1.23755293E+01 -2.47510585E+01  0.00000000E+00
  1.23755293E+01  1.23755293E+01 -2.47510585E+01  0.00000000E+00  1.23755293E+01
  1.23755293E+01 -2.47510585E+01  0.00000000E+00  1.23755293E+01  1.23755293E+01
 -2.47510585E+01  0.00000000E+00  1.23755293E+01  1.23755293E+01 -2.47510585E+01
  0.00000000E+00  1.23755293E+01  1.23755293E+01 -2.47510585E+01  0.00000000E+00
  1.23755293E+01  1.23755293E+01 -2.47510585E+01  0.00000000E+00  1.23755293E+01
  1.23755293E+01 -2.47510585E+01  0.00000000E+00  1.23755293E+01  1.23755293E+01
 -2.47510585E+01  0.00000000E+00  1.23755293E+01  1.23755293E+01 -2.47510585E+01
  0.00000000E+00  1.23755293E+01  1.23755293E+01 -2.47510585E+01  0.00000000E+00
  1.23755293E+01  1.23755293E+01 -2.47510585E+01  0.00000000E+00  1.23755293E+01
  1.23755293E+01 -2.47510585E+01  0.00000000E+00  1.23755293E+01  1.23755293E+01
 -2.47510585E+01  0.00000000E+00  1.23755293E+01  1.23755293E+01 -2.47510585E+01
  0.00000000E+00  1.23755293E+01  1.23755293E+01 -2.47510585E+01  0.00000000E+00
  1.23755293E+01  1.23755293E+01 -2.47510585E+01  0.00000000E+00  1.23755293E+01
  1.23755293E+01 -2.47510585E+01  0.00000000E+00  1.23755293E+01  1.23755293E+01
 -2.47510585E+01  0.00000000E+00  1.23755293E+01  1.23755293E+01 -2.47510585E+01
  0.00000000E+00  1.23755293E+01  1.23755293E+01 -2.47510585E+01  0.00000000E+00
  1.23755293E+01  1.23755293E+01 -2.47510585E+01  0.00000000E+00  1.23755293E+01
  1.23755293E+01 -2.47510585E+01  0.00000000E+00  1.23755293E+01  1.23755293E+01
 -2.47510585E+01  0.00000000E+00  1.23755293E+01  1.23755293E+01 -2.47510585E+01
  0.00000000E+00  1.23755293E+01  1.23755293E+01 -2.47510585E+01  0.00000000E+00
  1.23755293E+01  1.23755293E+01 -2.47510585E+01  0.00000000E+00  1.23755293E+01
  1.23755293E+01 -2.47510585E+01  0.00000000E+00  1.23755293E+01  1.23755293E+01
 -2.47510585E+01  0.00000000E+00  1.23755293E+01  1.23755293E+01 -2.47510585E+01
  0.00000000E+00  1.23755293E+01  1.23755293E+01 -2.47510585E+01  0.00000000E+00
  1.23755293E+01  1.23755293E+01 -2.47510585E+01  0.00000000E+00  1.23755293E+01
  1.23755293E+01 -2.47510585E+01  0.00000000E+00  1.23755293E+01  1.23755293E+01
 -2.47510585E+01  0.00000000E+00  1.23755293E+01  1.23755293E+01 -2.47510585E+01
  0.00000000E+00  1.23755293E+01  1.23755293E+01 -2.47510585E+01  0.00000000E+00
  1.23755293E+01  1.23755293E+01 -2.47510585E+01  0.00000000E+00  1.23755293E+01
  1.23755293E+01 -2.47510585E+01  0.00000000E+00  1.23755293E+01  1.23755293E+01
 -2.47510585E+01  0.00000000E+00  1.23755293E+01  1.23755293E+01 -2.47510585E+01
  0.00000000E+00  1.23755293E+01  1.23755293E+01 -2.47510585E+01  0.00000000E+00
  1.23755293E+01  1.23755293E+01 -2.47510585E+01  0.00000000E+00  1.23755293E+01
  1.23755293E+01 -2.47510585E+01  0.00000000E+00  1.23755293E+01  1.23755293E+01
 -2.47510585E+01  0.00000000E+00  1.23755293E+01  1.23755293E+01 -2.47510585E+01
  0.00000000E+00  1.23755293E+01  1.23755293E+01 -2.47510585E+01  0.00000000E+00
  1.23755293E+01  1.23755293E+01 -2.47510585E+01  0.00000000E+00  1.23755293E+01
  1.23755293E+01 -2.47510585E+01  0.00000000E+00  1.23755293E+01  1.23755293E+01
 -2.47510585E+01  0.00000000E+00  1.23755293E+01  1.23755293E+01 -2.47510585E+01
  0.00000000E+00  1.23755293E+01  1.23755293E+01 -2.47510585E+01  0.00000000E+00
  1.23755293E+01  1.23755293E+01 -2.47510585E+01  0.00000000E+00  1.23755293E+01
  1.23755293E+01 -2.47510585E+01  0.00000000E+00  1.23755293E+01  1.23755293E+01
 -2.47510585E+01  0.00000000E+00  1.23755293E+01  1.23755293E+01 -2.47510585E+01
  0.00000000E+00  1.23755293E+01  1.23755293E+01 -2.47510585E+01  0.00000000E+00
  1.23755293E+01  1.23755293E+01 -2.47510585E+01  0.00000000E+00  1.23755293E+01
  1.23755293E+01 -2.47510585E+01  0.00000000E+00  1.23755293E+01  1.23755293E+01
 -2.47510585E+01  0.00000000E+00  1.23755293E+01  1.23755293E+01 -2.47510585E+01
  0.00000000E+00  1.23755293E+01  1.23755293E+01 -2.47510585E+01  0.00000000E+00
  1.23755293E+01  1.23755293E+01 -2.47510585E+01  0.00000000E+00  1.23755293E+01
  1.23755293E+01 -2.47510585E+01  0.00000000E+00  1.23755293E+01  1.23755293E+01
 -2.47510585E+01  0.00000000E+00  1.23755293E+01  1.23755293E+01 -2.47510585E+01
  0.00000000E+00  1.23755293E+01  1.23755293E+01 -2.47510585E+01  0.00000000E+00
  1.23755293E+01  1.23755293E+01 -2.47510585E+01  0.00000000E+00  1.23755293E+01
  1.23755293E+01 -2.47510585E+01  0.00000000E+00  1.23755293E+01  1.23755293E+01
 -2.47510585E+01  0.00000000E+00  1.23755293E+01  1.23755293E+01 -2.47510585E+01
  0.00000000E+00  1.23755293E+01  1.23755293E+01 -2.47510585E+01  0.00000000E+00
  1.23755293E+01  1.23755293E+01 -2.47510585E+01  0.00000000E+00  1.23755293E+01
  1.23755293E+01 -2.47510585E+01  0.00000000E+00  1.23755293E+01  1.23755293E+01
 -2.47510585E+01  0.00000000E+00  1.23755293E+01  1.23755293E+01 -2.47510585E+01
  0.00000000E+00  1.23755293E+01  1.23755293E+01 -2.47510585E+01  0.00000000E+00
  1.23755293E+01  1.23755293E+01 -2.47510585E+01  0.00000000E+00  1.23755293E+01
  1.23755293E+01 -2.47510585E+01  0.00000000E+00  1.23755293E+01  1.23755293E+01
 -2.47510585E+01  0.00000000E+00  1.23755293E+01  1.23755293E+01 -2.47510585E+01
  0.00000000E+00  1.23755293E+01  1.23755293E+01 -2.47510585E+01  0.00000000E+00
  1.23755293E+01  1.23755293E+01 -2.47510585E+01  0.00000000E+00  1.23755293E+01
  1.23755293E+01 -2.47510585E+01  0.00000000E+00  1.23755293E+01  1.23755293E+01
 -2.47510585E+01  0.00000000E+00  1.23755293E+01  1.23755293E+01 -2.47510585E+01
  0.00000000E+00  1.23755293E+01  1.23755293E+01 -2.47510585E+01  0.00000000E+00
  1.23755293E+01  1.23755293E+01 -2.47510585E+01  0.00000000E+00  1.23755293E+01
  1.23755293E+01 -2.47510585E+01  0.00000000E+00  1.23755293E+01  1.23755293E+01
 -2.47510585E+01  0.00000000E+00  1.23755293E+01  1.23755293E+01 -2.47510585E+01
  0.00000000E+00  1.23755293E+01  1.23755293E+01 -2.47510585E+01  0.00000000E+00
  1.23755293E+01  1.23755293E+01 -2.47510585E+01  0.00000000E+00  1.23755293E+01
  1.23755293E+01 -2.47510585E+01  0.00000000E+00  1.23755293E+01  1.23755293E+01
 -2.47510585E+01  0.00000000E+00  1.23755293E+01  1.23755293E+01 -2.47510585E+01
  0.00000000E+00  1.23755293E+01  1.23755293E+01 -2.47510585E+01  0.00000000E+00
  1.23755293E+01  1.23755293E+01 -2.47510585E+01  0.00000000E+00  1.23755293E+01
  1.23755293E+01 -2.47510585E+01  0.00000000E+00  1.23755293E+01  1.23755293E+01
 -2.47510585E+01  0.00000000E+00  1.23755293E+01  1.23755293E+01 -2.47510585E+01
  0.00000000E+00  1.23755293E+01  1.23755293E+01 -2.47510585E+01  0.00000000E+00
  1.23755293E+01  1.23755293E+01 -2.47510585E+01  0.00000000E+00  1.23755293E+01
  1.23755293E+01 -2.47510585E+01  0.00000000E+00  1.23755293E+01  1.23755293E+01
 -2.47510585E+01  0.00000000E+00  1.23755293E+01  1.23755293E+01 -2.47510585E+01
  0.00000000E+00  1.23755293E+01  1.23755293E+01 -2.47510585E+01  0.00000000E+00
  1.23755293E+01  1.23755293E+01 -2.47510585E+01  0.00000000E+00  1.23755293E+01
  1.23755293E+01 -2.47510585E+01  0.00000000E+00  1.23755293E+01  1.23755293E+01
 -2.47510585E+01  0.00000000E+00  1.23755293E+01  1.23755293E+01 -2.47510585E+01
  0.00000000E+00  1.23755293E+01  1.23755293E+01 -2.47510585E+01  0.00000000E+00
  1.23755293E+01  1.23755293E+01 -2.47510585E+01  0.00000000E+00  1.23755293E+01
  1.23755293E+01 -2.47510585E+01  0.00000000E+00  1.23755293E+01  1.23755293E+01
 -2.47510585E+01  0.00000000E+00  1.23755293E+01  1.23755293E+01 -2.47510585E+01
  0.00000000E+00  1.23755293E+01  1.23755293E+01 -2.47510585E+01  0.00000000E+00
  1.23755293E+01  1.23755293E+01 -2.47510585E+01  0.00000000E+00  1.23755293E+01
  1.23755293E+01 -2.47510585E+01  0.00000000E+00  1.23755293E+01  1.23755293E+01
 -2.47510585E+01  0.00000000E+00  1.23755293E+01  1.23755293E+01 -2.47510585E+01
  0.00000000E+00  1.23755293E+01  1.23755293E+01 -2.47510585E+01  0.00000000E+00
  1.23755293E+01  1.23755293E+01 -2.47510585E+01  0.00000000E+00  1.23755293E+01
  1.23755293E+01 -2.47510585E+01  0.00000000E+00  1.23755293E+01  1.23755293E+01
 -2.47510585E+01  0.00000000E+00  1.23755293E+01  1.23755293E+01 -2.47510585E+01
  0.00000000E+00  1.23755293E+01  1.23755293E+01 -2.47510585E+01  0.00000000E+00
  1.23755293E+01  1.23755293E+01 -2.47510585E+01  0.00000000E+00  1.23755293E+01
  1.23755293E+01 -2.47510585E+01  0.00000000E+00  1.23755293E+01  1.23755293E+01
 -2.47510585E+01  0.00000000E+00  1.23755293E+01  1.23755293E+01 -2.47510585E+01
  0.00000000E+00  1.23755293E+01  1.23755293E+01 -2.47510585E+01  0.00000000E+00
  1.23755293E+01  1.23755293E+01 -2.47510585E+01  0.00000000E+00  1.23755293E+01
  1.23755293E+01 -2.47510585E+01  0.00000000E+00  1.23755293E+01  1.23755293E+01
 -2.47510585E+01  0.00000000E+00  1.23755293E+01  1.23755293E+01 -2.47510585E+01
  0.00000000E+00  1.23755293E+01  1.23755293E+01 -2.47510585E+01  0.00000000E+00
  1.23755293E+01  1.23755293E+01 -2.47510585E+01  0.00000000E+00  1.23755293E+01
  1.23755293E+01 -2.47510585E+01  0.00000000E+00  1.23755293E+01  1.23755293E+01
 -2.47510585E+01  0.00000000E+00  1.23755293E+01  1.23755293E+01 -2.47510585E+01
  0.00000000E+00  1.23755293E+01  1.23755293E+01 -2.47510585E+01  0.00000000E+00
  1.23755293E+01  1.23755293E+01 -2.47510585E+01  0.00000000E+00  1.23755293E+01
  1.23755293E+01 -2.47510585E+01  0.00000000E+00  1.23755293E+01  1.23755293E+01
 -2.47510585E+01  0.00000000E+00  1.23755293E+01  1.23755293E+01 -2.47510585E+01
  0.00000000E+00  1.23755293E+01  1.23755293E+01 -2.47510585E+01  0.00000000E+00
  1.23755293E+01  1.23755293E+01 -2.47510585E+01  0.00000000E+00  1.23755293E+01
  1.23755293E+01 -2.47510585E+01  0.00000000E+00  1.23755293E+01  1.23755293E+01
 -2.47510585E+01  0.00000000E+00  1.23755293E+01  1.23755293E+01 -2.47510585E+01
  0.00000000E+00  1.23755293E+01  1.23755293E+01 -2.47510585E+01  0.00000000E+00
  1.23755293E+01  1.23755293E+01 -2.47510585E+01  0.00000000E+00  1.23755293E+01
  1.23755293E+01 -2.47510585E+01  0.00000000E+00  1.23755293E+01  1.23755293E+01
 -2.47510585E+01  0.00000000E+00  1.23755293E+01  1.23755293E+01 -2.47510585E+01
  0.00000000E+00  1.23755293E+01  1.23755293E+01 -2.47510585E+01  0.00000000E+00
  1.23755293E+01  1.23755293E+01 -2.47510585E+01  0.00000000E+00  1.23755293E+01
  1.23755293E+01 -2.47510585E+01  0.00000000E+00  1.23755293E+01  1.23755293E+01
 -2.47510585E+01  0.00000000E+00  1.23755293E+01  1.23755293E+01 -2.47510585E+01
  0.00000000E+00  1.23755293E+01  1.23755293E+01 -2.47510585E+01  0.00000000E+00
  1.23755293E+01  1.23755293E+01 -2.47510585E+01  0.00000000E+00  1.23755293E+01
  1.23755293E+01 -2.47510585E+01  0.00000000E+00  1.23755293E+01  1.23755293E+01
 -2.47510585E+01  0.00000000E+00  1.23755293E+01  1.23755293E+01 -2.47510585E+01
  0.00000000E+00  1.23755293E+01  1.23755293E+01 -2.47510585E+01  0.00000000E+00
  1.23755293E+01  1.23755293E+01 -2.47510585E+01  0.00000000E+00  1.23755293E+01
  1.23755293E+01 -2.47510585E+01  0.00000000E+00  1.23755293E+01  1.23755293E+01
 -2.47510585E+01  0.00000000E+00  1.23755293E+01  1.23755293E+01 -2.47510585E+01
  0.00000000E+00  1.23755293E+01  1.23755293E+01 -2.47510585E+01  0.00000000E+00
  1.23755293E+01  1.23755293E+01 -2.47510585E+01  0.00000000E+00  1.23755293E+01
  1.23755293E+01 -2.47510585E+01  0.00000000E+00  1.23755293E+01  1.23755293E+01
 -2.47510585E+01  0.00000000E+00  1.23755293E+01  1.23755293E+01 -2.47510585E+01
  0.00000000E+00  1.23755293E+01  1.23755293E+01 -2.47510585E+01  0.00000000E+00
  1.23755293E+01  1.23755293E+01 -2.47510585E+01  0.00000000E+00  1.23755293E+01
  1.23755293E+01 -2.47510585E+01  0.00000000E+00  1.23755293E+01  1.23755293E+01
 -2.47510585E+01  0.00000000E+00  1.23755293E+01  1.23755293E+01 -2.47510585E+01
  0.00000000E+00  1.23755293E+01  1.23755293E+01 -2.47510585E+01  0.00000000E+00
  1.23755293E+01  1.23755293E+01 -2.47510585E+01  0.00000000E+00  1.23755293E+01
  1.23755293E+01 -2.47510585E+01  0.00000000E+00  1.23755293E+01  1.23755293E+01
 -2.47510585E+01  0.00000000E+00  1.23755293E+01  1.23755293E+01 -2.47510585E+01
  0.00000000E+00  1.23755293E+01  1.23755293E+01 -2.47510585E+01  0.00000000E+00
  1.23755293E+01  1.23755293E+01 -2.47510585E+01  0.00000000E+00  1.23755293E+01
  1.23755293E+01 -2.47510585E+01  0.00000000E+00  1.23755293E+01  1.23755293E+01
 -2.47510585E+01  0.00000000E+00  1.23755293E+01  1.23755293E+01 -2.47510585E+01
  0.00000000E+00  1.23755293E+01  1.23755293E+01 -2.47510585E+01  0.00000000E+00
  1.23755293E+01  1.23755293E+01 -2.47510585E+01  0.00000000E+00  1.23755293E+01
  1.23755293E+01 -2.47510585E+01  0.00000000E+00  1.23755293E+01  1.23755293E+01
 -2.47510585E+01  0.00000000E+00  1.23755293E+01  1.23755293E+01 -2.47510585E+01
  0.00000000E+00  1.23755293E+01  1.23755293E+01 -2.47510585E+01  0.00000000E+00
  1.23755293E+01  1.23755293E+01 -2.47510585E+01  0.00000000E+00  1.23755293E+01
  1.23755293E+01 -2.47510585E+01  0.00000000E+00  1.23755293E+01  1.23755293E+01
 -2.47510585E+01  0.00000000E+00  1.23755293E+01  1.23755293E+01 -2.47510585E+01
  0.00000000E+00  1.23755293E+01  1.23755293E+01 -2.47510585E+01  0.00000000E+00
  1.23755293E+01  1.23755293E+01 -2.47510585E+01  0.00000000E+00  1.23755293E+01
  1.23755293E+01 -2.47510585E+01  0.00000000E+00  1.23755293E+01  1.23755293E+01
 -2.47510585E+01  0.00000000E+00  1.23755293E+01  1.23755293E+01 -2.47510585E+01
  0.00000000E+00  1.23755293E+01  1.23755293E+01 -2.47510585E+01  0.00000000E+00
  1.23755293E+01  1.23755293E+01 -2.47510585E+01  0.00000000E+00  1.23755293E+01
  1.23755293E+01 -2.47510585E+01  0.00000000E+00  1.23755293E+01  1.23755293E+01
 -2.47510585E+01  0.00000000E+00  1.23755293E+01  1.23755293E+01 -2.47510585E+01
  0.00000000E+00  1.23755293E+01  1.23755293E+01 -2.47510585E+01  0.00000000E+00
  1.23755293E+01  1.23755293E+01 -2.47510585E+01  0.00000000E+00  1.23755293E+01
  1.23755293E+01 -2.47510585E+01  0.00000000E+00  1.23755293E+01  1.23755293E+01
 -2.47510585E+01  0.00000000E+00  1.23755293E+01  1.23755293E+01 -2.47510585E+01
  0.00000000E+00  1.23755293E+01  1.23755293E+01 -2.47510585E+01  0.00000000E+00
  1.23755293E+01  1.23755293E+01 -2.47510585E+01  0.00000000E+00  1.23755293E+01
  1.23755293E+01 -2.47510585E+01  0.00000000E+00  1.23755293E+01  1.23755293E+01
 -2.47510585E+01  0.00000000E+00  1.23755293E+01  1.23755293E+01 -2.47510585E+01
  0.00000000E+00  1.23755293E+01  1.23755293E+01 -2.47510585E+01  0.00000000E+00
  1.23755293E+01  1.23755293E+01 -2.47510585E+01  0.00000000E+00  1.23755293E+01
  1.23755293E+01 -2.47510585E+01  0.00000000E+00  1.23755293E+01  1.23755293E+01
 -2.47510585E+01  0.00000000E+00  1.23755293E+01  1.23755293E+01 -2.47510585E+01
  0.00000000E+00  1.23755293E+01  1.23755293E+01 -2.47510585E+01  0.00000000E+00
  1.23755293E+01  1.23755293E+01 -2.47510585E+01  0.00000000E+00  1.23755293E+01
  1.23755293E+01 -2.47510585E+01  0.00000000E+00  1.23755293E+01  1.23755293E+01
 -2.47510585E+01  0.00000000E+00  1.23755293E+01  1.23755293E+01 -2.47510585E+01
  0.00000000E+00  1.23755293E+01  1.23755293E+01 -2.47510585E+01  0.00000000E+00
  1.23755293E+01  1.23755293E+01 -2.47510585E+01  0.00000000E+00  1.23755293E+01
  1.23755293E+01 -2.47510585E+01  0.00000000E+00  1.23755293E+01  1.23755293E+01
 -2.47510585E+01  0.00000000E+00  1.23755293E+01  1.23755293E+01 -2.47510585E+01
  0.00000000E+00  1.23755293E+01  1.23755293E+01 -2.47510585E+01  0.00000000E+00
  1.23755293E+01  1.23755293E+01 -2.47510585E+01  0.00000000E+00  1.23755293E+01
  1.23755293E+01 -2.47510585E+01  0.00000000E+00  1.23755293E+01  1.23755293E+01
 -2.47510585E+01  0.00000000E+00  1.23755293E+01  1.23755293E+01 -2.47510585E+01
  0.00000000E+00  1.23755293E+01  1.23755293E+01 -2.47510585E+01  0.00000000E+00
  1.23755293E+01  1.23755293E+01 -2.47510585E+01  0.00000000E+00  1.23755293E+01
  1.23755293E+01 -2.47510585E+01  0.00000000E+00  1.23755293E+01  1.23755293E+01
 -2.47510585E+01  0.00000000E+00  1.23755293E+01  1.23755293E+01 -2.47510585E+01
  0.00000000E+00  1.23755293E+01  1.23755293E+01 -2.47510585E+01  0.00000000E+00
  1.23755293E+01  1.23755293E+01 -2.47510585E+01  0.00000000E+00  1.23755293E+01
  1.23755293E+01 -2.47510585E+01  0.00000000E+00  1.23755293E+01  1.23755293E+01
 -2.47510585E+01  0.00000000E+00  1.23755293E+01  1.23755293E+01 -2.47510585E+01
  0.00000000E+00  1.23755293E+01  1.23755293E+01 -2.47510585E+01  0.00000000E+00
  1.23755293E+01  1.23755293E+01 -2.47510585E+01  0.00000000E+00  1.23755293E+01
  1.23755293E+01 -2.47510585E+01  0.00000000E+00  1.23755293E+01  1.23755293E+01
 -2.47510585E+01  0.00000000E+00  1.23755293E+01  1.23755293E+01 -2.47510585E+01
  0.00000000E+00  1.23755293E+01  1.23755293E+01 -2.47510585E+01  0.00000000E+00
  1.23755293E+01  1.23755293E+01 -2.47510585E+01  0.00000000E+00  1.23755293E+01
  1.23755293E+01 -2.47510585E+01  0.00000000E+00  1.23755293E+01  1.23755293E+01
 -2.47510585E+01  0.00000000E+00  1.23755293E+01  1.23755293E+01 -2.47510585E+01
  0.00000000E+00  1.23755293E+01  1.23755293E+01 -2.47510585E+01  0.00000000E+00
  1.23755293E+01  1.23755293E+01 -2.47510585E+01  0.00000000E+00  1.23755293E+01
  1.23755293E+01 -2.47510585E+01  0.00000000E+00  1.23755293E+01  1.23755293E+01
 -2.47510585E+01  0.00000000E+00  1.23755293E+01  1.23755293E+01 -2.47510585E+01
  0.00000000E+00  1.23755293E+01  1.23755293E+01 -2.47510585E+01  0.00000000E+00
  1.23755293E+01  1.23755293E+01 -2.47510585E+01  0.00000000E+00  1.23755293E+01
  1.23755293E+01 -2.47510585E+01  0.00000000E+00  1.23755293E+01  1.23755293E+01
 -2.47510585E+01  0.00000000E+00  1.23755293E+01  1.23755293E+01 -2.47510585E+01
  0.00000000E+00  1.23755293E+01  1.23755293E+01 -2.47510585E+01  0.00000000E+00
  1.23755293E+01  1.23755293E+01 -2.47510585E+01  0.00000000E+00  1.23755293E+01
  1.23755293E+01 -2.47510585E+01  0.00000000E+00  1.23755293E+01  1.23755293E+01
 -2.47510585E+01  0.00000000E+00  1.23755293E+01  1.23755293E+01 -2.47510585E+01
  0.00000000E+00  1.23755293E+01  1.23755293E+01 -2.47510585E+01  0.00000000E+00
  1.23755293E+01  1.23755293E+01 -2.47510585E+01  0.00000000E+00  1.23755293E+01
  1.23755293E+01 -2.47510585E+01  0.00000000E+00  1.23755293E+01  1.23755293E+01
 -2.47510585E+01  0.00000000E+00  1.23755293E+01  1.23755293E+01 -2.47510585E+01
  0.00000000E+00  1.23755293E+01  1.23755293E+01 -2.47510585E+01  0.00000000E+00
  1.23755293E+01  1.23755293E+01 -2.47510585E+01  0.00000000E+00  1.23755293E+01
  1.23755293E+01 -2.47510585E+01  0.00000000E+00  1.23755293E+01  1.23755293E+01
 -2.47510585E+01  0.00000000E+00  1.23755293E+01  1.23755293E+01 -2.47510585E+01
  0.00000000E+00  1.23755293E+01  1.23755293E+01 -2.47510585E+01  0.00000000E+00
  1.23755293E+01  1.23755293E+01 -2.47510585E+01  0.00000000E+00  1.23755293E+01
  1.23755293E+01 -2.47510585E+01  0.00000000E+00  1.23755293E+01  1.23755293E+01
 -2.47510585E+01  0.00000000E+00  1.23755293E+01  1.23755293E+01 -2.47510585E+01
  0.00000000E+00  1.23755293E+01  1.23755293E+01 -2.47510585E+01  0.00000000E+00
  1.23755293E+01  1.23755293E+01 -2.47510585E+01  0.00000000E+00  1.23755293E+01
  1.23755293E+01 -2.47510585E+01  0.00000000E+00  1.23755293E+01  1.23755293E+01
 -2.47510585E+01  0.00000000E+00  1.23755293E+01  1.23755293E+01 -2.47510585E+01
  0.00000000E+00  1.23755293E+01  1.23755293E+01 -2.47510585E+01  0.00000000E+00
  1.23755293E+01  1.23755293E+01 -2.47510585E+01  0.00000000E+00  1.23755293E+01
  1.23755293E+01 -2.47510585E+01  0.00000000E+00  1.23755293E+01  1.23755293E+01
 -2.47510585E+01  0.00000000E+00  1.23755293E+01  1.23755293E+01 -2.47510585E+01
  0.00000000E+00  1.23755293E+01  1.23755293E+01 -2.47510585E+01  0.00000000E+00
  1.23755293E+01  1.23755293E+01 -2.47510585E+01  0.00000000E+00  1.23755293E+01
  1.23755293E+01 -2.47510585E+01  0.00000000E+00  1.23755293E+01  1.23755293E+01
 -2.47510585E+01  0.00000000E+00  1.23755293E+01  1.23755293E+01 -2.47510585E+01
  0.00000000E+00  1.23755293E+01  1.23755293E+01 -2.47510585E+01  0.00000000E+00
  1.23755293E+01  1.23755293E+01 -2.47510585E+01  0.00000000E+00  1.23755293E+01
  1.23755293E+01 -2.47510585E+01  0.00000000E+00  1.23755293E+01  1.23755293E+01
 -2.47510585E+01  0.00000000E+00  1.23755293E+01  1.23755293E+01 -2.47510585E+01
  0.00000000E+00  1.23755293E+01  1.23755293E+01 -2.47510585E+01  0.00000000E+00
  1.23755293E+01  1.23755293E+01 -2.47510585E+01  0.00000000E+00  1.23755293E+01
  1.23755293E+01 -2.47510585E+01  0.00000000E+00  1.23755293E+01  1.23755293E+01
 -2.47510585E+01  0.00000000E+00  1.23755293E+01  1.23755293E+01 -2.47510585E+01
  0.00000000E+00  1.23755293E+01  1.23755293E+01 -2.47510585E+01  0.00000000E+00
  1.23755293E+01  1.23755293E+01 -2.47510585E+01  0.00000000E+00  1.23755293E+01
  1.23755293E+01 -2.47510585E+01  0.00000000E+00  1.23755293E+01  1.23755293E+01
 -2.47510585E+01  0.00000000E+00  1.23755293E+01  1.23755293E+01 -2.47510585E+01
  0.00000000E+00  1.23755293E+01  1.23755293E+01 -2.47510585E+01  0.00000000E+00
  1.23755293E+01  1.23755293E+01 -2.47510585E+01  0.00000000E+00  1.23755293E+01
  1.23755293E+01 -2.47510585E+01  0.00000000E+00  1.23755293E+01  1.23755293E+01
 -2.47510585E+01  0.00000000E+00  1.23755293E+01  1.23755293E+01 -2.47510585E+01
  0.00000000E+00  1.23755293E+01  1.23755293E+01 -2.47510585E+01  0.00000000E+00
  1.23755293E+01  1.23755293E+01 -2.47510585E+01  0.00000000E+00  1.23755293E+01
  1.23755293E+01 -2.47510585E+01  0.00000000E+00  1.23755293E+01  1.23755293E+01
 -2.47510585E+01  0.00000000E+00  1.23755293E+01  1.23755293E+01 -2.47510585E+01
  0.00000000E+00  1.23755293E+01  1.23755293E+01 -2.47510585E+01  0.00000000E+00
  1.23755293E+01  1.23755293E+01 -2.47510585E+01  0.00000000E+00  1.23755293E+01
  1.23755293E+01 -2.47510585E+01  0.00000000E+00  1.23755293E+01  1.23755293E+01
 -2.47510585E+01  0.00000000E+00  1.23755293E+01  1.23755293E+01 -2.47510585E+01
  0.00000000E+00  1.23755293E+01  1.23755293E+01 -2.47510585E+01  0.00000000E+00
  1.23755293E+01  1.23755293E+01 -2.47510585E+01  0.00000000E+00  1.23755293E+01
  1.23755293E+01 -2.47510585E+01  0.00000000E+00  1.23755293E+01  1.23755293E+01
 -2.47510585E+01  0.00000000E+00  1.23755293E+01  1.23755293E+01 -2.47510585E+01
  0.00000000E+00  1.23755293E+01  1.23755293E+01 -2.47510585E+01  0.00000000E+00
  1.23755293E+01  1.23755293E+01 -2.47510585E+01  0.00000000E+00  1.23755293E+01
  1.23755293E+01 -2.47510585E+01  0.00000000E+00  1.23755293E+01  1.23755293E+01
 -2.47510585E+01  0.00000000E+00  1.23755293E+01  1.23755293E+01 -2.47510585E+01
  0.00000000E+00  1.23755293E+01  1.23755293E+01 -2.47510585E+01  0.00000000E+00
  1.23755293E+01  1.23755293E+01 -2.47510585E+01  0.00000000E+00  1.23755293E+01
  1.23755293E+01 -2.47510585E+01  0.00000000E+00  1.23755293E+01  1.23755293E+01
 -2.47510585E+01  0.00000000E+00  1.23755293E+01  1.23755293E+01 -2.47510585E+01
  0.00000000E+00  1.23755293E+01  1.23755293E+01 -2.47510585E+01  0.00000000E+00
  1.23755293E+01  1.23755293E+01 -2.47510585E+01  0.00000000E+00  1.23755293E+01
  1.23755293E+01 -2.47510585E+01  0.00000000E+00  1.23755293E+01  1.23755293E+01
 -2.47510585E+01  0.00000000E+00  1.23755293E+01  1.23755293E+01 -2.47510585E+01
  0.00000000E+00  1.23755293E+01  1.23755293E+01 -2.47510585E+01  0.00000000E+00
  1.23755293E+01  1.23755293E+01 -2.47510585E+01  0.00000000E+00  1.23755293E+01
  1.23755293E+01 -2.47510585E+01  0.00000000E+00  1.23755293E+01  1.23755293E+01
 -2.47510585E+01  0.00000000E+00  1.23755293E+01  1.23755293E+01 -2.47510585E+01
  0.00000000E+00  1.23755293E+01  1.23755293E+01 -2.47510585E+01  0.00000000E+00
  1.23755293E+01  1.23755293E+01 -2.47510585E+01  0.00000000E+00  1.23755293E+01
  1.23755293E+01 -2.47510585E+01  0.00000000E+00  1.23755293E+01  1.23755293E+01
 -2.47510585E+01  0.00000000E+00  1.23755293E+01  1.23755293E+01 -2.47510585E+01
  0.00000000E+00  1.23755293E+01  1.23755293E+01 -2.47510585E+01  0.00000000E+00
  1.23755293E+01  1.23755293E+01 -2.47510585E+01  0.00000000E+00  1.23755293E+01
  1.23755293E+01 -2.47510585E+01  0.00000000E+00  1.23755293E+01  1.23755293E+01
 -2.47510585E+01  0.00000000E+00  1.23755293E+01  1.23755293E+01 -2.47510585E+01
  0.00000000E+00  1.23755293E+01  1.23755293E+01 -2.47510585E+01  0.00000000E+00
  1.23755293E+01  1.23755293E+01 -2.47510585E+01  0.00000000E+00  1.23755293E+01
  1.23755293E+01 -2.47510585E+01  0.00000000E+00  1.23755293E+01  1.23755293E+01
 -2.47510585E+01  0.00000000E+00  1.23755293E+01  1.23755293E+01 -2.47510585E+01
  0.00000000E+00  1.23755293E+01  1.23755293E+01 -2.47510585E+01  0.00000000E+00
  1.23755293E+01  1.23755293E+01 -2.47510585E+01  0.00000000E+00  1.23755293E+01
  1.23755293E+01 -2.47510585E+01  0.00000000E+00  1.23755293E+01  1.23755293E+01
 -2.47510585E+01  0.00000000E+00  1.23755293E+01  1.23755293E+01 -2.47510585E+01
  0.00000000E+00  1.23755293E+01  1.23755293E+01 -2.47510585E+01  0.00000000E+00
  1.23755293E+01  1.23755293E+01 -2.47510585E+01  0.00000000E+00  1.23755293E+01
  1.23755293E+01 -2.47510585E+01  0.00000000E+00  1.23755293E+01  1.23755293E+01
 -2.47510585E+01  0.00000000E+00  1.23755293E+01  1.23755293E+01 -2.47510585E+01
  0.00000000E+00  1.23755293E+01  1.23755293E+01 -2.47510585E+01  0.00000000E+00
  1.23755293E+01  1.23755293E+01 -2.47510585E+01  0.00000000E+00  1.23755293E+01
  1.23755293E+01 -2.47510585E+01  0.00000000E+00  1.23755293E+01  1.23755293E+01
 -2.47510585E+01  0.00000000E+00  1.23755293E+01  1.23755293E+01 -2.47510585E+01
  0.00000000E+00  1.23755293E+01  1.23755293E+01 -2.47510585E+01  0.00000000E+00
  1.23755293E+01  1.23755293E+01 -2.47510585E+01  0.00000000E+00  1.23755293E+01
  1.23755293E+01 -2.47510585E+01  0.00000000E+00  1.23755293E+01  1.23755293E+01
 -2.47510585E+01  0.00000000E+00  1.23755293E+01  1.23755293E+01 -2.47510585E+01
  0.00000000E+00  1.23755293E+01  1.23755293E+01 -2.47510585E+01  0.00000000E+00
  1.23755293E+01  1.23755293E+01 -2.47510585E+01  0.00000000E+00  1.23755293E+01
  1.23755293E+01 -2.47510585E+01  0.00000000E+00  1.23755293E+01  1.23755293E+01
 -2.47510585E+01  0.00000000E+00  1.23755293E+01  1.23755293E+01 -2.47510585E+01
  0.00000000E+00  1.23755293E+01  1.23755293E+01 -2.47510585E+01  0.00000000E+00
  1.23755293E+01  1.23755293E+01 -2.47510585E+01  0.00000000E+00  1.23755293E+01
  1.23755293E+01 -2.47510585E+01  0.00000000E+00  1.23755293E+01  1.23755293E+01
 -2.47510585E+01  0.00000000E+00  1.23755293E+01  1.23755293E+01 -2.47510585E+01
  0.00000000E+00  1.23755293E+01  1.23755293E+01 -2.47510585E+01  0.00000000E+00
  1.23755293E+01  1.23755293E+01 -2.47510585E+01  0.00000000E+00  1.23755293E+01
  1.23755293E+01 -2.47510585E+01  0.00000000E+00  1.23755293E+01  1.23755293E+01
 -2.47510585E+01  0.00000000E+00  1.23755293E+01  1.23755293E+01 -2.47510585E+01
  0.00000000E+00  1.23755293E+01  1.23755293E+01 -2.47510585E+01  0.00000000E+00
  1.23755293E+01  1.23755293E+01 -2.47510585E+01  0.00000000E+00  1.23755293E+01
  1.23755293E+01 -2.47510585E+01  0.00000000E+00  1.23755293E+01  1.23755293E+01
 -2.47510585E+01  0.00000000E+00  1.23755293E+01  1.23755293E+01 -2.47510585E+01
  0.00000000E+00  1.23755293E+01  1.23755293E+01 -2.47510585E+01  0.00000000E+00
  1.23755293E+01  1.23755293E+01 -2.47510585E+01  0.00000000E+00  1.23755293E+01
  1.23755293E+01 -2.47510585E+01  0.00000000E+00  1.23755293E+01  1.23755293E+01
 -2.47510585E+01  0.00000000E+00  1.23755293E+01  1.23755293E+01 -2.47510585E+01
  0.00000000E+00  1.23755293E+01  1.23755293E+01 -2.47510585E+01  0.00000000E+00
  1.23755293E+01  1.23755293E+01 -2.47510585E+01  0.00000000E+00  1.23755293E+01
  1.23755293E+01 -2.47510585E+01  0.00000000E+00  1.23755293E+01  1.23755293E+01
 -2.47510585E+01  0.00000000E+00  1.23755293E+01  1.23755293E+01 -2.47510585E+01
  0.00000000E+00  1.23755293E+01  1.23755293E+01 -2.47510585E+01  0.00000000E+00
  1.23755293E+01  1.23755293E+01 -2.47510585E+01  0.00000000E+00  1.23755293E+01
  1.23755293E+01 -2.47510585E+01  0.00000000E+00  1.23755293E+01  1.23755293E+01
 -2.47510585E+01  0.00000000E+00  1.23755293E+01  1.23755293E+01 -2.47510585E+01
  0.00000000E+00  1.23755293E+01  1.23755293E+01 -2.47510585E+01  0.00000000E+00
  1.23755293E+01  1.23755293E+01 -2.47510585E+01  0.00000000E+00  1.23755293E+01
  1.23755293E+01 -2.47510585E+01  0.00000000E+00  1.23755293E+01  1.23755293E+01
 -2.47510585E+01  0.00000000E+00  1.23755293E+01  1.23755293E+01 -2.47510585E+01
  0.00000000E+00  1.23755293E+01  1.23755293E+01 -2.47510585E+01  0.00000000E+00
  1.23755293E+01  1.23755293E+01 -2.47510585E+01  0.00000000E+00  1.23755293E+01
  1.23755293E+01 -2.47510585E+01  0.00000000E+00  1.23755293E+01  1.23755293E+01
 -2.47510585E+01  0.00000000E+00  1.23755293E+01  1.23755293E+01 -2.47510585E+01
  0.00000000E+00  1.23755293E+01  1.23755293E+01 -2.47510585E+01  0.00000000E+00
  1.23755293E+01  1.23755293E+01 -2.47510585E+01  0.00000000E+00  1.23755293E+01
  1.23755293E+01 -2.47510585E+01  0.00000000E+00  1.23755293E+01  1.23755293E+01
 -2.47510585E+01  0.00000000E+00  1.23755293E+01  1.23755293E+01 -2.47510585E+01
  0.00000000E+00  1.23755293E+01  1.23755293E+01 -2.47510585E+01  0.00000000E+00
  1.23755293E+01  1.23755293E+01 -2.47510585E+01  0.00000000E+00  1.23755293E+01
  1.23755293E+01 -2.47510585E+01  0.00000000E+00  1.23755293E+01  1.23755293E+01
 -2.47510585E+01  0.00000000E+00  1.23755293E+01  1.23755293E+01 -2.47510585E+01
  0.00000000E+00  1.23755293E+01  1.23755293E+01 -2.47510585E+01  0.00000000E+00
  1.23755293E+01  1.23755293E+01 -2.47510585E+01  0.00000000E+00  1.23755293E+01
  1.23755293E+01 -2.47510585E+01  0.00000000E+00  1.23755293E+01  1.23755293E+01
 -2.47510585E+01  0.00000000E+00  1.23755293E+01  1.23755293E+01 -2.47510585E+01
  0.00000000E+00  1.23755293E+01  1.23755293E+01 -2.47510585E+01  0.00000000E+00
  1.23755293E+01  1.23755293E+01 -2.47510585E+01  0.00000000E+00  1.23755293E+01
  1.23755293E+01 -2.47510585E+01  0.00000000E+00  1.23755293E+01  1.23755293E+01
 -2.47510585E+01  0.00000000E+00  1.23755293E+01  1.23755293E+01 -2.47510585E+01
  0.00000000E+00  1.23755293E+01  1.23755293E+01 -2.47510585E+01  0.00000000E+00
  1.23755293E+01  1.23755293E+01 -2.47510585E+01  0.00000000E+00  1.23755293E+01
  1.23755293E+01 -2.47510585E+01  0.00000000E+00  1.23755293E+01  1.23755293E+01
 -2.47510585E+01  0.00000000E+00  1.23755293E+01  1.23755293E+01 -2.47510585E+01
  0.00000000E+00  1.23755293E+01  1.23755293E+01 -2.47510585E+01  0.00000000E+00
  1.23755293E+01  1.23755293E+01 -2.47510585E+01  0.00000000E+00  1.23755293E+01
  1.23755293E+01 -2.47510585E+01  0.00000000E+00  1.23755293E+01  1.23755293E+01
 -2.47510585E+01  0.00000000E+00  1.23755293E+01  1.23755293E+01 -2.47510585E+01
  0.00000000E+00  1.23755293E+01  1.23755293E+01 -2.47510585E+01  0.00000000E+00
  1.23755293E+01  1.23755293E+01 -2.47510585E+01  0.00000000E+00  1.23755293E+01
  1.23755293E+01 -2.47510585E+01  0.00000000E+00  1.23755293E+01  1.23755293E+01
 -2.47510585E+01  0.00000000E+00  1.23755293E+01  1.23755293E+01 -2.47510585E+01
  0.00000000E+00  1.23755293E+01  1.23755293E+01 -2.47510585E+01  0.00000000E+00
  1.23755293E+01  1.23755293E+01 -2.47510585E+01  0.00000000E+00  1.23755293E+01
  1.23755293E+01 -2.47510585E+01  0.00000000E+00  1.23755293E+01  1.23755293E+01
 -2.47510585E+01  0.00000000E+00  1.23755293E+01  1.23755293E+01 -2.47510585E+01
  0.00000000E+00  1.23755293E+01  1.23755293E+01 -2.47510585E+01  0.00000000E+00
  1.23755293E+01  1.23755293E+01 -2.47510585E+01  0.00000000E+00  1.23755293E+01
  1.23755293E+01 -2.47510585E+01  0.00000000E+00  1.23755293E+01  1.23755293E+01
 -2.47510585E+01  0.00000000E+00  1.23755293E+01  1.23755293E+01 -2.47510585E+01
  0.00000000E+00  1.23755293E+01  1.23755293E+01 -2.47510585E+01  0.00000000E+00
  1.23755293E+01  1.23755293E+01 -2.47510585E+01  0.00000000E+00  1.23755293E+01
  1.23755293E+01 -2.47510585E+01  0.00000000E+00  1.23755293E+01  1.23755293E+01
 -2.47510585E+01  0.00000000E+00  1.23755293E+01  1.23755293E+01 -2.47510585E+01
  0.00000000E+00  1.23755293E+01  1.23755293E+01 -2.47510585E+01  0.00000000E+00
  1.23755293E+01  1.23755293E+01 -2.47510585E+01  0.00000000E+00  1.23755293E+01
  1.23755293E+01 -2.47510585E+01  0.00000000E+00  1.23755293E+01  1.23755293E+01
 -2.47510585E+01  0.00000000E+00  1.23755293E+01  1.23755293E+01 -2.47510585E+01
  0.00000000E+00  1.23755293E+01  1.23755293E+01 -2.47510585E+01  0.00000000E+00
  1.23755293E+01  1.23755293E+01 -2.47510585E+01  0.00000000E+00  1.23755293E+01
  1.23755293E+01 -2.47510585E+01  0.00000000E+00  1.23755293E+01  1.23755293E+01
 -2.47510585E+01  0.00000000E+00  1.23755293E+01  1.23755293E+01 -2.47510585E+01
  0.00000000E+00  1.23755293E+01  1.23755293E+01 -2.47510585E+01  0.00000000E+00
  1.23755293E+01  1.23755293E+01 -2.47510585E+01  0.00000000E+00  1.23755293E+01
  1.23755293E+01 -2.47510585E+01  0.00000000E+00  1.23755293E+01  1.23755293E+01
 -2.47510585E+01  0.00000000E+00  1.23755293E+01  1.23755293E+01 -2.47510585E+01
  0.00000000E+00  1.23755293E+01  1.23755293E+01 -2.47510585E+01  0.00000000E+00
  1.23755293E+01  1.23755293E+01 -2.47510585E+01  0.00000000E+00  1.23755293E+01
  1.23755293E+01 -2.47510585E+01  0.00000000E+00  1.23755293E+01  1.23755293E+01
 -2.47510585E+01  0.00000000E+00  1.23755293E+01  1.23755293E+01 -2.47510585E+01
  0.00000000E+00  1.23755293E+01  1.23755293E+01 -2.47510585E+01  0.00000000E+00
  1.23755293E+01  1.23755293E+01 -2.47510585E+01  0.00000000E+00  1.23755293E+01
  1.23755293E+01 -2.47510585E+01  0.00000000E+00  1.23755293E+01  1.23755293E+01
 -2.47510585E+01  0.00000000E+00  1.23755293E+01  1.23755293E+01 -2.47510585E+01
  0.00000000E+00  1.23755293E+01  1.23755293E+01 -2.47510585E+01  0.00000000E+00
  1.23755293E+01  1.23755293E+01 -2.47510585E+01  0.00000000E+00  1.23755293E+01
  1.23755293E+01 -2.47510585E+01  0.00000000E+00  1.23755293E+01  1.23755293E+01
 -2.47510585E+01  0.00000000E+00  1.23755293E+01  1.23755293E+01 -2.47510585E+01
  0.00000000E+00  1.23755293E+01  1.23755293E+01 -2.47510585E+01  0.00000000E+00
  1.23755293E+01  1.23755293E+01 -2.47510585E+01  0.00000000E+00  1.23755293E+01
  1.23755293E+01 -2.47510585E+01  0.00000000E+00  1.23755293E+01  1.23755293E+01
 -2.47510585E+01  0.00000000E+00  1.23755293E+01  1.23755293E+01 -2.47510585E+01
  0.00000000E+00  1.23755293E+01  1.23755293E+01 -2.47510585E+01  0.00000000E+00
  1.23755293E+01  1.23755293E+01 -2.47510585E+01  0.00000000E+00  1.23755293E+01
  1.23755293E+01 -2.47510585E+01  0.00000000E+00  1.23755293E+01  1.23755293E+01
 -2.47510585E+01  0.00000000E+00  1.23755293E+01  1.23755293E+01 -2.47510585E+01
  0.00000000E+00  1.23755293E+01  1.23755293E+01 -2.47510585E+01  0.00000000E+00
  1.23755293E+01  1.23755293E+01 -2.47510585E+01  0.00000000E+00  1.23755293E+01
  1.23755293E+01 -2.47510585E+01  0.00000000E+00  1.23755293E+01  1.23755293E+01
 -2.47510585E+01  0.00000000E+00  1.23755293E+01  1.23755293E+01 -2.47510585E+01
  0.00000000E+00  1.23755293E+01  1.23755293E+01 -2.47510585E+01  0.00000000E+00
  1.23755293E+01  1.23755293E+01 -2.47510585E+01  0.00000000E+00  1.23755293E+01
  1.23755293E+01 -2.47510585E+01  0.00000000E+00  1.23755293E+01  1.23755293E+01
 -2.47510585E+01  0.00000000E+00  1.23755293E+01  1.23755293E+01 -2.47510585E+01
  0.00000000E+00  1.23755293E+01  1.23755293E+01 -2.47510585E+01  0.00000000E+00
  1.23755293E+01  1.23755293E+01 -2.47510585E+01  0.00000000E+00  1.23755293E+01
  1.23755293E+01 -2.47510585E+01  0.00000000E+00  1.23755293E+01  1.23755293E+01
 -2.47510585E+01  0.00000000E+00  1.23755293E+01  1.23755293E+01 -2.47510585E+01
  0.00000000E+00  1.23755293E+01  1.23755293E+01 -2.47510585E+01  0.00000000E+00
  1.23755293E+01  1.23755293E+01 -2.47510585E+01  0.00000000E+00  1.23755293E+01
  1.23755293E+01 -2.47510585E+01  0.00000000E+00  1.23755293E+01  1.23755293E+01
 -2.47510585E+01  0.00000000E+00  1.23755293E+01  1.23755293E+01 -2.47510585E+01
  0.00000000E+00  1.23755293E+01  1.23755293E+01 -2.47510585E+01  0.00000000E+00
  1.23755293E+01  1.23755293E+01 -2.47510585E+01  0.00000000E+00  1.23755293E+01
  1.23755293E+01 -2.47510585E+01  0.00000000E+00  1.23755293E+01  1.23755293E+01
 -2.47510585E+01  0.00000000E+00  1.23755293E+01  1.23755293E+01 -2.47510585E+01
  0.00000000E+00  1.23755293E+01  1.23755293E+01 -2.47510585E+01  0.00000000E+00
  1.23755293E+01  1.23755293E+01 -2.47510585E+01  0.00000000E+00  1.23755293E+01
  1.23755293E+01 -2.47510585E+01  0.00000000E+00  1.23755293E+01  1.23755293E+01
 -2.47510585E+01  0.00000000E+00  1.23755293E+01  1.23755293E+01 -2.47510585E+01
  0.00000000E+00  1.23755293E+01  1.23755293E+01 -2.47510585E+01  0.00000000E+00
  1.23755293E+01  1.23755293E+01 -2.47510585E+01  0.00000000E+00  1.23755293E+01
  1.23755293E+01 -2.47510585E+01  0.00000000E+00  1.23755293E+01  1.23755293E+01
 -2.47510585E+01  0.00000000E+00  1.23755293E+01  1.23755293E+01 -2.47510585E+01
  0.00000000E+00  1.23755293E+01  1.23755293E+01 -2.47510585E+01  0.00000000E+00
  1.23755293E+01  1.23755293E+01 -2.47510585E+01  0.00000000E+00  1.23755293E+01
  1.23755293E+01 -2.47510585E+01  0.00000000E+00  1.23755293E+01  1.23755293E+01
 -2.47510585E+01  0.00000000E+00  1.23755293E+01  1.23755293E+01 -2.47510585E+01
  0.00000000E+00  1.23755293E+01  1.23755293E+01 -2.47510585E+01  0.00000000E+00
  1.23755293E+01  1.23755293E+01 -2.47510585E+01  0.00000000E+00  1.23755293E+01
  1.23755293E+01 -2.47510585E+01  0.00000000E+00  1.23755293E+01  1.23755293E+01
 -2.47510585E+01  0.00000000E+00  1.23755293E+01  1.23755293E+01 -2.47510585E+01
  0.00000000E+00  1.23755293E+01  1.23755293E+01 -2.47510585E+01  0.00000000E+00
  1.23755293E+01  1.23755293E+01 -2.47510585E+01  0.00000000E+00  1.23755293E+01
  1.23755293E+01 -2.47510585E+01  0.00000000E+00  1.23755293E+01  1.23755293E+01
 -2.47510585E+01  0.00000000E+00  1.23755293E+01  1.23755293E+01 -2.47510585E+01
  0.00000000E+00  1.23755293E+01  1.23755293E+01 -2.47510585E+01  0.00000000E+00
  1.23755293E+01  1.23755293E+01 -2.47510585E+01  0.00000000E+00  1.23755293E+01
  1.23755293E+01 -2.47510585E+01  0.00000000E+00  1.23755293E+01  1.23755293E+01
 -2.47510585E+01  0.00000000E+00  1.23755293E+01  1.23755293E+01 -2.47510585E+01
  0.00000000E+00  1.23755293E+01  1.23755293E+01 -2.47510585E+01  0.00000000E+00
  1.23755293E+01  1.23755293E+01 -2.47510585E+01  0.00000000E+00  1.23755293E+01
  1.23755293E+01 -2.47510585E+01  0.00000000E+00  1.23755293E+01  1.23755293E+01
 -2.47510585E+01  0.00000000E+00  1.23755293E+01  1.23755293E+01 -2.47510585E+01
  0.00000000E+00  1.23755293E+01  1.23755293E+01 -2.47510585E+01  0.00000000E+00
  1.23755293E+01  1.23755293E+01 -2.47510585E+01  0.00000000E+00  1.23755293E+01
  1.23755293E+01 -2.47510585E+01  0.00000000E+00  1.23755293E+01  1.23755293E+01
 -2.47510585E+01  0.00000000E+00  1.23755293E+01  1.23755293E+01 -2.47510585E+01
  0.00000000E+00  1.23755293E+01  1.23755293E+01 -2.47510585E+01  0.00000000E+00
  1.23755293E+01  1.23755293E+01 -2.47510585E+01  0.00000000E+00  1.23755293E+01
  1.23755293E+01 -2.47510585E+01  0.00000000E+00  1.23755293E+01  1.23755293E+01
 -2.47510585E+01  0.00000000E+00  1.23755293E+01  1.23755293E+01 -2.47510585E+01
  0.00000000E+00  1.23755293E+01  1.23755293E+01 -2.47510585E+01  0.00000000E+00
  1.23755293E+01  1.23755293E+01 -2.47510585E+01  0.00000000E+00  1.23755293E+01
  1.23755293E+01 -2.47510585E+01  0.00000000E+00  1.23755293E+01  1.23755293E+01
 -2.47510585E+01  0.00000000E+00  1.23755293E+01  1.23755293E+01 -2.47510585E+01
  0.00000000E+00  1.23755293E+01  1.23755293E+01 -2.47510585E+01  0.00000000E+00
  1.23755293E+01  1.23755293E+01 -2.47510585E+01  0.00000000E+00  1.23755293E+01
  1.23755293E+01 -2.47510585E+01  0.00000000E+00  1.23755293E+01  1.23755293E+01
 -2.47510585E+01  0.00000000E+00  1.23755293E+01  1.23755293E+01 -2.47510585E+01
  0.00000000E+00  1.23755293E+01  1.23755293E+01 -2.47510585E+01  0.00000000E+00
  1.23755293E+01  1.23755293E+01 -2.47510585E+01  0.00000000E+00  1.23755293E+01
  1.23755293E+01 -2.47510585E+01  0.00000000E+00  1.23755293E+01  1.23755293E+01
 -2.47510585E+01  0.00000000E+00  1.23755293E+01  1.23755293E+01 -2.47510585E+01
  0.00000000E+00  1.23755293E+01  1.23755293E+01 -2.47510585E+01  0.00000000E+00
  1.23755293E+01  1.23755293E+01 -2.47510585E+01  0.00000000E+00  1.23755293E+01
  1.23755293E+01 -2.47510585E+01  0.00000000E+00  1.23755293E+01  1.23755293E+01
 -2.47510585E+01  0.00000000E+00  1.23755293E+01  1.23755293E+01 -2.47510585E+01
  0.00000000E+00  1.23755293E+01  1.23755293E+01 -2.47510585E+01  0.00000000E+00
  1.23755293E+01  1.23755293E+01 -2.47510585E+01  0.00000000E+00  1.23755293E+01
  1.23755293E+01 -2.47510585E+01  0.00000000E+00  1.23755293E+01  1.23755293E+01
 -2.47510585E+01  0.00000000E+00  1.23755293E+01  1.23755293E+01 -2.47510585E+01
  0.00000000E+00  1.23755293E+01  1.23755293E+01 -2.47510585E+01  0.00000000E+00
  1.23755293E+01  1.23755293E+01 -2.47510585E+01  0.00000000E+00  1.23755293E+01
  1.23755293E+01 -2.47510585E+01  0.00000000E+00  1.23755293E+01  1.23755293E+01
 -2.47510585E+01  0.00000000E+00  1.23755293E+01  1.23755293E+01 -2.47510585E+01
  0.00000000E+00  1.23755293E+01  1.23755293E+01 -2.47510585E+01  0.00000000E+00
  1.23755293E+01  1.23755293E+01 -2.47510585E+01  0.00000000E+00  1.23755293E+01
  1.23755293E+01 -2.47510585E+01  0.00000000E+00  1.23755293E+01  1.23755293E+01
 -2.47510585E+01  0.00000000E+00  1.23755293E+01  1.23755293E+01 -2.47510585E+01
  0.00000000E+00  1.23755293E+01  1.23755293E+01 -2.47510585E+01  0.00000000E+00
  1.23755293E+01  1.23755293E+01 -2.47510585E+01  0.00000000E+00  1.23755293E+01
  1.23755293E+01 -2.47510585E+01  0.00000000E+00  1.23755293E+01  1.23755293E+01
 -2.47510585E+01  0.00000000E+00  1.23755293E+01  1.23755293E+01 -2.47510585E+01
  0.00000000E+00  1.23755293E+01  1.23755293E+01 -2.47510585E+01  0.00000000E+00
  1.23755293E+01  1.23755293E+01 -2.47510585E+01  0.00000000E+00  1.23755293E+01
  1.23755293E+01 -2.47510585E+01  0.00000000E+00  1.23755293E+01  1.23755293E+01
 -2.47510585E+01  0.00000000E+00  1.23755293E+01  1.23755293E+01 -2.47510585E+01
  0.00000000E+00  1.23755293E+01  1.23755293E+01 -2.47510585E+01  0.00000000E+00
  1.23755293E+01  1.23755293E+01 -2.47510585E+01  0.00000000E+00  1.23755293E+01
  1.23755293E+01 -2.47510585E+01  0.00000000E+00  1.23755293E+01  1.23755293E+01
 -2.47510585E+01  0.00000000E+00  1.23755293E+01  1.23755293E+01 -2.47510585E+01
  0.00000000E+00  1.23755293E+01  1.23755293E+01 -2.47510585E+01  0.00000000E+00
  1.23755293E+01  1.23755293E+01 -2.47510585E+01  0.00000000E+00  1.23755293E+01
  1.23755293E+01 -2.47510585E+01  0.00000000E+00  1.23755293E+01  1.23755293E+01
 -2.47510585E+01  0.00000000E+00  1.23755293E+01  1.23755293E+01 -2.47510585E+01
  0.00000000E+00  1.23755293E+01  1.23755293E+01 -2.47510585E+01  0.00000000E+00
  1.23755293E+01  1.23755293E+01 -2.47510585E+01  0.00000000E+00  1.23755293E+01
  1.23755293E+01 -2.47510585E+01  0.00000000E+00  1.23755293E+01  1.23755293E+01
 -2.47510585E+01  0.00000000E+00  1.23755293E+01  1.23755293E+01 -2.47510585E+01
  0.00000000E+00  1.23755293E+01  1.23755293E+01 -2.47510585E+01  0.00000000E+00
  1.23755293E+01  1.23755293E+01 -2.47510585E+01  0.00000000E+00  1.23755293E+01
  1.23755293E+01 -2.47510585E+01  0.00000000E+00  1.23755293E+01  1.23755293E+01
 -2.47510585E+01  0.00000000E+00  1.23755293E+01  1.23755293E+01 -2.47510585E+01
  0.00000000E+00  1.23755293E+01  1.23755293E+01 -2.47510585E+01  0.00000000E+00
  1.23755293E+01  1.23755293E+01 -2.47510585E+01  0.00000000E+00  1.23755293E+01
  1.23755293E+01 -2.47510585E+01  0.00000000E+00  1.23755293E+01  1.23755293E+01
 -2.47510585E+01  0.00000000E+00  1.23755293E+01  1.23755293E+01 -2.47510585E+01
  0.00000000E+00  1.23755293E+01  1.23755293E+01 -2.47510585E+01  0.00000000E+00
  1.23755293E+01  1.23755293E+01 -2.47510585E+01  0.00000000E+00  1.23755293E+01
  1.23755293E+01 -2.47510585E+01  0.00000000E+00  1.23755293E+01  1.23755293E+01
 -2.47510585E+01  0.00000000E+00  1.23755293E+01  1.23755293E+01 -2.47510585E+01
  0.00000000E+00  1.23755293E+01  1.23755293E+01 -2.47510585E+01  0.00000000E+00
  1.23755293E+01  1.23755293E+01 -2.47510585E+01  0.00000000E+00  1.23755293E+01
  1.23755293E+01 -2.47510585E+01  0.00000000E+00  1.23755293E+01  1.23755293E+01
 -2.47510585E+01  0.00000000E+00  1.23755293E+01  1.23755293E+01 -2.47510585E+01
  0.00000000E+00  1.23755293E+01  1.23755293E+01 -2.47510585E+01  0.00000000E+00
  1.23755293E+01  1.23755293E+01 -2.47510585E+01  0.00000000E+00  1.23755293E+01
  1.23755293E+01 -2.47510585E+01  0.00000000E+00  1.23755293E+01  1.23755293E+01
 -2.47510585E+01  0.00000000E+00  1.23755293E+01  1.23755293E+01 -2.47510585E+01
  0.00000000E+00  1.23755293E+01  1.23755293E+01 -2.47510585E+01  0.00000000E+00
  1.23755293E+01  1.23755293E+01 -2.47510585E+01  0.00000000E+00  1.23755293E+01
  1.23755293E+01 -2.47510585E+01  0.00000000E+00  1.23755293E+01  1.23755293E+01
 -2.47510585E+01  0.00000000E+00  1.23755293E+01  1.23755293E+01 -2.47510585E+01
  0.00000000E+00  1.23755293E+01  1.23755293E+01 -2.47510585E+01  0.00000000E+00
  1.23755293E+01  1.23755293E+01 -2.47510585E+01  0.00000000E+00  1.23755293E+01
  1.23755293E+01 -2.47510585E+01  0.00000000E+00  1.23755293E+01  1.23755293E+01
 -2.47510585E+01  0.00000000E+00  1.23755293E+01  1.23755293E+01 -2.47510585E+01
  0.00000000E+00  1.23755293E+01  1.23755293E+01 -2.47510585E+01  0.00000000E+00
  1.23755293E+01  1.23755293E+01 -2.47510585E+01  0.00000000E+00  1.23755293E+01
  1.23755293E+01 -2.47510585E+01  0.00000000E+00  1.23755293E+01  1.23755293E+01
 -2.47510585E+01  0.00000000E+00  1.23755293E+01  1.23755293E+01 -2.47510585E+01
  0.00000000E+00  1.23755293E+01  1.23755293E+01 -2.47510585E+01  0.00000000E+00
  1.23755293E+01  1.23755293E+01 -2.47510585E+01  0.00000000E+00  1.23755293E+01
  1.23755293E+01 -2.47510585E+01  0.00000000E+00  1.23755293E+01  1.23755293E+01
 -2.47510585E+01  0.00000000E+00  1.23755293E+01  1.23755293E+01 -2.47510585E+01
  0.00000000E+00  1.23755293E+01  1.23755293E+01 -2.47510585E+01  0.00000000E+00
  1.23755293E+01  1.23755293E+01 -2.47510585E+01  0.00000000E+00  1.23755293E+01
  1.23755293E+01 -2.47510585E+01  0.00000000E+00  1.23755293E+01  1.23755293E+01
 -2.47510585E+01  0.00000000E+00  1.23755293E+01  1.23755293E+01 -2.47510585E+01
  0.00000000E+00  1.23755293E+01  1.23755293E+01 -2.47510585E+01  0.00000000E+00
  1.23755293E+01  1.23755293E+01 -2.47510585E+01  0.00000000E+00  1.23755293E+01
  1.23755293E+01 -2.47510585E+01  0.00000000E+00  1.23755293E+01  1.23755293E+01
 -2.47510585E+01  0.00000000E+00  1.23755293E+01  1.23755293E+01 -2.47510585E+01
  0.00000000E+00  1.23755293E+01  1.23755293E+01 -2.47510585E+01  0.00000000E+00
  1.23755293E+01  1.23755293E+01 -2.47510585E+01  0.00000000E+00  1.23755293E+01
  1.23755293E+01 -2.47510585E+01  0.00000000E+00  1.23755293E+01  1.23755293E+01
 -2.47510585E+01  0.00000000E+00  1.23755293E+01  1.23755293E+01 -2.47510585E+01
  0.00000000E+00  1.23755293E+01  1.23755293E+01 -2.47510585E+01  0.00000000E+00
  1.23755293E+01  1.23755293E+01 -2.47510585E+01  0.00000000E+00  1.23755293E+01
  1.23755293E+01 -2.47510585E+01  0.00000000E+00  1.23755293E+01  1.23755293E+01
 -2.47510585E+01  0.00000000E+00  1.23755293E+01  1.23755293E+01 -2.47510585E+01
  0.00000000E+00  1.23755293E+01  1.23755293E+01 -2.47510585E+01  0.00000000E+00
  1.23755293E+01  1.23755293E+01 -2.47510585E+01  0.00000000E+00  1.23755293E+01
  1.23755293E+01 -2.47510585E+01  0.00000000E+00  1.23755293E+01  1.23755293E+01
 -2.47510585E+01  0.00000000E+00  1.23755293E+01  1.23755293E+01 -2.47510585E+01
  0.00000000E+00  1.23755293E+01  1.23755293E+01 -2.47510585E+01  0.00000000E+00
  1.23755293E+01  1.23755293E+01 -2.47510585E+01  0.00000000E+00  1.23755293E+01
  1.23755293E+01 -2.47510585E+01  0.00000000E+00  1.23755293E+01  1.23755293E+01
 -2.47510585E+01  0.00000000E+00  1.23755293E+01  1.23755293E+01 -2.47510585E+01
  0.00000000E+00  1.23755293E+01  1.23755293E+01 -2.47510585E+01  0.00000000E+00
  1.23755293E+01  1.23755293E+01 -2.47510585E+01  0.00000000E+00  1.23755293E+01
  1.23755293E+01 -2.47510585E+01  0.00000000E+00  1.23755293E+01  1.23755293E+01
 -2.47510585E+01  0.00000000E+00  1.23755293E+01  1.23755293E+01 -2.47510585E+01
  0.00000000E+00  1.23755293E+01  1.23755293E+01 -2.47510585E+01  0.00000000E+00
  1.23755293E+01  1.23755293E+01 -2.47510585E+01  0.00000000E+00  1.23755293E+01
  1.23755293E+01 -2.47510585E+01  0.00000000E+00  1.23755293E+01  1.23755293E+01
 -2.47510585E+01  0.00000000E+00  1.23755293E+01  1.23755293E+01 -2.47510585E+01
  0.00000000E+00  1.23755293E+01  1.23755293E+01 -2.47510585E+01  0.00000000E+00
  1.23755293E+01  1.23755293E+01 -2.47510585E+01  0.00000000E+00  1.23755293E+01
  1.23755293E+01 -2.47510585E+01  0.00000000E+00  1.23755293E+01  1.23755293E+01
 -2.47510585E+01  0.00000000E+00  1.23755293E+01  1.23755293E+01 -2.47510585E+01
  0.00000000E+00  1.23755293E+01  1.23755293E+01 -2.47510585E+01  0.00000000E+00
  1.23755293E+01  1.23755293E+01 -2.47510585E+01  0.00000000E+00  1.23755293E+01
  1.23755293E+01 -2.47510585E+01  0.00000000E+00  1.23755293E+01  1.23755293E+01
 -2.47510585E+01  0.00000000E+00  1.23755293E+01  1.23755293E+01 -2.47510585E+01
  0.00000000E+00  1.23755293E+01  1.23755293E+01 -2.47510585E+01  0.00000000E+00
  1.23755293E+01  1.23755293E+01 -2.47510585E+01  0.00000000E+00  1.23755293E+01
  1.23755293E+01 -2.47510585E+01  0.00000000E+00  1.23755293E+01  1.23755293E+01
 -2.47510585E+01  0.00000000E+00  1.23755293E+01  1.23755293E+01 -2.47510585E+01
  0.00000000E+00  1.23755293E+01  1.23755293E+01 -2.47510585E+01  0.00000000E+00
  1.23755293E+01  1.23755293E+01 -2.47510585E+01  0.00000000E+00  1.23755293E+01
  1.23755293E+01 -2.47510585E+01  0.00000000E+00  1.23755293E+01  1.23755293E+01
 -2.47510585E+01  0.00000000E+00  1.23755293E+01  1.23755293E+01 -2.47510585E+01
  0.00000000E+00  1.23755293E+01  1.23755293E+01 -2.47510585E+01  0.00000000E+00
  1.23755293E+01  1.23755293E+01 -2.47510585E+01  0.00000000E+00  1.23755293E+01
  1.23755293E+01 -2.47510585E+01  0.00000000E+00  1.23755293E+01  1.23755293E+01
 -2.47510585E+01  0.00000000E+00  1.23755293E+01  1.23755293E+01 -2.47510585E+01
  0.00000000E+00  1.23755293E+01  1.23755293E+01 -2.47510585E+01  0.00000000E+00
  1.23755293E+01  1.23755293E+01 -2.47510585E+01  0.00000000E+00  1.23755293E+01
  1.23755293E+01 -2.47510585E+01  0.00000000E+00  1.23755293E+01  1.23755293E+01
 -2.47510585E+01  0.00000000E+00  1.23755293E+01  1.23755293E+01 -2.47510585E+01
  0.00000000E+00  1.23755293E+01  1.23755293E+01 -2.47510585E+01  0.00000000E+00
  1.23755293E+01  1.23755293E+01 -2.47510585E+01  0.00000000E+00  1.23755293E+01
  1.23755293E+01 -2.47510585E+01  0.00000000E+00  1.23755293E+01  1.23755293E+01
 -2.47510585E+01  0.00000000E+00  1.23755293E+01  1.23755293E+01 -2.47510585E+01
  0.00000000E+00  1.23755293E+01  1.23755293E+01 -2.47510585E+01  0.00000000E+00
  1.23755293E+01  1.23755293E+01 -2.47510585E+01  0.00000000E+00  1.23755293E+01
  1.23755293E+01 -2.47510585E+01  0.00000000E+00  1.23755293E+01  1.23755293E+01
 -2.47510585E+01  0.00000000E+00  1.23755293E+01  1.23755293E+01 -2.47510585E+01
  0.00000000E+00  1.23755293E+01  1.23755293E+01 -2.47510585E+01  0.00000000E+00
  1.23755293E+01  1.23755293E+01 -2.47510585E+01  0.00000000E+00  1.23755293E+01
  1.23755293E+01 -2.47510585E+01  0.00000000E+00  1.23755293E+01  1.23755293E+01
 -2.47510585E+01  0.00000000E+00  1.23755293E+01  1.23755293E+01 -2.47510585E+01
  0.00000000E+00  1.23755293E+01  1.23755293E+01 -2.47510585E+01  0.00000000E+00
  1.23755293E+01  1.23755293E+01 -2.47510585E+01  0.00000000E+00  1.23755293E+01
  1.23755293E+01 -2.47510585E+01  0.00000000E+00  1.23755293E+01  1.23755293E+01
 -2.47510585E+01  0.00000000E+00  1.23755293E+01  1.23755293E+01 -2.47510585E+01
  0.00000000E+00  1.23755293E+01  1.23755293E+01 -2.47510585E+01  0.00000000E+00
  1.23755293E+01  1.23755293E+01 -2.47510585E+01  0.00000000E+00  1.23755293E+01
  1.23755293E+01 -2.47510585E+01  0.00000000E+00  1.23755293E+01  1.23755293E+01
 -2.47510585E+01  0.00000000E+00  1.23755293E+01  1.23755293E+01 -2.47510585E+01
  0.00000000E+00  1.23755293E+01  1.23755293E+01 -2.47510585E+01  0.00000000E+00
  1.23755293E+01  1.23755293E+01 -2.47510585E+01  0.00000000E+00  1.23755293E+01
  1.23755293E+01 -2.47510585E+01  0.00000000E+00  1.23755293E+01  1.23755293E+01
 -2.47510585E+01  0.00000000E+00  1.23755293E+01  1.23755293E+01 -2.47510585E+01
  0.00000000E+00  1.23755293E+01  1.23755293E+01 -2.47510585E+01  0.00000000E+00
  1.23755293E+01  1.23755293E+01 -2.47510585E+01  0.00000000E+00  1.23755293E+01
  1.23755293E+01 -2.47510585E+01  0.00000000E+00  1.23755293E+01  1.23755293E+01
 -2.47510585E+01  0.00000000E+00  1.23755293E+01  1.23755293E+01 -2.47510585E+01
  0.00000000E+00  1.23755293E+01  1.23755293E+01 -2.47510585E+01  0.00000000E+00
  1.23755293E+01  1.23755293E+01 -2.47510585E+01  0.00000000E+00  1.23755293E+01
  1.23755293E+01 -2.47510585E+01  0.00000000E+00  1.23755293E+01  1.23755293E+01
 -2.47510585E+01  0.00000000E+00  1.23755293E+01  1.23755293E+01 -2.47510585E+01
  0.00000000E+00  1.23755293E+01  1.23755293E+01 -2.47510585E+01  0.00000000E+00
  1.23755293E+01  1.23755293E+01 -2.47510585E+01  0.00000000E+00  1.23755293E+01
  1.23755293E+01 -2.47510585E+01  0.00000000E+00  1.23755293E+01  1.23755293E+01
 -2.47510585E+01  0.00000000E+00  1.23755293E+01  1.23755293E+01 -2.47510585E+01
  0.00000000E+00  1.23755293E+01  1.23755293E+01 -2.47510585E+01  0.00000000E+00
  1.23755293E+01  1.23755293E+01 -2.47510585E+01  0.00000000E+00  1.23755293E+01
  1.23755293E+01 -2.47510585E+01  0.00000000E+00  1.23755293E+01  1.23755293E+01
 -2.47510585E+01  0.00000000E+00  1.23755293E+01  1.23755293E+01 -2.47510585E+01
  0.00000000E+00  1.23755293E+01  1.23755293E+01 -2.47510585E+01  0.00000000E+00
  1.23755293E+01  1.23755293E+01 -2.47510585E+01  0.00000000E+00  1.23755293E+01
  1.23755293E+01 -2.47510585E+01  0.00000000E+00  1.23755293E+01  1.23755293E+01
 -2.47510585E+01  0.00000000E+00  1.23755293E+01  1.23755293E+01 -2.47510585E+01
  0.00000000E+00  1.23755293E+01  1.23755293E+01 -2.47510585E+01  0.00000000E+00
  1.23755293E+01  1.23755293E+01 -2.47510585E+01  0.00000000E+00  1.23755293E+01
  1.23755293E+01 -2.47510585E+01  0.00000000E+00  1.23755293E+01  1.23755293E+01
 -2.47510585E+01  0.00000000E+00  1.23755293E+01  1.23755293E+01 -2.47510585E+01
  0.00000000E+00  1.23755293E+01  1.23755293E+01 -2.47510585E+01  0.00000000E+00
  1.23755293E+01  1.23755293E+01 -2.47510585E+01  0.00000000E+00  1.23755293E+01
  1.23755293E+01 -2.47510585E+01  0.00000000E+00  1.23755293E+01  1.23755293E+01
 -2.47510585E+01  0.00000000E+00  1.23755293E+01  1.23755293E+01 -2.47510585E+01
  0.00000000E+00  1.23755293E+01  1.23755293E+01 -2.47510585E+01  0.00000000E+00
  1.23755293E+01  1.23755293E+01 -2.47510585E+01  0.00000000E+00  1.23755293E+01
  1.23755293E+01 -2.47510585E+01  0.00000000E+00  1.23755293E+01  1.23755293E+01
 -2.47510585E+01  0.00000000E+00  1.23755293E+01  1.23755293E+01 -2.47510585E+01
  0.00000000E+00  1.23755293E+01  1.23755293E+01 -2.47510585E+01  0.00000000E+00
  1.23755293E+01  1.23755293E+01 -2.47510585E+01  0.00000000E+00  1.23755293E+01
  1.23755293E+01 -2.47510585E+01  0.00000000E+00  1.23755293E+01  1.23755293E+01
 -2.47510585E+01  0.00000000E+00  1.23755293E+01  1.23755293E+01 -2.47510585E+01
  0.00000000E+00  1.23755293E+01  1.23755293E+01 -2.47510585E+01  0.00000000E+00
  1.23755293E+01  1.23755293E+01 -2.47510585E+01  0.00000000E+00  1.23755293E+01
  1.23755293E+01 -2.47510585E+01  0.00000000E+00  1.23755293E+01  1.23755293E+01
 -2.47510585E+01  0.00000000E+00  1.23755293E+01  1.23755293E+01 -2.47510585E+01
  0.00000000E+00  1.23755293E+01  1.23755293E+01 -2.47510585E+01  0.00000000E+00
  1.23755293E+01  1.23755293E+01 -2.47510585E+01  0.00000000E+00  1.23755293E+01
  1.23755293E+01 -2.47510585E+01  0.00000000E+00  1.23755293E+01  1.23755293E+01
 -2.47510585E+01  0.00000000E+00  1.23755293E+01  1.23755293E+01 -2.47510585E+01
  0.00000000E+00  1.23755293E+01  1.23755293E+01 -2.47510585E+01  0.00000000E+00
  1.23755293E+01  1.23755293E+01 -2.47510585E+01  0.00000000E+00  1.23755293E+01
  1.23755293E+01 -2.47510585E+01  0.00000000E+00  1.23755293E+01  1.23755293E+01
 -2.47510585E+01  0.00000000E+00  1.23755293E+01  1.23755293E+01 -2.47510585E+01
  0.00000000E+00  1.23755293E+01  1.23755293E+01 -2.47510585E+01  0.00000000E+00
  1.23755293E+01  1.23755293E+01 -2.47510585E+01  0.00000000E+00  1.23755293E+01
  1.23755293E+01 -2.47510585E+01  0.00000000E+00  1.23755293E+01  1.23755293E+01
 -2.47510585E+01  0.00000000E+00  1.23755293E+01  1.23755293E+01 -2.47510585E+01
  0.00000000E+00  1.23755293E+01  1.23755293E+01 -2.47510585E+01  0.00000000E+00
  1.23755293E+01  1.23755293E+01 -2.47510585E+01  0.00000000E+00  1.23755293E+01
  1.23755293E+01 -2.47510585E+01  0.00000000E+00  1.23755293E+01  1.23755293E+01
 -2.47510585E+01  0.00000000E+00  1.23755293E+01  1.23755293E+01 -2.47510585E+01
  0.00000000E+00  1.23755293E+01  1.23755293E+01 -2.47510585E+01  0.00000000E+00
  1.23755293E+01  1.23755293E+01 -2.47510585E+01  0.00000000E+00  1.23755293E+01
  1.23755293E+01 -2.47510585E+01  0.00000000E+00  1.23755293E+01  1.23755293E+01
 -2.47510585E+01  0.00000000E+00  1.23755293E+01  1.23755293E+01 -2.47510585E+01
  0.00000000E+00  1.23755293E+01  1.23755293E+01 -2.47510585E+01  0.00000000E+00
  1.23755293E+01  1.23755293E+01 -2.47510585E+01  0.00000000E+00  1.23755293E+01
  1.23755293E+01 -2.47510585E+01  0.00000000E+00  1.23755293E+01  1.23755293E+01
 -2.47510585E+01  0.00000000E+00  1.23755293E+01  1.23755293E+01 -2.47510585E+01
  0.00000000E+00  1.23755293E+01  1.23755293E+01 -2.47510585E+01  0.00000000E+00
  1.23755293E+01  1.23755293E+01 -2.47510585E+01  0.00000000E+00  1.23755293E+01
  1.23755293E+01 -2.47510585E+01  0.00000000E+00  1.23755293E+01  1.23755293E+01
 -2.47510585E+01  0.00000000E+00  1.23755293E+01  1.23755293E+01 -2.47510585E+01
  0.00000000E+00  1.23755293E+01  1.23755293E+01 -2.47510585E+01  0.00000000E+00
  1.23755293E+01  1.23755293E+01 -2.47510585E+01  0.00000000E+00  1.23755293E+01
  1.23755293E+01 -2.47510585E+01  0.00000000E+00  1.23755293E+01  1.23755293E+01
 -2.47510585E+01  0.00000000E+00  1.23755293E+01  1.23755293E+01 -2.47510585E+01
  0.00000000E+00  1.23755293E+01  1.23755293E+01 -2.47510585E+01  0.00000000E+00
  1.23755293E+01  1.23755293E+01 -2.47510585E+01  0.00000000E+00  1.23755293E+01
  1.23755293E+01 -2.47510585E+01  0.00000000E+00  1.23755293E+01  1.23755293E+01
 -2.47510585E+01  0.00000000E+00  1.23755293E+01  1.23755293E+01 -2.47510585E+01
  0.00000000E+00  1.23755293E+01  1.23755293E+01 -2.47510585E+01  0.00000000E+00
  1.23755293E+01  1.23755293E+01 -2.47510585E+01  0.00000000E+00  1.23755293E+01
  1.23755293E+01 -2.47510585E+01  0.00000000E+00  1.23755293E+01  1.23755293E+01
 -2.47510585E+01  0.00000000E+00  1.23755293E+01  1.23755293E+01 -2.47510585E+01
  0.00000000E+00  1.23755293E+01  1.23755293E+01 -2.47510585E+01  0.00000000E+00
  1.23755293E+01  1.23755293E+01 -2.47510585E+01  0.00000000E+00  1.23755293E+01
  1.23755293E+01 -2.47510585E+01  0.00000000E+00  1.23755293E+01  1.23755293E+01
 -2.47510585E+01  0.00000000E+00  1.23755293E+01  1.23755293E+01 -2.47510585E+01
  0.00000000E+00  1.23755293E+01  1.23755293E+01 -2.47510585E+01  0.00000000E+00
  1.23755293E+01  1.23755293E+01 -2.47510585E+01  0.00000000E+00  1.23755293E+01
  1.23755293E+01 -2.47510585E+01  0.00000000E+00  1.23755293E+01  1.23755293E+01
 -2.47510585E+01  0.00000000E+00  1.23755293E+01  1.23755293E+01 -2.47510585E+01
  0.00000000E+00  1.23755293E+01  1.23755293E+01 -2.47510585E+01  0.00000000E+00
  1.23755293E+01  1.23755293E+01 -2.47510585E+01  0.00000000E+00  1.23755293E+01
  1.23755293E+01 -2.47510585E+01  0.00000000E+00  1.23755293E+01  1.23755293E+01
 -2.47510585E+01  0.00000000E+00  1.23755293E+01  1.23755293E+01 -2.47510585E+01
  0.00000000E+00  1.23755293E+01  1.23755293E+01 -2.47510585E+01  0.00000000E+00
  1.23755293E+01  1.23755293E+01 -2.47510585E+01  0.00000000E+00  1.23755293E+01
  1.23755293E+01 -2.47510585E+01  0.00000000E+00  1.23755293E+01  1.23755293E+01
 -2.47510585E+01  0.00000000E+00  1.23755293E+01  1.23755293E+01 -2.47510585E+01
  0.00000000E+00  1.23755293E+01  1.23755293E+01 -2.47510585E+01  0.00000000E+00
  1.23755293E+01  1.23755293E+01 -2.47510585E+01  0.00000000E+00  1.23755293E+01
  1.23755293E+01 -2.47510585E+01  0.00000000E+00  1.23755293E+01  1.23755293E+01
 -2.47510585E+01  0.00000000E+00  1.23755293E+01  1.23755293E+01 -2.47510585E+01
  0.00000000E+00  1.23755293E+01  1.23755293E+01 -2.47510585E+01  0.00000000E+00
  1.23755293E+01  1.23755293E+01 -2.47510585E+01  0.00000000E+00  1.23755293E+01
  1.23755293E+01 -2.47510585E+01  0.00000000E+00  1.23755293E+01  1.23755293E+01
 -2.47510585E+01  0.00000000E+00  1.23755293E+01  1.23755293E+01 -2.47510585E+01
  0.00000000E+00  1.23755293E+01  1.23755293E+01 -2.47510585E+01  0.00000000E+00
  1.23755293E+01  1.23755293E+01 -2.47510585E+01  0.00000000E+00  1.23755293E+01
  1.23755293E+01 -2.47510585E+01  0.00000000E+00  1.23755293E+01  1.23755293E+01
 -2.47510585E+01  0.00000000E+00  1.23755293E+01  1.23755293E+01 -2.47510585E+01
  0.00000000E+00  1.23755293E+01  1.23755293E+01 -2.47510585E+01  0.00000000E+00
  1.23755293E+01  1.23755293E+01 -2.47510585E+01  0.00000000E+00  1.23755293E+01
  1.23755293E+01 -2.47510585E+01  0.00000000E+00  1.23755293E+01  1.23755293E+01
 -2.47510585E+01  0.00000000E+00  1.23755293E+01  1.23755293E+01 -2.47510585E+01
  0.00000000E+00  1.23755293E+01  1.23755293E+01 -2.47510585E+01  0.00000000E+00
  1.23755293E+01  1.23755293E+01 -2.47510585E+01  0.00000000E+00  1.23755293E+01
  1.23755293E+01 -2.47510585E+01  0.00000000E+00  1.23755293E+01  1.23755293E+01
 -2.47510585E+01  0.00000000E+00  1.23755293E+01  1.23755293E+01 -2.47510585E+01
  0.00000000E+00  1.23755293E+01  1.23755293E+01 -2.47510585E+01  0.00000000E+00
  1.23755293E+01  1.23755293E+01 -2.47510585E+01  0.00000000E+00  1.23755293E+01
  1.23755293E+01 -2.47510585E+01  0.00000000E+00  1.23755293E+01  1.23755293E+01
 -2.47510585E+01  0.00000000E+00  1.23755293E+01  1.23755293E+01 -2.47510585E+01
  0.00000000E+00  1.23755293E+01  1.23755293E+01 -2.47510585E+01  0.00000000E+00
  1.23755293E+01  1.23755293E+01 -2.47510585E+01  0.00000000E+00  1.23755293E+01
  1.23755293E+01 -2.47510585E+01  0.00000000E+00  1.23755293E+01  1.23755293E+01
 -2.47510585E+01  0.00000000E+00  1.23755293E+01  1.23755293E+01 -2.47510585E+01
  0.00000000E+00  1.23755293E+01  1.23755293E+01 -2.47510585E+01  0.00000000E+00
  1.23755293E+01  1.23755293E+01 -2.47510585E+01  0.00000000E+00  1.23755293E+01
  1.23755293E+01 -2.47510585E+01  0.00000000E+00  1.23755293E+01  1.23755293E+01
 -2.47510585E+01  0.00000000E+00  1.23755293E+01  1.23755293E+01 -2.47510585E+01
  0.00000000E+00  1.23755293E+01  1.23755293E+01 -2.47510585E+01  0.00000000E+00
  1.23755293E+01  1.23755293E+01 -2.47510585E+01  0.00000000E+00  1.23755293E+01
  1.23755293E+01 -2.47510585E+01  0.00000000E+00  1.23755293E+01  1.23755293E+01
 -2.47510585E+01  0.00000000E+00  1.23755293E+01  1.23755293E+01 -2.47510585E+01
  0.00000000E+00  1.23755293E+01  1.23755293E+01 -2.47510585E+01  0.00000000E+00
  1.23755293E+01  1.23755293E+01 -2.47510585E+01  0.00000000E+00  1.23755293E+01
  1.23755293E+01 -2.47510585E+01  0.00000000E+00  1.23755293E+01  1.23755293E+01
 -2.47510585E+01  0.00000000E+00  1.23755293E+01  1.23755293E+01 -2.47510585E+01
  0.00000000E+00  1.23755293E+01  1.23755293E+01 -2.47510585E+01  0.00000000E+00
  1.23755293E+01  1.23755293E+01 -2.47510585E+01  0.00000000E+00  1.23755293E+01
  1.23755293E+01 -2.47510585E+01  0.00000000E+00  1.23755293E+01  1.23755293E+01
 -2.47510585E+01  0.00000000E+00  1.23755293E+01  1.23755293E+01 -2.47510585E+01
  0.00000000E+00  1.23755293E+01  1.23755293E+01 -2.47510585E+01  0.00000000E+00
  1.23755293E+01  1.23755293E+01 -2.47510585E+01  0.00000000E+00  1.23755293E+01
  1.23755293E+01 -2.47510585E+01  0.00000000E+00  1.23755293E+01  1.23755293E+01
 -2.47510585E+01  0.00000000E+00  1.23755293E+01  1.23755293E+01 -2.47510585E+01
  0.00000000E+00  1.23755293E+01  1.23755293E+01 -2.47510585E+01  0.00000000E+00
  1.23755293E+01  1.23755293E+01 -2.47510585E+01  0.00000000E+00  1.23755293E+01
  1.23755293E+01 -2.47510585E+01  0.00000000E+00  1.23755293E+01  1.23755293E+01
 -2.47510585E+01  0.00000000E+00  1.23755293E+01  1.23755293E+01 -2.47510585E+01
  0.00000000E+00  1.23755293E+01  1.23755293E+01 -2.47510585E+01  0.00000000E+00
  1.23755293E+01  1.23755293E+01 -2.47510585E+01  0.00000000E+00  1.23755293E+01
  1.23755293E+01 -2.47510585E+01  0.00000000E+00  1.23755293E+01  1.23755293E+01
 -2.47510585E+01  0.00000000E+00  1.23755293E+01  1.23755293E+01 -2.47510585E+01
  0.00000000E+00  1.23755293E+01  1.23755293E+01 -2.47510585E+01  0.00000000E+00
  1.23755293E+01  1.23755293E+01 -2.47510585E+01  0.00000000E+00  1.23755293E+01
  1.23755293E+01 -2.47510585E+01  0.00000000E+00  1.23755293E+01  1.23755293E+01
 -2.47510585E+01  0.00000000E+00  1.23755293E+01  1.23755293E+01 -2.47510585E+01
  0.00000000E+00  1.23755293E+01  1.23755293E+01 -2.47510585E+01  0.00000000E+00
  1.23755293E+01  1.23755293E+01 -2.47510585E+01  0.00000000E+00  1.23755293E+01
  1.23755293E+01 -2.47510585E+01  0.00000000E+00  1.23755293E+01  1.23755293E+01
 -2.47510585E+01  0.00000000E+00  1.23755293E+01  1.23755293E+01 -2.47510585E+01
  0.00000000E+00  1.23755293E+01  1.23755293E+01 -2.47510585E+01  0.00000000E+00
  1.23755293E+01  1.23755293E+01 -2.47510585E+01  0.00000000E+00  1.23755293E+01
  1.23755293E+01 -2.47510585E+01  0.00000000E+00  1.23755293E+01  1.23755293E+01
 -2.47510585E+01  0.00000000E+00  1.23755293E+01  1.23755293E+01 -2.47510585E+01
  0.00000000E+00  1.23755293E+01  1.23755293E+01 -2.47510585E+01  0.00000000E+00
  1.23755293E+01  1.23755293E+01 -2.47510585E+01  0.00000000E+00  1.23755293E+01
  1.23755293E+01 -2.47510585E+01  0.00000000E+00  1.23755293E+01  1.23755293E+01
 -2.47510585E+01  0.00000000E+00  1.23755293E+01  1.23755293E+01 -2.47510585E+01
  0.00000000E+00  1.23755293E+01  1.23755293E+01 -2.47510585E+01  0.00000000E+00
  1.23755293E+01  1.23755293E+01 -2.47510585E+01  0.00000000E+00  1.23755293E+01
  1.23755293E+01 -2.47510585E+01  0.00000000E+00  1.23755293E+01  1.23755293E+01
 -2.47510585E+01  0.00000000E+00  1.23755293E+01  1.23755293E+01 -2.47510585E+01
  0.00000000E+00  1.23755293E+01  1.23755293E+01 -2.47510585E+01  0.00000000E+00
  1.23755293E+01  1.23755293E+01 -2.47510585E+01  0.00000000E+00  1.23755293E+01
  1.23755293E+01 -2.47510585E+01  0.00000000E+00  1.23755293E+01  1.23755293E+01
 -2.47510585E+01  0.00000000E+00  1.23755293E+01  1.23755293E+01 -2.47510585E+01
  0.00000000E+00  1.23755293E+01  1.23755293E+01 -2.47510585E+01  0.00000000E+00
  1.23755293E+01  1.23755293E+01 -2.47510585E+01  0.00000000E+00  1.23755293E+01
  1.23755293E+01 -2.47510585E+01  0.00000000E+00  1.23755293E+01  1.23755293E+01
 -2.47510585E+01  0.00000000E+00  1.23755293E+01  1.23755293E+01 -2.47510585E+01
  0.00000000E+00  1.23755293E+01  1.23755293E+01 -2.47510585E+01  0.00000000E+00
  1.23755293E+01  1.23755293E+01 -2.47510585E+01  0.00000000E+00  1.23755293E+01
  1.23755293E+01 -2.47510585E+01  0.00000000E+00  1.23755293E+01  1.23755293E+01
 -2.47510585E+01  0.00000000E+00  1.23755293E+01  1.23755293E+01 -2.47510585E+01
  0.00000000E+00  1.23755293E+01  1.23755293E+01 -2.47510585E+01  0.00000000E+00
  1.23755293E+01  1.23755293E+01 -2.47510585E+01  0.00000000E+00  1.23755293E+01
  1.23755293E+01 -2.47510585E+01  0.00000000E+00  1.23755293E+01  1.23755293E+01
 -2.47510585E+01  0.00000000E+00  1.23755293E+01  1.23755293E+01 -2.47510585E+01
  0.00000000E+00  1.23755293E+01  1.23755293E+01 -2.47510585E+01  0.00000000E+00
  1.23755293E+01  1.23755293E+01 -2.47510585E+01  0.00000000E+00  1.23755293E+01
  1.23755293E+01 -2.47510585E+01  0.00000000E+00  1.23755293E+01  1.23755293E+01
 -2.47510585E+01  0.00000000E+00  1.23755293E+01  1.23755293E+01 -2.47510585E+01
  0.00000000E+00  1.23755293E+01  1.23755293E+01 -2.47510585E+01  0.00000000E+00
  1.23755293E+01  1.23755293E+01 -2.47510585E+01  0.00000000E+00  1.23755293E+01
  1.23755293E+01 -2.47510585E+01  0.00000000E+00  1.23755293E+01  1.23755293E+01
 -2.47510585E+01  0.00000000E+00  1.23755293E+01  1.23755293E+01 -2.47510585E+01
  0.00000000E+00  1.23755293E+01  1.23755293E+01 -2.47510585E+01  0.00000000E+00
  1.23755293E+01  1.23755293E+01 -2.47510585E+01  0.00000000E+00  1.23755293E+01
  1.23755293E+01 -2.47510585E+01  0.00000000E+00  1.23755293E+01  1.23755293E+01
 -2.47510585E+01  0.00000000E+00  1.23755293E+01  1.23755293E+01 -2.47510585E+01
  0.00000000E+00  1.23755293E+01  1.23755293E+01 -2.47510585E+01  0.00000000E+00
  1.23755293E+01  1.23755293E+01 -2.47510585E+01  0.00000000E+00  1.23755293E+01
  1.23755293E+01 -2.47510585E+01  0.00000000E+00  1.23755293E+01  1.23755293E+01
 -2.47510585E+01  0.00000000E+00  1.23755293E+01  1.23755293E+01 -2.47510585E+01
  0.00000000E+00  1.23755293E+01  1.23755293E+01 -2.47510585E+01  0.00000000E+00
  1.23755293E+01  1.23755293E+01 -2.47510585E+01  0.00000000E+00  1.23755293E+01
  1.23755293E+01 -2.47510585E+01  0.00000000E+00  1.23755293E+01  1.23755293E+01
 -2.47510585E+01  0.00000000E+00  1.23755293E+01  1.23755293E+01 -2.47510585E+01
  0.00000000E+00  1.23755293E+01  1.23755293E+01 -2.47510585E+01  0.00000000E+00
  1.23755293E+01  1.23755293E+01 -2.47510585E+01  0.00000000E+00  1.23755293E+01
  1.23755293E+01 -2.47510585E+01  0.00000000E+00  1.23755293E+01  1.23755293E+01
 -2.47510585E+01  0.00000000E+00  1.23755293E+01  1.23755293E+01 -2.47510585E+01
  0.00000000E+00  1.23755293E+01  1.23755293E+01 -2.47510585E+01  0.00000000E+00
  1.23755293E+01  1.23755293E+01 -2.47510585E+01  0.00000000E+00  1.23755293E+01
  1.23755293E+01 -2.47510585E+01  0.00000000E+00  1.23755293E+01  1.23755293E+01
 -2.47510585E+01  0.00000000E+00  1.23755293E+01  1.23755293E+01 -2.47510585E+01
  0.00000000E+00  1.23755293E+01  1.23755293E+01 -2.47510585E+01  0.00000000E+00
  1.23755293E+01  1.23755293E+01 -2.47510585E+01  0.00000000E+00  1.23755293E+01
  1.23755293E+01 -2.47510585E+01  0.00000000E+00  1.23755293E+01  1.23755293E+01
 -2.47510585E+01  0.00000000E+00  1.23755293E+01  1.23755293E+01 -2.47510585E+01
  0.00000000E+00  1.23755293E+01  1.23755293E+01 -2.47510585E+01  0.00000000E+00
  1.23755293E+01  1.23755293E+01 -2.47510585E+01  0.00000000E+00  1.23755293E+01
  1.23755293E+01 -2.47510585E+01  0.00000000E+00  1.23755293E+01  1.23755293E+01
 -2.47510585E+01  0.00000000E+00  1.23755293E+01  1.23755293E+01 -2.47510585E+01
  0.00000000E+00  1.23755293E+01  1.23755293E+01 -2.47510585E+01  0.00000000E+00
  1.23755293E+01  1.23755293E+01 -2.47510585E+01  0.00000000E+00  1.23755293E+01
  1.23755293E+01 -2.47510585E+01  0.00000000E+00  1.23755293E+01  1.23755293E+01
 -2.47510585E+01  0.00000000E+00  1.23755293E+01  1.23755293E+01 -2.47510585E+01
  0.00000000E+00  1.23755293E+01  1.23755293E+01 -2.47510585E+01  0.00000000E+00
  1.23755293E+01  1.23755293E+01 -2.47510585E+01  0.00000000E+00  1.23755293E+01
  1.23755293E+01 -2.47510585E+01  0.00000000E+00  1.23755293E+01  1.23755293E+01
 -2.47510585E+01  0.00000000E+00  1.23755293E+01  1.23755293E+01 -2.47510585E+01
  0.00000000E+00  1.23755293E+01  1.23755293E+01 -2.47510585E+01  0.00000000E+00
  1.23755293E+01  1.23755293E+01 -2.47510585E+01  0.00000000E+00  1.23755293E+01
  1.23755293E+01 -2.47510585E+01  0.00000000E+00  1.23755293E+01  1.23755293E+01
 -2.47510585E+01  0.00000000E+00  1.23755293E+01  1.23755293E+01 -2.47510585E+01
  0.00000000E+00  1.23755293E+01  1.23755293E+01 -2.47510585E+01  0.00000000E+00
  1.23755293E+01  1.23755293E+01 -2.47510585E+01  0.00000000E+00  1.23755293E+01
  1.23755293E+01 -2.47510585E+01  0.00000000E+00  1.23755293E+01  1.23755293E+01
 -2.47510585E+01  0.00000000E+00  1.23755293E+01  1.23755293E+01 -2.47510585E+01
  0.00000000E+00  1.23755293E+01  1.23755293E+01 -2.47510585E+01  0.00000000E+00
  1.23755293E+01  1.23755293E+01 -2.47510585E+01  0.00000000E+00  1.23755293E+01
  1.23755293E+01 -2.47510585E+01  0.00000000E+00  1.23755293E+01  1.23755293E+01
 -2.47510585E+01  0.00000000E+00  1.23755293E+01  1.23755293E+01 -2.47510585E+01
  0.00000000E+00  1.23755293E+01  1.23755293E+01 -2.47510585E+01  0.00000000E+00
  1.23755293E+01  1.23755293E+01 -2.47510585E+01  0.00000000E+00  1.23755293E+01
  1.23755293E+01 -2.47510585E+01  0.00000000E+00  1.23755293E+01  1.23755293E+01
 -2.47510585E+01  0.00000000E+00  1.23755293E+01  1.23755293E+01 -2.47510585E+01
  0.00000000E+00  1.23755293E+01  1.23755293E+01 -2.47510585E+01  0.00000000E+00
  1.23755293E+01  1.23755293E+01 -2.47510585E+01  0.00000000E+00  1.23755293E+01
  1.23755293E+01 -2.47510585E+01  0.00000000E+00  1.23755293E+01  1.23755293E+01
 -2.47510585E+01  0.00000000E+00  1.23755293E+01  1.23755293E+01 -2.47510585E+01
  0.00000000E+00  1.23755293E+01  1.23755293E+01 -2.47510585E+01  0.00000000E+00
  1.23755293E+01  1.23755293E+01 -2.47510585E+01  0.00000000E+00  1.23755293E+01
  1.23755293E+01 -2.47510585E+01  0.00000000E+00  1.23755293E+01  1.23755293E+01
 -2.47510585E+01  0.00000000E+00  1.23755293E+01  1.23755293E+01 -2.47510585E+01
  0.00000000E+00  1.23755293E+01  1.23755293E+01 -2.47510585E+01  0.00000000E+00
  1.23755293E+01  1.23755293E+01 -2.47510585E+01  0.00000000E+00  1.23755293E+01
  1.23755293E+01 -2.47510585E+01  0.00000000E+00  1.23755293E+01  1.23755293E+01
 -2.47510585E+01  0.00000000E+00  1.23755293E+01  1.23755293E+01 -2.47510585E+01
  0.00000000E+00  1.23755293E+01  1.23755293E+01 -2.47510585E+01  0.00000000E+00
  1.23755293E+01  1.23755293E+01 -2.47510585E+01  0.00000000E+00  1.23755293E+01
  1.23755293E+01 -2.47510585E+01  0.00000000E+00  1.23755293E+01  1.23755293E+01
 -2.47510585E+01  0.00000000E+00  1.23755293E+01  1.23755293E+01 -2.47510585E+01
  0.00000000E+00  1.23755293E+01  1.23755293E+01 -2.47510585E+01  0.00000000E+00
  1.23755293E+01  1.23755293E+01 -2.47510585E+01  0.00000000E+00  1.23755293E+01
  1.23755293E+01 -2.47510585E+01  0.00000000E+00  1.23755293E+01  1.23755293E+01
 -2.47510585E+01  0.00000000E+00  1.23755293E+01  1.23755293E+01 -2.47510585E+01
  0.00000000E+00  1.23755293E+01  1.23755293E+01 -2.47510585E+01  0.00000000E+00
  1.23755293E+01  1.23755293E+01 -2.47510585E+01  0.00000000E+00  1.23755293E+01
  1.23755293E+01 -2.47510585E+01  0.00000000E+00  1.23755293E+01  1.23755293E+01
 -2.47510585E+01  0.00000000E+00  1.23755293E+01  1.23755293E+01 -2.47510585E+01
  0.00000000E+00  1.23755293E+01  1.23755293E+01 -2.47510585E+01  0.00000000E+00
  1.23755293E+01  1.23755293E+01 -2.47510585E+01  0.00000000E+00  1.23755293E+01
  1.23755293E+01 -2.47510585E+01  0.00000000E+00  1.23755293E+01  1.23755293E+01
 -2.47510585E+01  0.00000000E+00  1.23755293E+01  1.23755293E+01 -2.47510585E+01
  0.00000000E+00  1.23755293E+01  1.23755293E+01 -2.47510585E+01  0.00000000E+00
  1.23755293E+01  1.23755293E+01 -2.47510585E+01  0.00000000E+00  1.23755293E+01
  1.23755293E+01 -2.47510585E+01  0.00000000E+00  1.23755293E+01  1.23755293E+01
 -2.47510585E+01  0.00000000E+00  1.23755293E+01  1.23755293E+01 -2.47510585E+01
  0.00000000E+00  1.23755293E+01  1.23755293E+01 -2.47510585E+01  0.00000000E+00
  1.23755293E+01  1.23755293E+01 -2.47510585E+01  0.00000000E+00  1.23755293E+01
  1.23755293E+01 -2.47510585E+01  0.00000000E+00  1.23755293E+01  1.23755293E+01
 -2.47510585E+01  0.00000000E+00  1.23755293E+01  1.23755293E+01 -2.47510585E+01
  0.00000000E+00  1.23755293E+01  1.23755293E+01 -2.47510585E+01  0.00000000E+00
  1.23755293E+01  1.23755293E+01 -2.47510585E+01  0.00000000E+00  1.23755293E+01
  1.23755293E+01 -2.47510585E+01  0.00000000E+00  1.23755293E+01  1.23755293E+01
 -2.47510585E+01  0.00000000E+00  1.23755293E+01  1.23755293E+01 -2.47510585E+01
  0.00000000E+00  1.23755293E+01  1.23755293E+01 -2.47510585E+01  0.00000000E+00
  1.23755293E+01  1.23755293E+01 -2.47510585E+01  0.00000000E+00  1.23755293E+01
  1.23755293E+01 -2.47510585E+01  0.00000000E+00  1.23755293E+01  1.23755293E+01
 -2.47510585E+01  0.00000000E+00  1.23755293E+01  1.23755293E+01 -2.47510585E+01
  0.00000000E+00  1.23755293E+01  1.23755293E+01 -2.47510585E+01  0.00000000E+00
  1.23755293E+01  1.23755293E+01 -2.47510585E+01  0.00000000E+00  1.23755293E+01
  1.23755293E+01 -2.47510585E+01  0.00000000E+00  1.23755293E+01  1.23755293E+01
 -2.47510585E+01  0.00000000E+00  1.23755293E+01  1.23755293E+01 -2.47510585E+01
  0.00000000E+00  1.23755293E+01  1.23755293E+01 -2.47510585E+01  0.00000000E+00
  1.23755293E+01  1.23755293E+01 -2.47510585E+01  0.00000000E+00  1.23755293E+01
  1.23755293E+01 -2.47510585E+01  0.00000000E+00  1.23755293E+01  1.23755293E+01
 -2.47510585E+01  0.00000000E+00  1.23755293E+01  1.23755293E+01 -2.47510585E+01
  0.00000000E+00  1.23755293E+01  1.23755293E+01 -2.47510585E+01  0.00000000E+00
  1.23755293E+01  1.23755293E+01 -2.47510585E+01  0.00000000E+00  1.23755293E+01
  1.23755293E+01 -2.47510585E+01  0.00000000E+00  1.23755293E+01  1.23755293E+01
 -2.47510585E+01  0.00000000E+00  1.23755293E+01  1.23755293E+01 -2.47510585E+01
  0.00000000E+00  1.23755293E+01  1.23755293E+01 -2.47510585E+01  0.00000000E+00
  1.23755293E+01  1.23755293E+01 -2.47510585E+01  0.00000000E+00  1.23755293E+01
  1.23755293E+01 -2.47510585E+01  0.00000000E+00  1.23755293E+01  1.23755293E+01
 -2.47510585E+01  0.00000000E+00  1.23755293E+01  1.23755293E+01 -2.47510585E+01
  0.00000000E+00  1.23755293E+01  1.23755293E+01 -2.47510585E+01  0.00000000E+00
  1.23755293E+01  1.23755293E+01 -2.47510585E+01  0.00000000E+00  1.23755293E+01
  1.23755293E+01 -2.47510585E+01  0.00000000E+00  1.23755293E+01  1.23755293E+01
 -2.47510585E+01  0.00000000E+00  1.23755293E+01  1.23755293E+01 -2.47510585E+01
  0.00000000E+00  1.23755293E+01  1.23755293E+01 -2.47510585E+01  0.00000000E+00
  1.23755293E+01  1.23755293E+01 -2.47510585E+01  0.00000000E+00  1.23755293E+01
  1.23755293E+01 -2.47510585E+01  0.00000000E+00  1.23755293E+01  1.23755293E+01
 -2.47510585E+01  0.00000000E+00  1.23755293E+01  1.23755293E+01 -2.47510585E+01
  0.00000000E+00  1.23755293E+01  1.23755293E+01 -2.47510585E+01  0.00000000E+00
  1.23755293E+01  1.23755293E+01 -2.47510585E+01  0.00000000E+00  1.23755293E+01
  1.23755293E+01 -2.47510585E+01  0.00000000E+00  1.23755293E+01  1.23755293E+01
 -2.47510585E+01  0.00000000E+00  1.23755293E+01  1.23755293E+01 -2.47510585E+01
  0.00000000E+00  1.23755293E+01  1.23755293E+01 -2.47510585E+01  0.00000000E+00
  1.23755293E+01  1.23755293E+01 -2.47510585E+01  0.00000000E+00  1.23755293E+01
  1.23755293E+01 -2.47510585E+01  0.00000000E+00  1.23755293E+01  1.23755293E+01
 -2.47510585E+01  0.00000000E+00  1.23755293E+01  1.23755293E+01 -2.47510585E+01
  0.00000000E+00  1.23755293E+01  1.23755293E+01 -2.47510585E+01  0.00000000E+00
  1.23755293E+01  1.23755293E+01 -2.47510585E+01  0.00000000E+00  1.23755293E+01
  1.23755293E+01 -2.47510585E+01  0.00000000E+00  1.23755293E+01  1.23755293E+01
 -2.47510585E+01  0.00000000E+00  1.23755293E+01  1.23755293E+01 -2.47510585E+01
  0.00000000E+00  1.23755293E+01  1.23755293E+01 -2.47510585E+01  0.00000000E+00
  1.23755293E+01  1.23755293E+01 -2.47510585E+01  0.00000000E+00  1.23755293E+01
  1.23755293E+01 -2.47510585E+01  0.00000000E+00  1.23755293E+01  1.23755293E+01
 -2.47510585E+01  0.00000000E+00  1.23755293E+01  1.23755293E+01 -2.47510585E+01
  0.00000000E+00  1.23755293E+01  1.23755293E+01 -2.47510585E+01  0.00000000E+00
  1.23755293E+01  1.23755293E+01 -2.47510585E+01  0.00000000E+00  1.23755293E+01
  1.23755293E+01 -2.47510585E+01  0.00000000E+00  1.23755293E+01  1.23755293E+01
 -2.47510585E+01  0.00000000E+00  1.23755293E+01  1.23755293E+01 -2.47510585E+01
  0.00000000E+00  1.23755293E+01  1.23755293E+01 -2.47510585E+01  0.00000000E+00
  1.23755293E+01  1.23755293E+01 -2.47510585E+01  0.00000000E+00  1.23755293E+01
  1.23755293E+01 -2.47510585E+01  0.00000000E+00  1.23755293E+01  1.23755293E+01
 -2.47510585E+01  0.00000000E+00  1.23755293E+01  1.23755293E+01 -2.47510585E+01
  0.00000000E+00  1.23755293E+01  1.23755293E+01 -2.47510585E+01  0.00000000E+00
  1.23755293E+01  1.23755293E+01 -2.47510585E+01  0.00000000E+00  1.23755293E+01
  1.23755293E+01 -2.47510585E+01  0.00000000E+00  1.23755293E+01  1.23755293E+01
 -2.47510585E+01  0.00000000E+00  1.23755293E+01  1.23755293E+01 -2.47510585E+01
  0.00000000E+00  1.23755293E+01  1.23755293E+01 -2.47510585E+01  0.00000000E+00
  1.23755293E+01  1.23755293E+01 -2.47510585E+01  0.00000000E+00  1.23755293E+01
  1.23755293E+01 -2.47510585E+01  0.00000000E+00  1.23755293E+01  1.23755293E+01
 -2.47510585E+01  0.00000000E+00  1.23755293E+01  1.23755293E+01 -2.47510585E+01
  0.00000000E+00  1.23755293E+01  1.23755293E+01 -2.47510585E+01  0.00000000E+00
  1.23755293E+01  1.23755293E+01 -2.47510585E+01  0.00000000E+00  1.23755293E+01
  1.23755293E+01 -2.47510585E+01  0.00000000E+00  1.23755293E+01  1.23755293E+01
 -2.47510585E+01  0.00000000E+00  1.23755293E+01  1.23755293E+01 -2.47510585E+01
  0.00000000E+00  1.23755293E+01  1.23755293E+01 -2.47510585E+01  0.00000000E+00
  1.23755293E+01  1.23755293E+01 -2.47510585E+01  0.00000000E+00  1.23755293E+01
  1.23755293E+01 -2.47510585E+01  0.00000000E+00  1.23755293E+01  1.23755293E+01
 -2.47510585E+01  0.00000000E+00  1.23755293E+01  1.23755293E+01 -2.47510585E+01
  0.00000000E+00  1.23755293E+01  1.23755293E+01 -2.47510585E+01  0.00000000E+00
  1.23755293E+01  1.23755293E+01 -2.47510585E+01  0.00000000E+00  1.23755293E+01
  1.23755293E+01 -2.47510585E+01  0.00000000E+00  1.23755293E+01  1.23755293E+01
 -2.47510585E+01  0.00000000E+00  1.23755293E+01  1.23755293E+01 -2.47510585E+01
  0.00000000E+00  1.23755293E+01  1.23755293E+01 -2.47510585E+01  0.00000000E+00
  1.23755293E+01  1.23755293E+01 -2.47510585E+01  0.00000000E+00  1.23755293E+01
  1.23755293E+01 -2.47510585E+01  0.00000000E+00  1.23755293E+01  1.23755293E+01
 -2.47510585E+01  0.00000000E+00  1.23755293E+01  1.23755293E+01 -2.47510585E+01
  0.00000000E+00  1.23755293E+01  1.23755293E+01 -2.47510585E+01  0.00000000E+00
  1.23755293E+01  1.23755293E+01 -2.47510585E+01  0.00000000E+00  1.23755293E+01
  1.23755293E+01 -2.47510585E+01  0.00000000E+00  1.23755293E+01  1.23755293E+01
 -2.47510585E+01  0.00000000E+00  1.23755293E+01  1.23755293E+01 -2.47510585E+01
  0.00000000E+00  1.23755293E+01  1.23755293E+01 -2.47510585E+01  0.00000000E+00
  1.23755293E+01  1.23755293E+01 -2.47510585E+01  0.00000000E+00  1.23755293E+01
  1.23755293E+01 -2.47510585E+01  0.00000000E+00  1.23755293E+01  1.23755293E+01
 -2.47510585E+01  0.00000000E+00  1.23755293E+01  1.23755293E+01 -2.47510585E+01
  0.00000000E+00  1.23755293E+01  1.23755293E+01 -2.47510585E+01  0.00000000E+00
  1.23755293E+01  1.23755293E+01 -2.47510585E+01  0.00000000E+00  1.23755293E+01
  1.23755293E+01 -2.47510585E+01  0.00000000E+00  1.23755293E+01  1.23755293E+01
 -2.47510585E+01  0.00000000E+00  1.23755293E+01  1.23755293E+01 -2.47510585E+01
  0.00000000E+00  1.23755293E+01  1.23755293E+01 -2.47510585E+01  0.00000000E+00
  1.23755293E+01  1.23755293E+01 -2.47510585E+01  0.00000000E+00  1.23755293E+01
  1.23755293E+01 -2.47510585E+01  0.00000000E+00  1.23755293E+01  1.23755293E+01
 -2.47510585E+01  0.00000000E+00  1.23755293E+01  1.23755293E+01 -2.47510585E+01
  0.00000000E+00  1.23755293E+01  1.23755293E+01 -2.47510585E+01  0.00000000E+00
  1.23755293E+01  1.23755293E+01 -2.47510585E+01  0.00000000E+00  1.23755293E+01
  1.23755293E+01 -2.47510585E+01  0.00000000E+00  1.23755293E+01  1.23755293E+01
 -2.47510585E+01  0.00000000E+00  1.23755293E+01  1.23755293E+01 -2.47510585E+01
  0.00000000E+00  1.23755293E+01  1.23755293E+01 -2.47510585E+01  0.00000000E+00
  1.23755293E+01  1.23755293E+01 -2.47510585E+01  0.00000000E+00  1.23755293E+01
  1.23755293E+01 -2.47510585E+01  0.00000000E+00  1.23755293E+01  1.23755293E+01
 -2.47510585E+01  0.00000000E+00  1.23755293E+01  1.23755293E+01 -2.47510585E+01
  0.00000000E+00  1.23755293E+01  1.23755293E+01 -2.47510585E+01  0.00000000E+00
  1.23755293E+01  1.23755293E+01 -2.47510585E+01  0.00000000E+00  1.23755293E+01
  1.23755293E+01 -2.47510585E+01  0.00000000E+00  1.23755293E+01  1.23755293E+01
 -2.47510585E+01  0.00000000E+00  1.23755293E+01  1.23755293E+01 -2.47510585E+01
  0.00000000E+00  1.23755293E+01  1.23755293E+01 -2.47510585E+01  0.00000000E+00
  1.23755293E+01  1.23755293E+01 -2.47510585E+01  0.00000000E+00  1.23755293E+01
  1.23755293E+01 -2.47510585E+01  0.00000000E+00  1.23755293E+01  1.23755293E+01
 -2.47510585E+01  0.00000000E+00  1.23755293E+01  1.23755293E+01 -2.47510585E+01
  0.00000000E+00  1.23755293E+01  1.23755293E+01 -2.47510585E+01  0.00000000E+00
  1.23755293E+01  1.23755293E+01 -2.47510585E+01  0.00000000E+00  1.23755293E+01
  1.23755293E+01 -2.47510585E+01  0.00000000E+00  1.23755293E+01  1.23755293E+01
 -2.47510585E+01  0.00000000E+00  1.23755293E+01  1.23755293E+01 -2.47510585E+01
  0.00000000E+00  1.23755293E+01  1.23755293E+01 -2.47510585E+01  0.00000000E+00
  1.23755293E+01  1.23755293E+01 -2.47510585E+01  0.00000000E+00  1.23755293E+01
  1.23755293E+01 -2.47510585E+01  0.00000000E+00  1.23755293E+01  1.23755293E+01
 -2.47510585E+01  0.00000000E+00  1.23755293E+01  1.23755293E+01 -2.47510585E+01
  0.00000000E+00  1.23755293E+01  1.23755293E+01 -2.47510585E+01  0.00000000E+00
  1.23755293E+01  1.23755293E+01 -2.47510585E+01  0.00000000E+00  1.23755293E+01
  1.23755293E+01 -2.47510585E+01  0.00000000E+00  1.23755293E+01  1.23755293E+01
 -2.47510585E+01  0.00000000E+00  1.23755293E+01  1.23755293E+01 -2.47510585E+01
  0.00000000E+00  1.23755293E+01  1.23755293E+01 -2.47510585E+01  0.00000000E+00
  1.23755293E+01  1.23755293E+01 -2.47510585E+01  0.00000000E+00  1.23755293E+01
  1.23755293E+01 -2.47510585E+01  0.00000000E+00  1.23755293E+01  1.23755293E+01
 -2.47510585E+01  0.00000000E+00  1.23755293E+01  1.23755293E+01 -2.47510585E+01
  0.00000000E+00  1.23755293E+01  1.23755293E+01 -2.47510585E+01  0.00000000E+00
  1.23755293E+01  1.23755293E+01 -2.47510585E+01  0.00000000E+00  1.23755293E+01
  1.23755293E+01 -2.47510585E+01  0.00000000E+00  1.23755293E+01  1.23755293E+01
 -2.47510585E+01  0.00000000E+00  1.23755293E+01  1.23755293E+01 -2.47510585E+01
  0.00000000E+00  1.23755293E+01  1.23755293E+01 -2.47510585E+01  0.00000000E+00
  1.23755293E+01  1.23755293E+01 -2.47510585E+01  0.00000000E+00  1.23755293E+01
  1.23755293E+01 -2.47510585E+01  0.00000000E+00  1.23755293E+01  1.23755293E+01
 -2.47510585E+01  0.00000000E+00  1.23755293E+01  1.23755293E+01 -2.47510585E+01
  0.00000000E+00  1.23755293E+01  1.23755293E+01 -2.47510585E+01  0.00000000E+00
  1.23755293E+01  1.23755293E+01 -2.47510585E+01  0.00000000E+00  1.23755293E+01
  1.23755293E+01 -2.47510585E+01  0.00000000E+00  1.23755293E+01  1.23755293E+01
 -2.47510585E+01  0.00000000E+00  1.23755293E+01  1.23755293E+01 -2.47510585E+01
  0.00000000E+00  1.23755293E+01  1.23755293E+01 -2.47510585E+01  0.00000000E+00
  1.23755293E+01  1.23755293E+01 -2.47510585E+01  0.00000000E+00  1.23755293E+01
  1.23755293E+01 -2.47510585E+01  0.00000000E+00  1.23755293E+01  1.23755293E+01
 -2.47510585E+01  0.00000000E+00  1.23755293E+01  1.23755293E+01 -2.47510585E+01
  0.00000000E+00  1.23755293E+01  1.23755293E+01 -2.47510585E+01  0.00000000E+00
  1.23755293E+01  1.23755293E+01 -2.47510585E+01  0.00000000E+00  1.23755293E+01
  1.23755293E+01 -2.47510585E+01  0.00000000E+00  1.23755293E+01  1.23755293E+01
 -2.47510585E+01  0.00000000E+00  1.23755293E+01  1.23755293E+01 -2.47510585E+01
  0.00000000E+00  1.23755293E+01  1.23755293E+01 -2.47510585E+01  0.00000000E+00
  1.23755293E+01  1.23755293E+01 -2.47510585E+01  0.00000000E+00  1.23755293E+01
  1.23755293E+01 -2.47510585E+01  0.00000000E+00  1.23755293E+01  1.23755293E+01
 -2.47510585E+01  0.00000000E+00  1.23755293E+01  1.23755293E+01 -2.47510585E+01
  0.00000000E+00  1.23755293E+01  1.23755293E+01 -2.47510585E+01  0.00000000E+00
  1.23755293E+01  1.23755293E+01 -2.47510585E+01  0.00000000E+00  1.23755293E+01
  1.23755293E+01 -2.47510585E+01  0.00000000E+00  1.23755293E+01  1.23755293E+01
 -2.47510585E+01  0.00000000E+00  1.23755293E+01  1.23755293E+01 -2.47510585E+01
  0.00000000E+00  1.23755293E+01  1.23755293E+01 -2.47510585E+01  0.00000000E+00
  1.23755293E+01  1.23755293E+01 -2.47510585E+01  0.00000000E+00  1.23755293E+01
  1.23755293E+01 -2.47510585E+01  0.00000000E+00  1.23755293E+01  1.23755293E+01
 -2.47510585E+01  0.00000000E+00  1.23755293E+01  1.23755293E+01 -2.47510585E+01
  0.00000000E+00  1.23755293E+01  1.23755293E+01 -2.47510585E+01  0.00000000E+00
  1.23755293E+01  1.23755293E+01 -2.47510585E+01  0.00000000E+00  1.23755293E+01
  1.23755293E+01 -2.47510585E+01  0.00000000E+00  1.23755293E+01  1.23755293E+01
 -2.47510585E+01  0.00000000E+00  1.23755293E+01  1.23755293E+01 -2.47510585E+01
  0.00000000E+00  1.23755293E+01  1.23755293E+01 -2.47510585E+01  0.00000000E+00
  1.23755293E+01  1.23755293E+01 -2.47510585E+01  0.00000000E+00  1.23755293E+01
  1.23755293E+01 -2.47510585E+01  0.00000000E+00  1.23755293E+01  1.23755293E+01
 -2.47510585E+01  0.00000000E+00  1.23755293E+01  1.23755293E+01 -2.47510585E+01
  0.00000000E+00  1.23755293E+01  1.23755293E+01 -2.47510585E+01  0.00000000E+00
  1.23755293E+01  1.23755293E+01 -2.47510585E+01  0.00000000E+00  1.23755293E+01
  1.23755293E+01 -2.47510585E+01  0.00000000E+00  1.23755293E+01  1.23755293E+01
 -2.47510585E+01  0.00000000E+00  1.23755293E+01  1.23755293E+01 -2.47510585E+01
  0.00000000E+00  1.23755293E+01  1.23755293E+01 -2.47510585E+01  0.00000000E+00
  1.23755293E+01  1.23755293E+01 -2.47510585E+01  0.00000000E+00  1.23755293E+01
  1.23755293E+01 -2.47510585E+01  0.00000000E+00  1.23755293E+01  1.23755293E+01
 -2.47510585E+01  0.00000000E+00  1.23755293E+01  1.23755293E+01 -2.47510585E+01
  0.00000000E+00  1.23755293E+01  1.23755293E+01 -2.47510585E+01  0.00000000E+00
  1.23755293E+01  1.23755293E+01 -2.47510585E+01  0.00000000E+00  1.23755293E+01
  1.23755293E+01 -2.47510585E+01  0.00000000E+00  1.23755293E+01  1.23755293E+01
 -2.47510585E+01  0.00000000E+00  1.23755293E+01  1.23755293E+01 -2.47510585E+01
  0.00000000E+00  1.23755293E+01  1.23755293E+01 -2.47510585E+01  0.00000000E+00
  1.23755293E+01  1.23755293E+01 -2.47510585E+01  0.00000000E+00  1.23755293E+01
  1.23755293E+01 -2.47510585E+01  0.00000000E+00  1.23755293E+01  1.23755293E+01
 -2.47510585E+01  0.00000000E+00  1.23755293E+01  1.23755293E+01 -2.47510585E+01
  0.00000000E+00  1.23755293E+01  1.23755293E+01 -2.47510585E+01  0.00000000E+00
  1.23755293E+01  1.23755293E+01 -2.47510585E+01  0.00000000E+00  1.23755293E+01
  1.23755293E+01 -2.47510585E+01  0.00000000E+00  1.23755293E+01  1.23755293E+01
 -2.47510585E+01  0.00000000E+00  1.23755293E+01  1.23755293E+01 -2.47510585E+01
  0.00000000E+00  1.23755293E+01  1.23755293E+01 -2.47510585E+01  0.00000000E+00
  1.23755293E+01  1.23755293E+01 -2.47510585E+01  0.00000000E+00  1.23755293E+01
  1.23755293E+01 -2.47510585E+01  0.00000000E+00  1.23755293E+01  1.23755293E+01
 -2.47510585E+01  0.00000000E+00  1.23755293E+01  1.23755293E+01 -2.47510585E+01
  0.00000000E+00  1.23755293E+01  1.23755293E+01 -2.47510585E+01  0.00000000E+00
  1.23755293E+01  1.23755293E+01 -2.47510585E+01  0.00000000E+00  1.23755293E+01
  1.23755293E+01 -2.47510585E+01  0.00000000E+00  1.23755293E+01  1.23755293E+01
 -2.47510585E+01  0.00000000E+00  1.23755293E+01  1.23755293E+01 -2.47510585E+01
  0.00000000E+00  1.23755293E+01  1.23755293E+01 -2.47510585E+01  0.00000000E+00
  1.23755293E+01  1.23755293E+01 -2.47510585E+01  0.00000000E+00  1.23755293E+01
  1.23755293E+01 -2.47510585E+01  0.00000000E+00  1.23755293E+01  1.23755293E+01
 -2.47510585E+01  0.00000000E+00  1.23755293E+01  1.23755293E+01 -2.47510585E+01
  0.00000000E+00  1.23755293E+01  1.23755293E+01 -2.47510585E+01  0.00000000E+00
  1.23755293E+01  1.23755293E+01 -2.47510585E+01  0.00000000E+00  1.23755293E+01
  1.23755293E+01 -2.47510585E+01  0.00000000E+00  1.23755293E+01  1.23755293E+01
 -2.47510585E+01  0.00000000E+00  1.23755293E+01  1.23755293E+01 -2.47510585E+01
  0.00000000E+00  1.23755293E+01  1.23755293E+01 -2.47510585E+01  0.00000000E+00
  1.23755293E+01  1.23755293E+01 -2.47510585E+01  0.00000000E+00  1.23755293E+01
  1.23755293E+01 -2.47510585E+01  0.00000000E+00  1.23755293E+01  1.23755293E+01
 -2.47510585E+01  0.00000000E+00  1.23755293E+01  1.23755293E+01 -2.47510585E+01
  0.00000000E+00  1.23755293E+01  1.23755293E+01 -2.47510585E+01  0.00000000E+00
  1.23755293E+01  1.23755293E+01 -2.47510585E+01  0.00000000E+00  1.23755293E+01
  1.23755293E+01 -2.47510585E+01  0.00000000E+00  1.23755293E+01  1.23755293E+01
 -2.47510585E+01  0.00000000E+00  1.23755293E+01  1.23755293E+01 -2.47510585E+01
  0.00000000E+00  1.23755293E+01  1.23755293E+01 -2.47510585E+01  0.00000000E+00
  1.23755293E+01  1.23755293E+01 -2.47510585E+01  0.00000000E+00  1.23755293E+01
  1.23755293E+01 -2.47510585E+01  0.00000000E+00  1.23755293E+01  1.23755293E+01
 -2.47510585E+01  0.00000000E+00  1.23755293E+01  1.23755293E+01 -2.47510585E+01
  0.00000000E+00  1.23755293E+01  1.23755293E+01 -2.47510585E+01  0.00000000E+00
  1.23755293E+01  1.23755293E+01 -2.47510585E+01  0.00000000E+00  1.23755293E+01
  1.23755293E+01 -2.47510585E+01  0.00000000E+00  1.23755293E+01  1.23755293E+01
 -2.47510585E+01  0.00000000E+00  1.23755293E+01  1.23755293E+01 -2.47510585E+01
  0.00000000E+00  1.23755293E+01  1.23755293E+01 -2.47510585E+01  0.00000000E+00
  1.23755293E+01  1.23755293E+01 -2.47510585E+01  0.00000000E+00  1.23755293E+01
  1.23755293E+01 -2.47510585E+01  0.00000000E+00  1.23755293E+01  1.23755293E+01
 -2.47510585E+01  0.00000000E+00  1.23755293E+01  1.23755293E+01 -2.47510585E+01
  0.00000000E+00  1.23755293E+01  1.23755293E+01 -2.47510585E+01  0.00000000E+00
  1.23755293E+01  1.23755293E+01 -2.47510585E+01  0.00000000E+00  1.23755293E+01
  1.23755293E+01 -2.47510585E+01  0.00000000E+00  1.23755293E+01  1.23755293E+01
 -2.47510585E+01  0.00000000E+00  1.23755293E+01  1.23755293E+01 -2.47510585E+01
  0.00000000E+00  1.23755293E+01  1.23755293E+01 -2.47510585E+01  0.00000000E+00
  1.23755293E+01  1.23755293E+01 -2.47510585E+01  0.00000000E+00  1.23755293E+01
  1.23755293E+01 -2.47510585E+01  0.00000000E+00  1.23755293E+01  1.23755293E+01
 -2.47510585E+01  0.00000000E+00  1.23755293E+01  1.23755293E+01 -2.47510585E+01
  0.00000000E+00  1.23755293E+01  1.23755293E+01 -2.47510585E+01  0.00000000E+00
  1.23755293E+01  1.23755293E+01 -2.47510585E+01  0.00000000E+00  1.23755293E+01
  1.23755293E+01 -2.47510585E+01  0.00000000E+00  1.23755293E+01  1.23755293E+01
 -2.47510585E+01  0.00000000E+00  1.23755293E+01  1.23755293E+01 -2.47510585E+01
  0.00000000E+00  1.23755293E+01  1.23755293E+01 -2.47510585E+01  0.00000000E+00
  1.23755293E+01  1.23755293E+01 -2.47510585E+01  0.00000000E+00  1.23755293E+01
  1.23755293E+01 -2.47510585E+01  0.00000000E+00  1.23755293E+01  1.23755293E+01
 -2.47510585E+01  0.00000000E+00  1.23755293E+01  1.23755293E+01 -2.47510585E+01
  0.00000000E+00  1.23755293E+01  1.23755293E+01 -2.47510585E+01  0.00000000E+00
  1.23755293E+01  1.23755293E+01 -2.47510585E+01  0.00000000E+00  1.23755293E+01
  1.23755293E+01 -2.47510585E+01  0.00000000E+00  1.23755293E+01  1.23755293E+01
 -2.47510585E+01  0.00000000E+00  1.23755293E+01  1.23755293E+01 -2.47510585E+01
  0.00000000E+00  1.23755293E+01  1.23755293E+01 -2.47510585E+01  0.00000000E+00
  1.23755293E+01  1.23755293E+01 -2.47510585E+01  0.00000000E+00  1.23755293E+01
  1.23755293E+01 -2.47510585E+01  0.00000000E+00  1.23755293E+01  1.23755293E+01
 -2.47510585E+01  0.00000000E+00  1.23755293E+01  1.23755293E+01 -2.47510585E+01
  0.00000000E+00  1.23755293E+01  1.23755293E+01 -2.47510585E+01  0.00000000E+00
  1.23755293E+01  1.23755293E+01 -2.47510585E+01  0.00000000E+00  1.23755293E+01
  1.23755293E+01 -2.47510585E+01  0.00000000E+00  1.23755293E+01  1.23755293E+01
 -2.47510585E+01  0.00000000E+00  1.23755293E+01  1.23755293E+01 -2.47510585E+01
  0.00000000E+00  1.23755293E+01  1.23755293E+01 -2.47510585E+01  0.00000000E+00
  1.23755293E+01  1.23755293E+01 -2.47510585E+01  0.00000000E+00  1.23755293E+01
  1.23755293E+01 -2.47510585E+01  0.00000000E+00  1.23755293E+01  1.23755293E+01
 -2.47510585E+01  0.00000000E+00  1.23755293E+01  1.23755293E+01 -2.47510585E+01
  0.00000000E+00  1.23755293E+01  1.23755293E+01 -2.47510585E+01  0.00000000E+00
  1.23755293E+01  1.23755293E+01 -2.47510585E+01  0.00000000E+00  1.23755293E+01
  1.23755293E+01 -2.47510585E+01  0.00000000E+00  1.23755293E+01  1.23755293E+01
 -2.47510585E+01  0.00000000E+00  1.23755293E+01  1.23755293E+01 -2.47510585E+01
  0.00000000E+00  1.23755293E+01  1.23755293E+01 -2.47510585E+01  0.00000000E+00
  1.23755293E+01  1.23755293E+01 -2.47510585E+01  0.00000000E+00  1.23755293E+01
  1.23755293E+01 -2.47510585E+01  0.00000000E+00  1.23755293E+01  1.23755293E+01
 -2.47510585E+01  0.00000000E+00  1.23755293E+01  1.23755293E+01 -2.47510585E+01
  0.00000000E+00  1.23755293E+01  1.23755293E+01 -2.47510585E+01  0.00000000E+00
  1.23755293E+01  1.23755293E+01 -2.47510585E+01  0.00000000E+00  1.23755293E+01
  1.23755293E+01 -2.47510585E+01  0.00000000E+00  1.23755293E+01  1.23755293E+01
 -2.47510585E+01  0.00000000E+00  1.23755293E+01  1.23755293E+01 -2.47510585E+01
  0.00000000E+00  1.23755293E+01  1.23755293E+01 -2.47510585E+01  0.00000000E+00
  1.23755293E+01  1.23755293E+01 -2.47510585E+01  0.00000000E+00  1.23755293E+01
  1.23755293E+01 -2.47510585E+01  0.00000000E+00  1.23755293E+01  1.23755293E+01
 -2.47510585E+01  0.00000000E+00  1.23755293E+01  1.23755293E+01 -2.47510585E+01
  0.00000000E+00  1.23755293E+01  1.23755293E+01 -2.47510585E+01  0.00000000E+00
  1.23755293E+01  1.23755293E+01 -2.47510585E+01  0.00000000E+00  1.23755293E+01
  1.23755293E+01 -2.47510585E+01  0.00000000E+00  1.23755293E+01  1.23755293E+01
 -2.47510585E+01  0.00000000E+00  1.23755293E+01  1.23755293E+01 -2.47510585E+01
  0.00000000E+00  1.23755293E+01  1.23755293E+01 -2.47510585E+01  0.00000000E+00
  1.23755293E+01  1.23755293E+01 -2.47510585E+01  0.00000000E+00  1.23755293E+01
  1.23755293E+01 -2.47510585E+01  0.00000000E+00  1.23755293E+01  1.23755293E+01
 -2.47510585E+01  0.00000000E+00  1.23755293E+01  1.23755293E+01 -2.47510585E+01
  0.00000000E+00  1.23755293E+01  1.23755293E+01 -2.47510585E+01  0.00000000E+00
  1.23755293E+01  1.23755293E+01 -2.47510585E+01  0.00000000E+00  1.23755293E+01
  1.23755293E+01 -2.47510585E+01  0.00000000E+00  1.23755293E+01  1.23755293E+01
 -2.47510585E+01  0.00000000E+00  1.23755293E+01  1.23755293E+01 -2.47510585E+01
  0.00000000E+00  1.23755293E+01  1.23755293E+01 -2.47510585E+01  0.00000000E+00
  1.23755293E+01  1.23755293E+01 -2.47510585E+01  0.00000000E+00  1.23755293E+01
  1.23755293E+01 -2.47510585E+01  0.00000000E+00  1.23755293E+01  1.23755293E+01
 -2.47510585E+01  0.00000000E+00  1.23755293E+01  1.23755293E+01 -2.47510585E+01
  0.00000000E+00  1.23755293E+01  1.23755293E+01 -2.47510585E+01  0.00000000E+00
  1.23755293E+01  1.23755293E+01 -2.47510585E+01  0.00000000E+00  1.23755293E+01
  1.23755293E+01 -2.47510585E+01  0.00000000E+00  1.23755293E+01  1.23755293E+01
 -2.47510585E+01  0.00000000E+00  1.23755293E+01  1.23755293E+01 -2.47510585E+01
  0.00000000E+00  1.23755293E+01  1.23755293E+01 -2.47510585E+01  0.00000000E+00
  1.23755293E+01  1.23755293E+01 -2.47510585E+01  0.00000000E+00  1.23755293E+01
  1.23755293E+01 -2.47510585E+01  0.00000000E+00  1.23755293E+01  1.23755293E+01
 -2.47510585E+01  0.00000000E+00  1.23755293E+01  1.23755293E+01 -2.47510585E+01
  0.00000000E+00  1.23755293E+01  1.23755293E+01 -2.47510585E+01  0.00000000E+00
  1.23755293E+01  1.23755293E+01 -2.47510585E+01  0.00000000E+00  1.23755293E+01
  1.23755293E+01 -2.47510585E+01  0.00000000E+00  1.23755293E+01  1.23755293E+01
 -2.47510585E+01  0.00000000E+00  1.23755293E+01  1.23755293E+01 -2.47510585E+01
  0.00000000E+00  1.23755293E+01  1.23755293E+01 -2.47510585E+01  0.00000000E+00
  1.23755293E+01  1.23755293E+01 -2.47510585E+01  0.00000000E+00  1.23755293E+01
  1.23755293E+01 -2.47510585E+01  0.00000000E+00  1.23755293E+01  1.23755293E+01
 -2.47510585E+01  0.00000000E+00  1.23755293E+01  1.23755293E+01 -2.47510585E+01
  0.00000000E+00  1.23755293E+01  1.23755293E+01 -2.47510585E+01  0.00000000E+00
  1.23755293E+01  1.23755293E+01 -2.47510585E+01  0.00000000E+00  1.23755293E+01
  1.23755293E+01 -2.47510585E+01  0.00000000E+00  1.23755293E+01  1.23755293E+01
 -2.47510585E+01  0.00000000E+00  1.23755293E+01  1.23755293E+01 -2.47510585E+01
  0.00000000E+00  1.23755293E+01  1.23755293E+01 -2.47510585E+01  0.00000000E+00
  1.23755293E+01  1.23755293E+01 -2.47510585E+01  0.00000000E+00  1.23755293E+01
  1.23755293E+01 -2.47510585E+01  0.00000000E+00  1.23755293E+01  1.23755293E+01
 -2.47510585E+01  0.00000000E+00  1.23755293E+01  1.23755293E+01 -2.47510585E+01
  0.00000000E+00  1.23755293E+01  1.23755293E+01 -2.47510585E+01  0.00000000E+00
  1.23755293E+01  1.23755293E+01 -2.47510585E+01  0.00000000E+00  1.23755293E+01
  1.23755293E+01 -2.47510585E+01  0.00000000E+00  1.23755293E+01  1.23755293E+01
 -2.47510585E+01  0.00000000E+00  1.23755293E+01  1.23755293E+01 -2.47510585E+01
  0.00000000E+00  1.23755293E+01  1.23755293E+01 -2.47510585E+01  0.00000000E+00
  1.23755293E+01  1.23755293E+01 -2.47510585E+01  0.00000000E+00  1.23755293E+01
  1.23755293E+01 -2.47510585E+01  0.00000000E+00  1.23755293E+01  1.23755293E+01
 -2.47510585E+01  0.00000000E+00  1.23755293E+01  1.23755293E+01 -2.47510585E+01
  0.00000000E+00  1.23755293E+01  1.23755293E+01 -2.47510585E+01  0.00000000E+00
  1.23755293E+01  1.23755293E+01 -2.47510585E+01  0.00000000E+00  1.23755293E+01
  1.23755293E+01 -2.47510585E+01  0.00000000E+00  1.23755293E+01  1.23755293E+01
 -2.47510585E+01  0.00000000E+00  1.23755293E+01  1.23755293E+01 -2.47510585E+01
  0.00000000E+00  1.23755293E+01  1.23755293E+01 -2.47510585E+01  0.00000000E+00
  1.23755293E+01  1.23755293E+01 -2.47510585E+01  0.00000000E+00  1.23755293E+01
  1.23755293E+01 -2.47510585E+01  0.00000000E+00  1.23755293E+01  1.23755293E+01
 -2.47510585E+01  0.00000000E+00  1.23755293E+01  1.23755293E+01 -2.47510585E+01
  0.00000000E+00  1.23755293E+01  1.23755293E+01 -2.47510585E+01  0.00000000E+00
  1.23755293E+01  1.23755293E+01 -2.47510585E+01  0.00000000E+00  1.23755293E+01
  1.23755293E+01 -2.47510585E+01  0.00000000E+00  1.23755293E+01  1.23755293E+01
 -2.47510585E+01  0.00000000E+00  1.23755293E+01  1.23755293E+01 -2.47510585E+01
  0.00000000E+00  1.23755293E+01  1.23755293E+01 -2.47510585E+01  0.00000000E+00
  1.23755293E+01  1.23755293E+01 -2.47510585E+01  0.00000000E+00  1.23755293E+01
  1.23755293E+01 -2.47510585E+01  0.00000000E+00  1.23755293E+01  1.23755293E+01
 -2.47510585E+01  0.00000000E+00  1.23755293E+01  1.23755293E+01 -2.47510585E+01
  0.00000000E+00  1.23755293E+01  1.23755293E+01 -2.47510585E+01  0.00000000E+00
  1.23755293E+01  1.23755293E+01 -2.47510585E+01  0.00000000E+00  1.23755293E+01
  1.23755293E+01 -2.47510585E+01  0.00000000E+00  1.23755293E+01  1.23755293E+01
 -2.47510585E+01  0.00000000E+00  1.23755293E+01  1.23755293E+01 -2.47510585E+01
  0.00000000E+00  1.23755293E+01  1.23755293E+01 -2.47510585E+01  0.00000000E+00
  1.23755293E+01  1.23755293E+01 -2.47510585E+01  0.00000000E+00  1.23755293E+01
  1.23755293E+01 -2.47510585E+01  0.00000000E+00  1.23755293E+01  1.23755293E+01
 -2.47510585E+01  0.00000000E+00  1.23755293E+01  1.23755293E+01 -2.47510585E+01
  0.00000000E+00  1.23755293E+01  1.23755293E+01 -2.47510585E+01  0.00000000E+00
  1.23755293E+01  1.23755293E+01 -2.47510585E+01  0.00000000E+00  1.23755293E+01
  1.23755293E+01 -2.47510585E+01  0.00000000E+00  1.23755293E+01  1.23755293E+01
 -2.47510585E+01  0.00000000E+00  1.23755293E+01  1.23755293E+01 -2.47510585E+01
  0.00000000E+00  1.23755293E+01  1.23755293E+01 -2.47510585E+01  0.00000000E+00
  1.23755293E+01  1.23755293E+01 -2.47510585E+01  0.00000000E+00  1.23755293E+01
  1.23755293E+01 -2.47510585E+01  0.00000000E+00  1.23755293E+01  1.23755293E+01
 -2.47510585E+01  0.00000000E+00  1.23755293E+01  1.23755293E+01 -2.47510585E+01
  0.00000000E+00  1.23755293E+01  1.23755293E+01 -2.47510585E+01  0.00000000E+00
  1.23755293E+01  1.23755293E+01 -2.47510585E+01  0.00000000E+00  1.23755293E+01
  1.23755293E+01 -2.47510585E+01  0.00000000E+00  1.23755293E+01  1.23755293E+01
 -2.47510585E+01  0.00000000E+00  1.23755293E+01  1.23755293E+01 -2.47510585E+01
  0.00000000E+00  1.23755293E+01  1.23755293E+01 -2.47510585E+01  0.00000000E+00
  1.23755293E+01  1.23755293E+01 -2.47510585E+01  0.00000000E+00  1.23755293E+01
  1.23755293E+01 -2.47510585E+01  0.00000000E+00  1.23755293E+01  1.23755293E+01
 -2.47510585E+01  0.00000000E+00  1.23755293E+01  1.23755293E+01 -2.47510585E+01
  0.00000000E+00  1.23755293E+01  1.23755293E+01 -2.47510585E+01  0.00000000E+00
  1.23755293E+01  1.23755293E+01 -2.47510585E+01  0.00000000E+00  1.23755293E+01
  1.23755293E+01 -2.47510585E+01  0.00000000E+00  1.23755293E+01  1.23755293E+01
 -2.47510585E+01  0.00000000E+00  1.23755293E+01  1.23755293E+01 -2.47510585E+01
  0.00000000E+00  1.23755293E+01  1.23755293E+01 -2.47510585E+01  0.00000000E+00
  1.23755293E+01  1.23755293E+01 -2.47510585E+01  0.00000000E+00  1.23755293E+01
  1.23755293E+01 -2.47510585E+01  0.00000000E+00  1.23755293E+01  1.23755293E+01
 -2.47510585E+01  0.00000000E+00  1.23755293E+01  1.23755293E+01 -2.47510585E+01
  0.00000000E+00  1.23755293E+01  1.23755293E+01 -2.47510585E+01  0.00000000E+00
  1.23755293E+01  1.23755293E+01 -2.47510585E+01  0.00000000E+00  1.23755293E+01
  1.23755293E+01 -2.47510585E+01  0.00000000E+00  1.23755293E+01  1.23755293E+01
 -2.47510585E+01  0.00000000E+00  1.23755293E+01  1.23755293E+01 -2.47510585E+01
  0.00000000E+00  1.23755293E+01  1.23755293E+01 -2.47510585E+01  0.00000000E+00
  1.23755293E+01  1.23755293E+01 -2.47510585E+01  0.00000000E+00  1.23755293E+01
  1.23755293E+01 -2.47510585E+01  0.00000000E+00  1.23755293E+01  1.23755293E+01
 -2.47510585E+01  0.00000000E+00  1.23755293E+01  1.23755293E+01 -2.47510585E+01
  0.00000000E+00  1.23755293E+01  1.23755293E+01 -2.47510585E+01  0.00000000E+00
  1.23755293E+01  1.23755293E+01 -2.47510585E+01  0.00000000E+00  1.23755293E+01
  1.23755293E+01 -2.47510585E+01  0.00000000E+00  1.23755293E+01  1.23755293E+01
 -2.47510585E+01  0.00000000E+00  1.23755293E+01  1.23755293E+01 -2.47510585E+01
  0.00000000E+00  1.23755293E+01  1.23755293E+01 -2.47510585E+01  0.00000000E+00
  1.23755293E+01  1.23755293E+01 -2.47510585E+01  0.00000000E+00  1.23755293E+01
  1.23755293E+01 -2.47510585E+01  0.00000000E+00  1.23755293E+01  1.23755293E+01
 -2.47510585E+01  0.00000000E+00  1.23755293E+01  1.23755293E+01 -2.47510585E+01
  0.00000000E+00  1.23755293E+01  1.23755293E+01 -2.47510585E+01  0.00000000E+00
  1.23755293E+01  1.23755293E+01 -2.47510585E+01  0.00000000E+00  1.23755293E+01
  1.23755293E+01 -2.47510585E+01  0.00000000E+00  1.23755293E+01  1.23755293E+01
 -2.47510585E+01  0.00000000E+00  1.23755293E+01  1.23755293E+01 -2.47510585E+01
  0.00000000E+00  1.23755293E+01  1.23755293E+01 -2.47510585E+01  0.00000000E+00
  1.23755293E+01  1.23755293E+01 -2.47510585E+01  0.00000000E+00  1.23755293E+01
  1.23755293E+01 -2.47510585E+01  0.00000000E+00  1.23755293E+01  1.23755293E+01
 -2.47510585E+01  0.00000000E+00  1.23755293E+01  1.23755293E+01 -2.47510585E+01
  0.00000000E+00  1.23755293E+01  1.23755293E+01 -2.47510585E+01  0.00000000E+00
  1.23755293E+01  1.23755293E+01 -2.47510585E+01  0.00000000E+00  1.23755293E+01
  1.23755293E+01 -2.47510585E+01  0.00000000E+00  1.23755293E+01  1.23755293E+01
 -2.47510585E+01  0.00000000E+00  1.23755293E+01  1.23755293E+01 -2.47510585E+01
  0.00000000E+00  1.23755293E+01  1.23755293E+01 -2.47510585E+01  0.00000000E+00
  1.23755293E+01  1.23755293E+01 -2.47510585E+01  0.00000000E+00  1.23755293E+01
  1.23755293E+01 -2.47510585E+01  0.00000000E+00  1.23755293E+01  1.23755293E+01
 -2.47510585E+01  0.00000000E+00  1.23755293E+01  1.23755293E+01 -2.47510585E+01
  0.00000000E+00  1.23755293E+01  1.23755293E+01 -2.47510585E+01  0.00000000E+00
  1.23755293E+01  1.23755293E+01 -2.47510585E+01  0.00000000E+00  1.23755293E+01
  1.23755293E+01 -2.47510585E+01  0.00000000E+00  1.23755293E+01  1.23755293E+01
 -2.47510585E+01  0.00000000E+00  1.23755293E+01  1.23755293E+01 -2.47510585E+01
  0.00000000E+00  1.23755293E+01  1.23755293E+01 -2.47510585E+01  0.00000000E+00
  1.23755293E+01  1.23755293E+01 -2.47510585E+01  0.00000000E+00  1.23755293E+01
  1.23755293E+01 -2.47510585E+01  0.00000000E+00  1.23755293E+01  1.23755293E+01
 -2.47510585E+01  0.00000000E+00  1.23755293E+01  1.23755293E+01 -2.47510585E+01
  0.00000000E+00  1.23755293E+01  1.23755293E+01 -2.47510585E+01  0.00000000E+00
  1.23755293E+01  1.23755293E+01 -2.47510585E+01  0.00000000E+00  1.23755293E+01
  1.23755293E+01 -2.47510585E+01  0.00000000E+00  1.23755293E+01  1.23755293E+01
 -2.47510585E+01  0.00000000E+00  1.23755293E+01  1.23755293E+01 -2.47510585E+01
  0.00000000E+00  1.23755293E+01  1.23755293E+01 -2.47510585E+01  0.00000000E+00
  1.23755293E+01  1.23755293E+01 -2.47510585E+01  0.00000000E+00  1.23755293E+01
  1.23755293E+01 -2.47510585E+01  0.00000000E+00  1.23755293E+01  1.23755293E+01
 -2.47510585E+01  0.00000000E+00  1.23755293E+01  1.23755293E+01 -2.47510585E+01
  0.00000000E+00  1.23755293E+01  1.23755293E+01 -2.47510585E+01  0.00000000E+00
  1.23755293E+01  1.23755293E+01 -2.47510585E+01  0.00000000E+00  1.23755293E+01
  1.23755293E+01 -2.47510585E+01  0.00000000E+00  1.23755293E+01  1.23755293E+01
 -2.47510585E+01  0.00000000E+00  1.23755293E+01  1.23755293E+01 -2.47510585E+01
  0.00000000E+00  1.23755293E+01  1.23755293E+01 -2.47510585E+01  0.00000000E+00
  1.23755293E+01  1.23755293E+01 -2.47510585E+01  0.00000000E+00  1.23755293E+01
  1.23755293E+01 -2.47510585E+01  0.00000000E+00  1.23755293E+01  1.23755293E+01
 -2.47510585E+01  0.00000000E+00  1.23755293E+01  1.23755293E+01 -2.47510585E+01
  0.00000000E+00  1.23755293E+01  1.23755293E+01 -2.47510585E+01  0.00000000E+00
  1.23755293E+01  1.23755293E+01 -2.47510585E+01  0.00000000E+00  1.23755293E+01
  1.23755293E+01 -2.47510585E+01  0.00000000E+00  1.23755293E+01  1.23755293E+01
 -2.47510585E+01  0.00000000E+00  1.23755293E+01  1.23755293E+01 -2.47510585E+01
  0.00000000E+00  1.23755293E+01  1.23755293E+01 -2.47510585E+01  0.00000000E+00
  1.23755293E+01  1.23755293E+01 -2.47510585E+01  0.00000000E+00  1.23755293E+01
  1.23755293E+01 -2.47510585E+01  0.00000000E+00  1.23755293E+01  1.23755293E+01
 -2.47510585E+01  0.00000000E+00  1.23755293E+01  1.23755293E+01 -2.47510585E+01
  0.00000000E+00  1.23755293E+01  1.23755293E+01 -2.47510585E+01  0.00000000E+00
  1.23755293E+01  1.23755293E+01 -2.47510585E+01  0.00000000E+00  1.23755293E+01
  1.23755293E+01 -2.47510585E+01  0.00000000E+00  1.23755293E+01  1.23755293E+01
 -2.47510585E+01  0.00000000E+00  1.23755293E+01  1.23755293E+01 -2.47510585E+01
  0.00000000E+00  1.23755293E+01  1.23755293E+01 -2.47510585E+01  0.00000000E+00
  1.23755293E+01  1.23755293E+01 -2.47510585E+01  0.00000000E+00  1.23755293E+01
  1.23755293E+01 -2.47510585E+01  0.00000000E+00  1.23755293E+01  1.23755293E+01
 -2.47510585E+01  0.00000000E+00  1.23755293E+01  1.23755293E+01 -2.47510585E+01
  0.00000000E+00  1.23755293E+01  1.23755293E+01 -2.47510585E+01  0.00000000E+00
  1.23755293E+01  1.23755293E+01 -2.47510585E+01  0.00000000E+00  1.23755293E+01
  1.23755293E+01 -2.47510585E+01  0.00000000E+00  1.23755293E+01  1.23755293E+01
 -2.47510585E+01  0.00000000E+00  1.23755293E+01  1.23755293E+01 -2.47510585E+01
  0.00000000E+00  1.23755293E+01  1.23755293E+01 -2.47510585E+01  0.00000000E+00
  1.23755293E+01  1.23755293E+01 -2.47510585E+01  0.00000000E+00  1.23755293E+01
  1.23755293E+01 -2.47510585E+01  0.00000000E+00  1.23755293E+01  1.23755293E+01
 -2.47510585E+01  0.00000000E+00  1.23755293E+01  1.23755293E+01 -2.47510585E+01
  0.00000000E+00  1.23755293E+01  1.23755293E+01 -2.47510585E+01  0.00000000E+00
  1.23755293E+01  1.23755293E+01 -2.47510585E+01  0.00000000E+00  1.23755293E+01
  1.23755293E+01 -2.47510585E+01  0.00000000E+00  1.23755293E+01  1.23755293E+01
 -2.47510585E+01  0.00000000E+00  1.23755293E+01  1.23755293E+01 -2.47510585E+01
  0.00000000E+00  1.23755293E+01  1.23755293E+01 -2.47510585E+01  0.00000000E+00
  1.23755293E+01  1.23755293E+01 -2.47510585E+01  0.00000000E+00  1.23755293E+01
  1.23755293E+01 -2.47510585E+01  0.00000000E+00  1.23755293E+01  1.23755293E+01
 -2.47510585E+01  0.00000000E+00  1.23755293E+01  1.23755293E+01 -2.47510585E+01
  0.00000000E+00  1.23755293E+01  1.23755293E+01 -2.47510585E+01  0.00000000E+00
  1.23755293E+01  1.23755293E+01 -2.47510585E+01  0.00000000E+00  1.23755293E+01
  1.23755293E+01 -2.47510585E+01  0.00000000E+00  1.23755293E+01  1.23755293E+01
 -2.47510585E+01  0.00000000E+00  1.23755293E+01  1.23755293E+01 -2.47510585E+01
  0.00000000E+00  1.23755293E+01  1.23755293E+01 -2.47510585E+01  0.00000000E+00
  1.23755293E+01  1.23755293E+01 -2.47510585E+01  0.00000000E+00  1.23755293E+01
  1.23755293E+01 -2.47510585E+01  0.00000000E+00  1.23755293E+01  1.23755293E+01
 -2.47510585E+01  0.00000000E+00  1.23755293E+01  1.23755293E+01 -2.47510585E+01
  0.00000000E+00  1.23755293E+01  1.23755293E+01 -2.47510585E+01  0.00000000E+00
  1.23755293E+01  1.23755293E+01 -2.47510585E+01  0.00000000E+00  1.23755293E+01
  1.23755293E+01 -2.47510585E+01  0.00000000E+00  1.23755293E+01  1.23755293E+01
 -2.47510585E+01  0.00000000E+00  1.23755293E+01  1.23755293E+01 -2.47510585E+01
  0.00000000E+00  1.23755293E+01  1.23755293E+01 -2.47510585E+01  0.00000000E+00
  1.23755293E+01  1.23755293E+01 -2.47510585E+01  0.00000000E+00  1.23755293E+01
  1.23755293E+01 -2.47510585E+01  0.00000000E+00  1.23755293E+01  1.23755293E+01
 -2.47510585E+01  0.00000000E+00  1.23755293E+01  1.23755293E+01 -2.47510585E+01
  0.00000000E+00  1.23755293E+01  1.23755293E+01 -2.47510585E+01  0.00000000E+00
  1.23755293E+01  1.23755293E+01 -2.47510585E+01  0.00000000E+00  1.23755293E+01
  1.23755293E+01 -2.47510585E+01  0.00000000E+00  1.23755293E+01  1.23755293E+01
 -2.47510585E+01  0.00000000E+00  1.23755293E+01  1.23755293E+01 -2.47510585E+01
  0.00000000E+00  1.23755293E+01  1.23755293E+01 -2.47510585E+01  0.00000000E+00
  1.23755293E+01  1.23755293E+01 -2.47510585E+01  0.00000000E+00  1.23755293E+01
  1.23755293E+01 -2.47510585E+01  0.00000000E+00  1.23755293E+01  1.23755293E+01
 -2.47510585E+01  0.00000000E+00  1.23755293E+01  1.23755293E+01 -2.47510585E+01
  0.00000000E+00  1.23755293E+01  1.23755293E+01 -2.47510585E+01  0.00000000E+00
  1.23755293E+01  1.23755293E+01 -2.47510585E+01  0.00000000E+00  1.23755293E+01
  1.23755293E+01 -2.47510585E+01  0.00000000E+00  1.23755293E+01  1.23755293E+01
 -2.47510585E+01  0.00000000E+00  1.23755293E+01  1.23755293E+01 -2.47510585E+01
  0.00000000E+00  1.23755293E+01  1.23755293E+01 -2.47510585E+01  0.00000000E+00
  1.23755293E+01  1.23755293E+01 -2.47510585E+01  0.00000000E+00  1.23755293E+01
  1.23755293E+01 -2.47510585E+01  0.00000000E+00  1.23755293E+01  1.23755293E+01
 -2.47510585E+01  0.00000000E+00  1.23755293E+01  1.23755293E+01 -2.47510585E+01
  0.00000000E+00  1.23755293E+01  1.23755293E+01 -2.47510585E+01  0.00000000E+00
  1.23755293E+01  1.23755293E+01 -2.47510585E+01  0.00000000E+00  1.23755293E+01
  1.23755293E+01 -2.47510585E+01  0.00000000E+00  1.23755293E+01  1.23755293E+01
 -2.47510585E+01  0.00000000E+00  1.23755293E+01  1.23755293E+01 -2.47510585E+01
  0.00000000E+00  1.23755293E+01  1.23755293E+01 -2.47510585E+01  0.00000000E+00
  1.23755293E+01  1.23755293E+01 -2.47510585E+01  0.00000000E+00  1.23755293E+01
  1.23755293E+01 -2.47510585E+01  0.00000000E+00  1.23755293E+01  1.23755293E+01
 -2.47510585E+01  0.00000000E+00  1.23755293E+01  1.23755293E+01 -2.47510585E+01
  0.00000000E+00  1.23755293E+01  1.23755293E+01 -2.47510585E+01  0.00000000E+00
  1.23755293E+01  1.23755293E+01 -2.47510585E+01  0.00000000E+00  1.23755293E+01
  1.23755293E+01 -2.47510585E+01  0.00000000E+00  1.23755293E+01  1.23755293E+01
 -2.47510585E+01  0.00000000E+00  1.23755293E+01  1.23755293E+01 -2.47510585E+01
  0.00000000E+00  1.23755293E+01  1.23755293E+01 -2.47510585E+01  0.00000000E+00
  1.23755293E+01  1.23755293E+01 -2.47510585E+01  0.00000000E+00  1.23755293E+01
  1.23755293E+01 -2.47510585E+01  0.00000000E+00  1.23755293E+01  1.23755293E+01
 -2.47510585E+01  0.00000000E+00  1.23755293E+01  1.23755293E+01 -2.47510585E+01
  0.00000000E+00  1.23755293E+01  1.23755293E+01 -2.47510585E+01  0.00000000E+00
  1.23755293E+01  1.23755293E+01 -2.47510585E+01  0.00000000E+00  1.23755293E+01
  1.23755293E+01 -2.47510585E+01  0.00000000E+00  1.23755293E+01  1.23755293E+01
 -2.47510585E+01  0.00000000E+00  1.23755293E+01  1.23755293E+01 -2.47510585E+01
  0.00000000E+00  1.23755293E+01  1.23755293E+01 -2.47510585E+01  0.00000000E+00
  1.23755293E+01  1.23755293E+01 -2.47510585E+01  0.00000000E+00  1.23755293E+01
  1.23755293E+01 -2.47510585E+01  0.00000000E+00  1.23755293E+01  1.23755293E+01
 -2.47510585E+01  0.00000000E+00  1.23755293E+01  1.23755293E+01 -2.47510585E+01
  0.00000000E+00  1.23755293E+01  1.23755293E+01 -2.47510585E+01  0.00000000E+00
  1.23755293E+01  1.23755293E+01 -2.47510585E+01  0.00000000E+00  1.23755293E+01
  1.23755293E+01 -2.47510585E+01  0.00000000E+00  1.23755293E+01  1.23755293E+01
 -2.47510585E+01  0.00000000E+00  1.23755293E+01  1.23755293E+01 -2.47510585E+01
  0.00000000E+00  1.23755293E+01  1.23755293E+01 -2.47510585E+01  0.00000000E+00
  1.23755293E+01  1.23755293E+01 -2.47510585E+01  0.00000000E+00  1.23755293E+01
  1.23755293E+01 -2.47510585E+01  0.00000000E+00  1.23755293E+01  1.23755293E+01
 -2.47510585E+01  0.00000000E+00  1.23755293E+01  1.23755293E+01 -2.47510585E+01
  0.00000000E+00  1.23755293E+01  1.23755293E+01 -2.47510585E+01  0.00000000E+00
  1.23755293E+01  1.23755293E+01 -2.47510585E+01  0.00000000E+00  1.23755293E+01
  1.23755293E+01 -2.47510585E+01  0.00000000E+00  1.23755293E+01  1.23755293E+01
 -2.47510585E+01  0.00000000E+00  1.23755293E+01  1.23755293E+01 -2.47510585E+01
  0.00000000E+00  1.23755293E+01  1.23755293E+01 -2.47510585E+01  0.00000000E+00
  1.23755293E+01  1.23755293E+01 -2.47510585E+01  0.00000000E+00  1.23755293E+01
  1.23755293E+01 -2.47510585E+01  0.00000000E+00  1.23755293E+01  1.23755293E+01
 -2.47510585E+01  0.00000000E+00  1.23755293E+01  1.23755293E+01 -2.47510585E+01
  0.00000000E+00  1.23755293E+01  1.23755293E+01 -2.47510585E+01  0.00000000E+00
  1.23755293E+01  1.23755293E+01 -2.47510585E+01  0.00000000E+00  1.23755293E+01
  1.23755293E+01 -2.47510585E+01  0.00000000E+00  1.23755293E+01  1.23755293E+01
 -2.47510585E+01  0.00000000E+00  1.23755293E+01  1.23755293E+01 -2.47510585E+01
  0.00000000E+00  1.23755293E+01  1.23755293E+01 -2.47510585E+01  0.00000000E+00
  1.23755293E+01  1.23755293E+01 -2.47510585E+01  0.00000000E+00  1.23755293E+01
  1.23755293E+01 -2.47510585E+01  0.00000000E+00  1.23755293E+01  1.23755293E+01
 -2.47510585E+01  0.00000000E+00  1.23755293E+01  1.23755293E+01 -2.47510585E+01
  0.00000000E+00  1.23755293E+01  1.23755293E+01 -2.47510585E+01  0.00000000E+00
  1.23755293E+01  1.23755293E+01 -2.47510585E+01  0.00000000E+00  1.23755293E+01
  1.23755293E+01 -2.47510585E+01  0.00000000E+00  1.23755293E+01  1.23755293E+01
 -2.47510585E+01  0.00000000E+00  1.23755293E+01  1.23755293E+01 -2.47510585E+01
  0.00000000E+00  1.23755293E+01  1.23755293E+01 -2.47510585E+01  0.00000000E+00
  1.23755293E+01  1.23755293E+01 -2.47510585E+01  0.00000000E+00  1.23755293E+01
  1.23755293E+01 -2.47510585E+01  0.00000000E+00  1.23755293E+01  1.23755293E+01
 -2.47510585E+01  0.00000000E+00  1.23755293E+01  1.23755293E+01 -2.47510585E+01
  0.00000000E+00  1.23755293E+01  1.23755293E+01 -2.47510585E+01  0.00000000E+00
  1.23755293E+01  1.23755293E+01 -2.47510585E+01  0.00000000E+00  1.23755293E+01
  1.23755293E+01 -2.47510585E+01  0.00000000E+00  1.23755293E+01  1.23755293E+01
 -2.47510585E+01  0.00000000E+00  1.23755293E+01  1.23755293E+01 -2.47510585E+01
  0.00000000E+00  1.23755293E+01  1.23755293E+01 -2.47510585E+01  0.00000000E+00
  1.23755293E+01  1.23755293E+01 -2.47510585E+01  0.00000000E+00  1.23755293E+01
  1.23755293E+01 -2.47510585E+01  0.00000000E+00  1.23755293E+01  1.23755293E+01
 -2.47510585E+01  0.00000000E+00  1.23755293E+01  1.23755293E+01 -2.47510585E+01
  0.00000000E+00  1.23755293E+01  1.23755293E+01 -2.47510585E+01  0.00000000E+00
  1.23755293E+01  1.23755293E+01 -2.47510585E+01  0.00000000E+00  1.23755293E+01
  1.23755293E+01 -2.47510585E+01  0.00000000E+00  1.23755293E+01  1.23755293E+01
 -2.47510585E+01  0.00000000E+00  1.23755293E+01  1.23755293E+01 -2.47510585E+01
  0.00000000E+00  1.23755293E+01  1.23755293E+01 -2.47510585E+01  0.00000000E+00
  1.23755293E+01  1.23755293E+01 -2.47510585E+01  0.00000000E+00  1.23755293E+01
  1.23755293E+01 -2.47510585E+01  0.00000000E+00  1.23755293E+01  1.23755293E+01
 -2.47510585E+01  0.00000000E+00  1.23755293E+01  1.23755293E+01 -2.47510585E+01
  0.00000000E+00  1.23755293E+01  1.23755293E+01 -2.47510585E+01  0.00000000E+00
  1.23755293E+01  1.23755293E+01 -2.47510585E+01  0.00000000E+00  1.23755293E+01
  1.23755293E+01 -2.47510585E+01  0.00000000E+00  1.23755293E+01  1.23755293E+01
 -2.47510585E+01  0.00000000E+00  1.23755293E+01  1.23755293E+01 -2.47510585E+01
  0.00000000E+00  1.23755293E+01  1.23755293E+01 -2.47510585E+01  0.00000000E+00
  1.23755293E+01  1.23755293E+01 -2.47510585E+01  0.00000000E+00  1.23755293E+01
  1.23755293E+01 -2.47510585E+01  0.00000000E+00  1.23755293E+01  1.23755293E+01
 -2.47510585E+01  0.00000000E+00  1.23755293E+01  1.23755293E+01 -2.47510585E+01
  0.00000000E+00  1.23755293E+01  1.23755293E+01 -2.47510585E+01  0.00000000E+00
  1.23755293E+01  1.23755293E+01 -2.47510585E+01  0.00000000E+00  1.23755293E+01
  1.23755293E+01 -2.47510585E+01  0.00000000E+00  1.23755293E+01  1.23755293E+01
 -2.47510585E+01  0.00000000E+00  1.23755293E+01  1.23755293E+01 -2.47510585E+01
  0.00000000E+00  1.23755293E+01  1.23755293E+01 -2.47510585E+01  0.00000000E+00
  1.23755293E+01  1.23755293E+01 -2.47510585E+01  0.00000000E+00  1.23755293E+01
  1.23755293E+01 -2.47510585E+01  0.00000000E+00  1.23755293E+01  1.23755293E+01
 -2.47510585E+01  0.00000000E+00  1.23755293E+01  1.23755293E+01 -2.47510585E+01
  0.00000000E+00  1.23755293E+01  1.23755293E+01 -2.47510585E+01  0.00000000E+00
  1.23755293E+01  1.23755293E+01 -2.47510585E+01  0.00000000E+00  1.23755293E+01
  1.23755293E+01 -2.47510585E+01  0.00000000E+00  1.23755293E+01  1.23755293E+01
 -2.47510585E+01  0.00000000E+00  1.23755293E+01  1.23755293E+01 -2.47510585E+01
  0.00000000E+00  1.23755293E+01  1.23755293E+01 -2.47510585E+01  0.00000000E+00
  1.23755293E+01  1.23755293E+01 -2.47510585E+01  0.00000000E+00  1.23755293E+01
  1.23755293E+01 -2.47510585E+01  0.00000000E+00  1.23755293E+01  1.23755293E+01
 -2.47510585E+01  0.00000000E+00  1.23755293E+01  1.23755293E+01 -2.47510585E+01
  0.00000000E+00  1.23755293E+01  1.23755293E+01 -2.47510585E+01  0.00000000E+00
  1.23755293E+01  1.23755293E+01 -2.47510585E+01  0.00000000E+00  1.23755293E+01
  1.23755293E+01 -2.47510585E+01  0.00000000E+00  1.23755293E+01  1.23755293E+01
 -2.47510585E+01  0.00000000E+00  1.23755293E+01  1.23755293E+01 -2.47510585E+01
  0.00000000E+00  1.23755293E+01  1.23755293E+01 -2.47510585E+01  0.00000000E+00
  1.23755293E+01  1.23755293E+01 -2.47510585E+01  0.00000000E+00  1.23755293E+01
  1.23755293E+01 -2.47510585E+01  0.00000000E+00  1.23755293E+01  1.23755293E+01
 -2.47510585E+01  0.00000000E+00  1.23755293E+01  1.23755293E+01 -2.47510585E+01
  0.00000000E+00  1.23755293E+01  1.23755293E+01 -2.47510585E+01  0.00000000E+00
  1.23755293E+01  1.23755293E+01 -2.47510585E+01  0.00000000E+00  1.23755293E+01
  1.23755293E+01 -2.47510585E+01  0.00000000E+00  1.23755293E+01  1.23755293E+01
 -2.47510585E+01  0.00000000E+00  1.23755293E+01  1.23755293E+01 -2.47510585E+01
  0.00000000E+00  1.23755293E+01  1.23755293E+01 -2.47510585E+01  0.00000000E+00
  1.23755293E+01  1.23755293E+01 -2.47510585E+01  0.00000000E+00  1.23755293E+01
  1.23755293E+01 -2.47510585E+01  0.00000000E+00  1.23755293E+01  1.23755293E+01
 -2.47510585E+01  0.00000000E+00  1.23755293E+01  1.23755293E+01 -2.47510585E+01
  0.00000000E+00  1.23755293E+01  1.23755293E+01 -2.47510585E+01  0.00000000E+00
  1.23755293E+01  1.23755293E+01 -2.47510585E+01  0.00000000E+00  1.23755293E+01
  1.23755293E+01 -2.47510585E+01  0.00000000E+00  1.23755293E+01  1.23755293E+01
 -2.47510585E+01  0.00000000E+00  1.23755293E+01  1.23755293E+01 -2.47510585E+01
  0.00000000E+00  1.23755293E+01  1.23755293E+01 -2.47510585E+01  0.00000000E+00
  1.23755293E+01  1.23755293E+01 -2.47510585E+01  0.00000000E+00  1.23755293E+01
  1.23755293E+01 -2.47510585E+01  0.00000000E+00  1.23755293E+01  1.23755293E+01
 -2.47510585E+01  0.00000000E+00  1.23755293E+01  1.23755293E+01 -2.47510585E+01
  0.00000000E+00  1.23755293E+01  1.23755293E+01 -2.47510585E+01  0.00000000E+00
  1.23755293E+01  1.23755293E+01 -2.47510585E+01  0.00000000E+00  1.23755293E+01
  1.23755293E+01 -2.47510585E+01  0.00000000E+00  1.23755293E+01  1.23755293E+01
 -2.47510585E+01  0.00000000E+00  1.23755293E+01  1.23755293E+01 -2.47510585E+01
  0.00000000E+00  1.23755293E+01  1.23755293E+01 -2.47510585E+01  0.00000000E+00
  1.23755293E+01  1.23755293E+01 -2.47510585E+01  0.00000000E+00  1.23755293E+01
  1.23755293E+01 -2.47510585E+01  0.00000000E+00  1.23755293E+01  1.23755293E+01
 -2.47510585E+01  0.00000000E+00  1.23755293E+01  1.23755293E+01 -2.47510585E+01
  0.00000000E+00  1.23755293E+01  1.23755293E+01 -2.47510585E+01  0.00000000E+00
  1.23755293E+01  1.23755293E+01 -2.47510585E+01  0.00000000E+00  1.23755293E+01
  1.23755293E+01 -2.47510585E+01  0.00000000E+00  1.23755293E+01  1.23755293E+01
 -2.47510585E+01  0.00000000E+00  1.23755293E+01  1.23755293E+01 -2.47510585E+01
  0.00000000E+00  1.23755293E+01  1.23755293E+01 -2.47510585E+01  0.00000000E+00
  1.23755293E+01  1.23755293E+01 -2.47510585E+01  0.00000000E+00  1.23755293E+01
  1.23755293E+01 -2.47510585E+01  0.00000000E+00  1.23755293E+01  1.23755293E+01
 -2.47510585E+01  0.00000000E+00  1.23755293E+01  1.23755293E+01 -2.47510585E+01
  0.00000000E+00  1.23755293E+01  1.23755293E+01 -2.47510585E+01  0.00000000E+00
  1.23755293E+01  1.23755293E+01 -2.47510585E+01  0.00000000E+00  1.23755293E+01
  1.23755293E+01 -2.47510585E+01  0.00000000E+00  1.23755293E+01  1.23755293E+01
 -2.47510585E+01  0.00000000E+00  1.23755293E+01  1.23755293E+01 -2.47510585E+01
  0.00000000E+00  1.23755293E+01  1.23755293E+01 -2.47510585E+01  0.00000000E+00
  1.23755293E+01  1.23755293E+01 -2.47510585E+01  0.00000000E+00  1.23755293E+01
  1.23755293E+01 -2.47510585E+01  0.00000000E+00  1.23755293E+01  1.23755293E+01
 -2.47510585E+01  0.00000000E+00  1.23755293E+01  1.23755293E+01 -2.47510585E+01
  0.00000000E+00  1.23755293E+01  1.23755293E+01 -2.47510585E+01  0.00000000E+00
  1.23755293E+01  1.23755293E+01 -2.47510585E+01  0.00000000E+00  1.23755293E+01
  1.23755293E+01 -2.47510585E+01  0.00000000E+00  1.23755293E+01  1.23755293E+01
 -2.47510585E+01  0.00000000E+00  1.23755293E+01  1.23755293E+01 -2.47510585E+01
  0.00000000E+00  1.23755293E+01  1.23755293E+01 -2.47510585E+01  0.00000000E+00
  1.23755293E+01  1.23755293E+01 -2.47510585E+01  0.00000000E+00  1.23755293E+01
  1.23755293E+01 -2.47510585E+01  0.00000000E+00  1.23755293E+01  1.23755293E+01
 -2.47510585E+01  0.00000000E+00  1.23755293E+01  1.23755293E+01 -2.47510585E+01
  0.00000000E+00  1.23755293E+01  1.23755293E+01 -2.47510585E+01  0.00000000E+00
  1.23755293E+01  1.23755293E+01 -2.47510585E+01  0.00000000E+00  1.23755293E+01
  1.23755293E+01 -2.47510585E+01  0.00000000E+00  1.23755293E+01  1.23755293E+01
 -2.47510585E+01  0.00000000E+00  1.23755293E+01  1.23755293E+01 -2.47510585E+01
  0.00000000E+00  1.23755293E+01  1.23755293E+01 -2.47510585E+01  0.00000000E+00
  1.23755293E+01  1.23755293E+01 -2.47510585E+01  0.00000000E+00  1.23755293E+01
  1.23755293E+01 -2.47510585E+01  0.00000000E+00  1.23755293E+01  1.23755293E+01
 -2.47510585E+01  0.00000000E+00  1.23755293E+01  1.23755293E+01 -2.47510585E+01
  0.00000000E+00  1.23755293E+01  1.23755293E+01 -2.47510585E+01  0.00000000E+00
  1.23755293E+01  1.23755293E+01 -2.47510585E+01  0.00000000E+00  1.23755293E+01
  1.23755293E+01 -2.47510585E+01  0.00000000E+00  1.23755293E+01  1.23755293E+01
 -2.47510585E+01  0.00000000E+00  1.23755293E+01  1.23755293E+01 -2.47510585E+01
  0.00000000E+00  1.23755293E+01  1.23755293E+01 -2.47510585E+01  0.00000000E+00
  1.23755293E+01  1.23755293E+01 -2.47510585E+01  0.00000000E+00  1.23755293E+01
  1.23755293E+01 -2.47510585E+01  0.00000000E+00  1.23755293E+01  1.23755293E+01
 -2.47510585E+01  0.00000000E+00  1.23755293E+01  1.23755293E+01 -2.47510585E+01
  0.00000000E+00  1.23755293E+01  1.23755293E+01 -2.47510585E+01  0.00000000E+00
  1.23755293E+01  1.23755293E+01 -2.47510585E+01  0.00000000E+00  1.23755293E+01
  1.23755293E+01 -2.47510585E+01  0.00000000E+00  1.23755293E+01  1.23755293E+01
 -2.47510585E+01  0.00000000E+00  1.23755293E+01  1.23755293E+01 -2.47510585E+01
  0.00000000E+00  1.23755293E+01  1.23755293E+01 -2.47510585E+01  0.00000000E+00
  1.23755293E+01  1.23755293E+01 -2.47510585E+01  0.00000000E+00  1.23755293E+01
  1.23755293E+01 -2.47510585E+01  0.00000000E+00  1.23755293E+01  1.23755293E+01
 -2.47510585E+01  0.00000000E+00  1.23755293E+01  1.23755293E+01 -2.47510585E+01
  0.00000000E+00  1.23755293E+01  1.23755293E+01 -2.47510585E+01  0.00000000E+00
  1.23755293E+01  1.23755293E+01 -2.47510585E+01  0.00000000E+00  1.23755293E+01
  1.23755293E+01 -2.47510585E+01  0.00000000E+00  1.23755293E+01  1.23755293E+01
 -2.47510585E+01  0.00000000E+00  1.23755293E+01  1.23755293E+01 -2.47510585E+01
  0.00000000E+00  1.23755293E+01  1.23755293E+01 -2.47510585E+01  0.00000000E+00
  1.23755293E+01  1.23755293E+01 -2.47510585E+01  0.00000000E+00  1.23755293E+01
  1.23755293E+01 -2.47510585E+01  0.00000000E+00  1.23755293E+01  1.23755293E+01
 -2.47510585E+01  0.00000000E+00  1.23755293E+01  1.23755293E+01 -2.47510585E+01
  0.00000000E+00  1.23755293E+01  1.23755293E+01 -2.47510585E+01  0.00000000E+00
  1.23755293E+01  1.23755293E+01 -2.47510585E+01  0.00000000E+00  1.23755293E+01
  1.23755293E+01 -2.47510585E+01  0.00000000E+00  1.23755293E+01  1.23755293E+01
 -2.47510585E+01  0.00000000E+00  1.23755293E+01  1.23755293E+01 -2.47510585E+01
  0.00000000E+00  1.23755293E+01  1.23755293E+01 -2.47510585E+01  0.00000000E+00
  1.23755293E+01  1.23755293E+01 -2.47510585E+01  0.00000000E+00  1.23755293E+01
  1.23755293E+01 -2.47510585E+01  0.00000000E+00  1.23755293E+01  1.23755293E+01
 -2.47510585E+01  0.00000000E+00  1.23755293E+01  1.23755293E+01 -2.47510585E+01
  0.00000000E+00  1.23755293E+01  1.23755293E+01 -2.47510585E+01  0.00000000E+00
  1.23755293E+01  1.23755293E+01 -2.47510585E+01  0.00000000E+00  1.23755293E+01
  1.23755293E+01 -2.47510585E+01  0.00000000E+00  1.23755293E+01  1.23755293E+01
 -2.47510585E+01  0.00000000E+00  1.23755293E+01  1.23755293E+01 -2.47510585E+01
  0.00000000E+00  1.23755293E+01  1.23755293E+01 -2.47510585E+01  0.00000000E+00
  1.23755293E+01  1.23755293E+01 -2.47510585E+01  0.00000000E+00  1.23755293E+01
  1.23755293E+01 -2.47510585E+01  0.00000000E+00  1.23755293E+01  1.23755293E+01
 -2.47510585E+01  0.00000000E+00  1.23755293E+01  1.23755293E+01 -2.47510585E+01
  0.00000000E+00  1.23755293E+01  1.23755293E+01 -2.47510585E+01  0.00000000E+00
  1.23755293E+01  1.23755293E+01 -2.47510585E+01  0.00000000E+00  1.23755293E+01
  1.23755293E+01 -2.47510585E+01  0.00000000E+00  1.23755293E+01  1.23755293E+01
 -2.47510585E+01  0.00000000E+00  1.23755293E+01  1.23755293E+01 -2.47510585E+01
  0.00000000E+00  1.23755293E+01  1.23755293E+01 -2.47510585E+01  0.00000000E+00
  1.23755293E+01  1.23755293E+01 -2.47510585E+01  0.00000000E+00  1.23755293E+01
  1.23755293E+01 -2.47510585E+01  0.00000000E+00  1.23755293E+01  1.23755293E+01
 -2.47510585E+01  0.00000000E+00  1.23755293E+01  1.23755293E+01 -2.47510585E+01
  0.00000000E+00  1.23755293E+01  1.23755293E+01 -2.47510585E+01  0.00000000E+00
  1.23755293E+01  1.23755293E+01 -2.47510585E+01  0.00000000E+00  1.23755293E+01
  1.23755293E+01 -2.47510585E+01  0.00000000E+00  1.23755293E+01  1.23755293E+01
 -2.47510585E+01  0.00000000E+00  1.23755293E+01  1.23755293E+01 -2.47510585E+01
  0.00000000E+00  1.23755293E+01  1.23755293E+01 -2.47510585E+01  0.00000000E+00
  1.23755293E+01  1.23755293E+01 -2.47510585E+01  0.00000000E+00  1.23755293E+01
  1.23755293E+01 -2.47510585E+01  0.00000000E+00  1.23755293E+01  1.23755293E+01
 -2.47510585E+01  0.00000000E+00  1.23755293E+01  1.23755293E+01 -2.47510585E+01
  0.00000000E+00  1.23755293E+01  1.23755293E+01 -2.47510585E+01  0.00000000E+00
  1.23755293E+01  1.23755293E+01 -2.47510585E+01  0.00000000E+00  1.23755293E+01
  1.23755293E+01 -2.47510585E+01  0.00000000E+00  1.23755293E+01  1.23755293E+01
 -2.47510585E+01  0.00000000E+00  1.23755293E+01  1.23755293E+01 -2.47510585E+01
  0.00000000E+00  1.23755293E+01  1.23755293E+01 -2.47510585E+01  0.00000000E+00
  1.23755293E+01  1.23755293E+01 -2.47510585E+01  0.00000000E+00  1.23755293E+01
  1.23755293E+01 -2.47510585E+01  0.00000000E+00  1.23755293E+01  1.23755293E+01
 -2.47510585E+01  0.00000000E+00  1.23755293E+01  1.23755293E+01 -2.47510585E+01
  0.00000000E+00  1.23755293E+01  1.23755293E+01 -2.47510585E+01  0.00000000E+00
  1.23755293E+01  1.23755293E+01 -2.47510585E+01  0.00000000E+00  1.23755293E+01
  1.23755293E+01 -2.47510585E+01  0.00000000E+00  1.23755293E+01  1.23755293E+01
 -2.47510585E+01  0.00000000E+00  1.23755293E+01  1.23755293E+01 -2.47510585E+01
  0.00000000E+00  1.23755293E+01  1.23755293E+01 -2.47510585E+01  0.00000000E+00
  1.23755293E+01  1.23755293E+01 -2.47510585E+01  0.00000000E+00  1.23755293E+01
  1.23755293E+01 -2.47510585E+01  0.00000000E+00  1.23755293E+01  1.23755293E+01
 -2.47510585E+01  0.00000000E+00  1.23755293E+01  1.23755293E+01 -2.47510585E+01
  0.00000000E+00  1.23755293E+01  1.23755293E+01 -2.47510585E+01  0.00000000E+00
  1.23755293E+01  1.23755293E+01 -2.47510585E+01  0.00000000E+00  1.23755293E+01
  1.23755293E+01 -2.47510585E+01  0.00000000E+00  1.23755293E+01  1.23755293E+01
 -2.47510585E+01  0.00000000E+00  1.23755293E+01  1.23755293E+01 -2.47510585E+01
  0.00000000E+00  1.23755293E+01  1.23755293E+01 -2.47510585E+01  0.00000000E+00
  1.23755293E+01  1.23755293E+01 -2.47510585E+01  0.00000000E+00  1.23755293E+01
  1.23755293E+01 -2.47510585E+01  0.00000000E+00  1.23755293E+01  1.23755293E+01
 -2.47510585E+01  0.00000000E+00  1.23755293E+01  1.23755293E+01 -2.47510585E+01
  0.00000000E+00  1.23755293E+01  1.23755293E+01 -2.47510585E+01  0.00000000E+00
  1.23755293E+01  1.23755293E+01 -2.47510585E+01  0.00000000E+00  1.23755293E+01
  1.23755293E+01 -2.47510585E+01  0.00000000E+00  1.23755293E+01  1.23755293E+01
 -2.47510585E+01  0.00000000E+00  1.23755293E+01  1.23755293E+01 -2.47510585E+01
  0.00000000E+00  1.23755293E+01  1.23755293E+01 -2.47510585E+01  0.00000000E+00
  1.23755293E+01  1.23755293E+01 -2.47510585E+01  0.00000000E+00  1.23755293E+01
  1.23755293E+01 -2.47510585E+01  0.00000000E+00  1.23755293E+01  1.23755293E+01
 -2.47510585E+01  0.00000000E+00  1.23755293E+01  1.23755293E+01 -2.47510585E+01
  0.00000000E+00  1.23755293E+01  1.23755293E+01 -2.47510585E+01  0.00000000E+00
  1.23755293E+01  1.23755293E+01 -2.47510585E+01  0.00000000E+00  1.23755293E+01
  1.23755293E+01 -2.47510585E+01  0.00000000E+00  1.23755293E+01  1.23755293E+01
 -2.47510585E+01  0.00000000E+00  1.23755293E+01  1.23755293E+01 -2.47510585E+01
  0.00000000E+00  1.23755293E+01  1.23755293E+01 -2.47510585E+01  0.00000000E+00
  1.23755293E+01  1.23755293E+01 -2.47510585E+01  0.00000000E+00  1.23755293E+01
  1.23755293E+01 -2.47510585E+01  0.00000000E+00  1.23755293E+01  1.23755293E+01
 -2.47510585E+01  0.00000000E+00  1.23755293E+01  1.23755293E+01 -2.47510585E+01
  0.00000000E+00  1.23755293E+01  1.23755293E+01 -2.47510585E+01  0.00000000E+00
  1.23755293E+01  1.23755293E+01 -2.47510585E+01  0.00000000E+00  1.23755293E+01
  1.23755293E+01 -2.47510585E+01  0.00000000E+00  1.23755293E+01  1.23755293E+01
 -2.47510585E+01  0.00000000E+00  1.23755293E+01  1.23755293E+01 -2.47510585E+01
  0.00000000E+00  1.23755293E+01  1.23755293E+01 -2.47510585E+01  0.00000000E+00
  1.23755293E+01  1.23755293E+01 -2.47510585E+01  0.00000000E+00  1.23755293E+01
  1.23755293E+01 -2.47510585E+01  0.00000000E+00  1.23755293E+01  1.23755293E+01
 -2.47510585E+01  0.00000000E+00  1.23755293E+01  1.23755293E+01 -2.47510585E+01
  0.00000000E+00  1.23755293E+01  1.23755293E+01 -2.47510585E+01  0.00000000E+00
  1.23755293E+01  1.23755293E+01 -2.47510585E+01  0.00000000E+00  1.23755293E+01
  1.23755293E+01 -2.47510585E+01  0.00000000E+00  1.23755293E+01  1.23755293E+01
 -2.47510585E+01  0.00000000E+00  1.23755293E+01  1.23755293E+01 -2.47510585E+01
  0.00000000E+00  1.23755293E+01  1.23755293E+01 -2.47510585E+01  0.00000000E+00
  1.23755293E+01  1.23755293E+01 -2.47510585E+01  0.00000000E+00  1.23755293E+01
  1.23755293E+01 -2.47510585E+01  0.00000000E+00  1.23755293E+01  1.23755293E+01
 -2.47510585E+01  0.00000000E+00  1.23755293E+01  1.23755293E+01 -2.47510585E+01
  0.00000000E+00  1.23755293E+01  1.23755293E+01 -2.47510585E+01  0.00000000E+00
  1.23755293E+01  1.23755293E+01 -2.47510585E+01  0.00000000E+00  1.23755293E+01
  1.23755293E+01 -2.47510585E+01  0.00000000E+00  1.23755293E+01  1.23755293E+01
 -2.47510585E+01  0.00000000E+00  1.23755293E+01  1.23755293E+01 -2.47510585E+01
  0.00000000E+00  1.23755293E+01  1.23755293E+01 -2.47510585E+01  0.00000000E+00
  1.23755293E+01  1.23755293E+01 -2.47510585E+01  0.00000000E+00  1.23755293E+01
  1.23755293E+01 -2.47510585E+01  0.00000000E+00  1.23755293E+01  1.23755293E+01
 -2.47510585E+01  0.00000000E+00  1.23755293E+01  1.23755293E+01 -2.47510585E+01
  0.00000000E+00  1.23755293E+01  1.23755293E+01 -2.47510585E+01  0.00000000E+00
  1.23755293E+01  1.23755293E+01 -2.47510585E+01  0.00000000E+00  1.23755293E+01
  1.23755293E+01 -2.47510585E+01  0.00000000E+00  1.23755293E+01  1.23755293E+01
 -2.47510585E+01  0.00000000E+00  1.23755293E+01  1.23755293E+01 -2.47510585E+01
  0.00000000E+00  1.23755293E+01  1.23755293E+01 -2.47510585E+01  0.00000000E+00
  1.23755293E+01  1.23755293E+01 -2.47510585E+01  0.00000000E+00  1.23755293E+01
  1.23755293E+01 -2.47510585E+01  0.00000000E+00  1.23755293E+01  1.23755293E+01
 -2.47510585E+01  0.00000000E+00  1.23755293E+01  1.23755293E+01 -2.47510585E+01
  0.00000000E+00  1.23755293E+01  1.23755293E+01 -2.47510585E+01  0.00000000E+00
  1.23755293E+01  1.23755293E+01 -2.47510585E+01  0.00000000E+00  1.23755293E+01
  1.23755293E+01 -2.47510585E+01  0.00000000E+00  1.23755293E+01  1.23755293E+01
 -2.47510585E+01  0.00000000E+00  1.23755293E+01  1.23755293E+01 -2.47510585E+01
  0.00000000E+00  1.23755293E+01  1.23755293E+01 -2.47510585E+01  0.00000000E+00
  1.23755293E+01  1.23755293E+01 -2.47510585E+01  0.00000000E+00  1.23755293E+01
  1.23755293E+01 -2.47510585E+01  0.00000000E+00  1.23755293E+01  1.23755293E+01
 -2.47510585E+01  0.00000000E+00  1.23755293E+01  1.23755293E+01 -2.47510585E+01
  0.00000000E+00  1.23755293E+01  1.23755293E+01 -2.47510585E+01  0.00000000E+00
  1.23755293E+01  1.23755293E+01 -2.47510585E+01  0.00000000E+00  1.23755293E+01
  1.23755293E+01 -2.47510585E+01  0.00000000E+00  1.23755293E+01  1.23755293E+01
 -2.47510585E+01  0.00000000E+00  1.23755293E+01  1.23755293E+01 -2.47510585E+01
  0.00000000E+00  1.23755293E+01  1.23755293E+01 -2.47510585E+01  0.00000000E+00
  1.23755293E+01  1.23755293E+01 -2.47510585E+01  0.00000000E+00  1.23755293E+01
  1.23755293E+01 -2.47510585E+01  0.00000000E+00  1.23755293E+01  1.23755293E+01
 -2.47510585E+01  0.00000000E+00  1.23755293E+01  1.23755293E+01 -2.47510585E+01
  0.00000000E+00  1.23755293E+01  1.23755293E+01 -2.47510585E+01  0.00000000E+00
  1.23755293E+01  1.23755293E+01 -2.47510585E+01  0.00000000E+00  1.23755293E+01
  1.23755293E+01 -2.47510585E+01  0.00000000E+00  1.23755293E+01  1.23755293E+01
 -2.47510585E+01  0.00000000E+00  1.23755293E+01  1.23755293E+01 -2.47510585E+01
  0.00000000E+00  1.23755293E+01  1.23755293E+01 -2.47510585E+01  0.00000000E+00
  1.23755293E+01  1.23755293E+01 -2.47510585E+01  0.00000000E+00  1.23755293E+01
  1.23755293E+01 -2.47510585E+01  0.00000000E+00  1.23755293E+01  1.23755293E+01
 -2.47510585E+01  0.00000000E+00  1.23755293E+01  1.23755293E+01 -2.47510585E+01
  0.00000000E+00  1.23755293E+01  1.23755293E+01 -2.47510585E+01  0.00000000E+00
  1.23755293E+01  1.23755293E+01 -2.47510585E+01  0.00000000E+00  1.23755293E+01
  1.23755293E+01 -2.47510585E+01  0.00000000E+00  1.23755293E+01  1.23755293E+01
 -2.47510585E+01  0.00000000E+00  1.23755293E+01  1.23755293E+01 -2.47510585E+01
  0.00000000E+00  1.23755293E+01  1.23755293E+01 -2.47510585E+01  0.00000000E+00
  1.23755293E+01  1.23755293E+01 -2.47510585E+01  0.00000000E+00  1.23755293E+01
  1.23755293E+01 -2.47510585E+01  0.00000000E+00  1.23755293E+01  1.23755293E+01
 -2.47510585E+01  0.00000000E+00  1.23755293E+01  1.23755293E+01 -2.47510585E+01
  0.00000000E+00  1.23755293E+01  1.23755293E+01 -2.47510585E+01  0.00000000E+00
  1.23755293E+01  1.23755293E+01 -2.47510585E+01  0.00000000E+00  1.23755293E+01
  1.23755293E+01 -2.47510585E+01  0.00000000E+00  1.23755293E+01  1.23755293E+01
 -2.47510585E+01  0.00000000E+00  1.23755293E+01  1.23755293E+01 -2.47510585E+01
  0.00000000E+00  1.23755293E+01  1.23755293E+01 -2.47510585E+01  0.00000000E+00
  1.23755293E+01  1.23755293E+01 -2.47510585E+01  0.00000000E+00  1.23755293E+01
  1.23755293E+01 -2.47510585E+01  0.00000000E+00  1.23755293E+01  1.23755293E+01
 -2.47510585E+01  0.00000000E+00  1.23755293E+01  1.23755293E+01 -2.47510585E+01
  0.00000000E+00  1.23755293E+01  1.23755293E+01 -2.47510585E+01  0.00000000E+00
  1.23755293E+01  1.23755293E+01 -2.47510585E+01  0.00000000E+00  1.23755293E+01
  1.23755293E+01 -2.47510585E+01  0.00000000E+00  1.23755293E+01  1.23755293E+01
 -2.47510585E+01  0.00000000E+00  1.23755293E+01  1.23755293E+01 -2.47510585E+01
  0.00000000E+00  1.23755293E+01  1.23755293E+01 -2.47510585E+01  0.00000000E+00
  1.23755293E+01  1.23755293E+01 -2.47510585E+01  0.00000000E+00  1.23755293E+01
  1.23755293E+01 -2.47510585E+01  0.00000000E+00  1.23755293E+01  1.23755293E+01
 -2.47510585E+01  0.00000000E+00  1.23755293E+01  1.23755293E+01 -2.47510585E+01
  0.00000000E+00  1.23755293E+01  1.23755293E+01 -2.47510585E+01  0.00000000E+00
  1.23755293E+01  1.23755293E+01 -2.47510585E+01  0.00000000E+00  1.23755293E+01
  1.23755293E+01 -2.47510585E+01  0.00000000E+00  1.23755293E+01  1.23755293E+01
 -2.47510585E+01  0.00000000E+00  1.23755293E+01  1.23755293E+01 -2.47510585E+01
  0.00000000E+00  1.23755293E+01  1.23755293E+01 -2.47510585E+01  0.00000000E+00
  1.23755293E+01  1.23755293E+01 -2.47510585E+01  0.00000000E+00  1.23755293E+01
  1.23755293E+01 -2.47510585E+01  0.00000000E+00  1.23755293E+01  1.23755293E+01
 -2.47510585E+01  0.00000000E+00  1.23755293E+01  1.23755293E+01 -2.47510585E+01
  0.00000000E+00  1.23755293E+01  1.23755293E+01 -2.47510585E+01  0.00000000E+00
  1.23755293E+01  1.23755293E+01 -2.47510585E+01  0.00000000E+00  1.23755293E+01
  1.23755293E+01 -2.47510585E+01  0.00000000E+00  1.23755293E+01  1.23755293E+01
 -2.47510585E+01  0.00000000E+00  1.23755293E+01  1.23755293E+01 -2.47510585E+01
  0.00000000E+00  1.23755293E+01  1.23755293E+01 -2.47510585E+01  0.00000000E+00
  1.23755293E+01  1.23755293E+01 -2.47510585E+01  0.00000000E+00  1.23755293E+01
  1.23755293E+01 -2.47510585E+01  0.00000000E+00  1.23755293E+01  1.23755293E+01
 -2.47510585E+01  0.00000000E+00  1.23755293E+01  1.23755293E+01 -2.47510585E+01
  0.00000000E+00  1.23755293E+01  1.23755293E+01 -2.47510585E+01  0.00000000E+00
  1.23755293E+01  1.23755293E+01 -2.47510585E+01  0.00000000E+00  1.23755293E+01
  1.23755293E+01 -2.47510585E+01  0.00000000E+00  1.23755293E+01  1.23755293E+01
 -2.47510585E+01  0.00000000E+00  1.23755293E+01  1.23755293E+01 -2.47510585E+01
  0.00000000E+00  1.23755293E+01  1.23755293E+01 -2.47510585E+01  0.00000000E+00
  1.23755293E+01  1.23755293E+01 -2.47510585E+01  0.00000000E+00  1.23755293E+01
  1.23755293E+01 -2.47510585E+01  0.00000000E+00  1.23755293E+01  1.23755293E+01
 -2.47510585E+01  0.00000000E+00  1.23755293E+01  1.23755293E+01 -2.47510585E+01
  0.00000000E+00  1.23755293E+01  1.23755293E+01 -2.47510585E+01  0.00000000E+00
  1.23755293E+01  1.23755293E+01 -2.47510585E+01  0.00000000E+00  1.23755293E+01
  1.23755293E+01 -2.47510585E+01  0.00000000E+00  1.23755293E+01  1.23755293E+01
 -2.47510585E+01  0.00000000E+00  1.23755293E+01  1.23755293E+01 -2.47510585E+01
  0.00000000E+00  1.23755293E+01  1.23755293E+01 -2.47510585E+01  0.00000000E+00
  1.23755293E+01  1.23755293E+01 -2.47510585E+01  0.00000000E+00  1.23755293E+01
  1.23755293E+01 -2.47510585E+01  0.00000000E+00  1.23755293E+01  1.23755293E+01
 -2.47510585E+01  0.00000000E+00  1.23755293E+01  1.23755293E+01 -2.47510585E+01
  0.00000000E+00  1.23755293E+01  1.23755293E+01 -2.47510585E+01  0.00000000E+00
  1.23755293E+01  1.23755293E+01 -2.47510585E+01  0.00000000E+00  1.23755293E+01
  1.23755293E+01 -2.47510585E+01  0.00000000E+00  1.23755293E+01  1.23755293E+01
 -2.47510585E+01  0.00000000E+00  1.23755293E+01  1.23755293E+01 -2.47510585E+01
  0.00000000E+00  1.23755293E+01  1.23755293E+01 -2.47510585E+01  0.00000000E+00
  1.23755293E+01  1.23755293E+01 -2.47510585E+01  0.00000000E+00  1.23755293E+01
  1.23755293E+01 -2.47510585E+01  0.00000000E+00  1.23755293E+01  1.23755293E+01
 -2.47510585E+01  0.00000000E+00  1.23755293E+01  1.23755293E+01 -2.47510585E+01
  0.00000000E+00  1.23755293E+01  1.23755293E+01 -2.47510585E+01  0.00000000E+00
  1.23755293E+01  1.23755293E+01 -2.47510585E+01  0.00000000E+00  1.23755293E+01
  1.23755293E+01 -2.47510585E+01  0.00000000E+00  1.23755293E+01  1.23755293E+01
 -2.47510585E+01  0.00000000E+00  1.23755293E+01  1.23755293E+01 -2.47510585E+01
  0.00000000E+00  1.23755293E+01  1.23755293E+01 -2.47510585E+01  0.00000000E+00
  1.23755293E+01  1.23755293E+01 -2.47510585E+01  0.00000000E+00  1.23755293E+01
  1.23755293E+01 -2.47510585E+01  0.00000000E+00  1.23755293E+01  1.23755293E+01
 -2.47510585E+01  0.00000000E+00  1.23755293E+01  1.23755293E+01 -2.47510585E+01
  0.00000000E+00  1.23755293E+01  1.23755293E+01 -2.47510585E+01  0.00000000E+00
  1.23755293E+01  1.23755293E+01 -2.47510585E+01  0.00000000E+00  1.23755293E+01
  1.23755293E+01 -2.47510585E+01  0.00000000E+00  1.23755293E+01  1.23755293E+01
 -2.47510585E+01  0.00000000E+00  1.23755293E+01  1.23755293E+01 -2.47510585E+01
  0.00000000E+00  1.23755293E+01  1.23755293E+01 -2.47510585E+01  0.00000000E+00
  1.23755293E+01  1.23755293E+01 -2.47510585E+01  0.00000000E+00  1.23755293E+01
  1.23755293E+01 -2.47510585E+01  0.00000000E+00  1.23755293E+01  1.23755293E+01
 -2.47510585E+01  0.00000000E+00  1.23755293E+01  1.23755293E+01 -2.47510585E+01
  0.00000000E+00  1.23755293E+01  1.23755293E+01 -2.47510585E+01  0.00000000E+00
  1.23755293E+01  1.23755293E+01 -2.47510585E+01  0.00000000E+00  1.23755293E+01
  1.23755293E+01 -2.47510585E+01  0.00000000E+00  1.23755293E+01  1.23755293E+01
 -2.47510585E+01  0.00000000E+00  1.23755293E+01  1.23755293E+01 -2.47510585E+01
  0.00000000E+00  1.23755293E+01  1.23755293E+01 -2.47510585E+01  0.00000000E+00
  1.23755293E+01  1.23755293E+01 -2.47510585E+01  0.00000000E+00  1.23755293E+01
  1.23755293E+01 -2.47510585E+01  0.00000000E+00  1.23755293E+01  1.23755293E+01
 -2.47510585E+01  0.00000000E+00  1.23755293E+01  1.23755293E+01 -2.47510585E+01
  0.00000000E+00  1.23755293E+01  1.23755293E+01 -2.47510585E+01  0.00000000E+00
  1.23755293E+01  1.23755293E+01 -2.47510585E+01  0.00000000E+00  1.23755293E+01
  1.23755293E+01 -2.47510585E+01  0.00000000E+00  1.23755293E+01  1.23755293E+01
 -2.47510585E+01  0.00000000E+00  1.23755293E+01  1.23755293E+01 -2.47510585E+01
  0.00000000E+00  1.23755293E+01  1.23755293E+01 -2.47510585E+01  0.00000000E+00
  1.23755293E+01  1.23755293E+01 -2.47510585E+01  0.00000000E+00  1.23755293E+01
  1.23755293E+01 -2.47510585E+01  0.00000000E+00  1.23755293E+01  1.23755293E+01
 -2.47510585E+01  0.00000000E+00  1.23755293E+01  1.23755293E+01 -2.47510585E+01
  0.00000000E+00  1.23755293E+01  1.23755293E+01 -2.47510585E+01  0.00000000E+00
  1.23755293E+01  1.23755293E+01 -2.47510585E+01  0.00000000E+00  1.23755293E+01
  1.23755293E+01 -2.47510585E+01  0.00000000E+00  1.23755293E+01  1.23755293E+01
 -2.47510585E+01  0.00000000E+00  1.23755293E+01  1.23755293E+01 -2.47510585E+01
  0.00000000E+00  1.23755293E+01  1.23755293E+01 -2.47510585E+01  0.00000000E+00
  1.23755293E+01  1.23755293E+01 -2.47510585E+01  0.00000000E+00  1.23755293E+01
  1.23755293E+01 -2.47510585E+01  0.00000000E+00  1.23755293E+01  1.23755293E+01
 -2.47510585E+01  0.00000000E+00  1.23755293E+01  1.23755293E+01 -2.47510585E+01
  0.00000000E+00  1.23755293E+01  1.23755293E+01 -2.47510585E+01  0.00000000E+00
  1.23755293E+01  1.23755293E+01 -2.47510585E+01  0.00000000E+00  1.23755293E+01
  1.23755293E+01 -2.47510585E+01  0.00000000E+00  1.23755293E+01  1.23755293E+01
 -2.47510585E+01  0.00000000E+00  1.23755293E+01  1.23755293E+01 -2.47510585E+01
  0.00000000E+00  1.23755293E+01  1.23755293E+01 -2.47510585E+01  0.00000000E+00
  1.23755293E+01  1.23755293E+01 -2.47510585E+01  0.00000000E+00  1.23755293E+01
  1.23755293E+01 -2.47510585E+01  0.00000000E+00  1.23755293E+01  1.23755293E+01
 -2.47510585E+01  0.00000000E+00  1.23755293E+01  1.23755293E+01 -2.47510585E+01
  0.00000000E+00  1.23755293E+01  1.23755293E+01 -2.47510585E+01  0.00000000E+00
  1.23755293E+01  1.23755293E+01 -2.47510585E+01  0.00000000E+00  1.23755293E+01
  1.23755293E+01 -2.47510585E+01  0.00000000E+00  1.23755293E+01  1.23755293E+01
 -2.47510585E+01  0.00000000E+00  1.23755293E+01  1.23755293E+01 -2.47510585E+01
  0.00000000E+00  1.23755293E+01  1.23755293E+01 -2.47510585E+01  0.00000000E+00
  1.23755293E+01  1.23755293E+01 -2.47510585E+01  0.00000000E+00  1.23755293E+01
  1.23755293E+01 -2.47510585E+01  0.00000000E+00  1.23755293E+01  1.23755293E+01
 -2.47510585E+01  0.00000000E+00  1.23755293E+01  1.23755293E+01 -2.47510585E+01
  0.00000000E+00  1.23755293E+01  1.23755293E+01 -2.47510585E+01  0.00000000E+00
  1.23755293E+01  1.23755293E+01 -2.47510585E+01  0.00000000E+00  1.23755293E+01
  1.23755293E+01 -2.47510585E+01  0.00000000E+00  1.23755293E+01  1.23755293E+01
 -2.47510585E+01  0.00000000E+00  1.23755293E+01  1.23755293E+01 -2.47510585E+01
  0.00000000E+00  1.23755293E+01  1.23755293E+01 -2.47510585E+01  0.00000000E+00
  1.23755293E+01  1.23755293E+01 -2.47510585E+01  0.00000000E+00  1.23755293E+01
  1.23755293E+01 -2.47510585E+01  0.00000000E+00  1.23755293E+01  1.23755293E+01
 -2.47510585E+01  0.00000000E+00  1.23755293E+01  1.23755293E+01 -2.47510585E+01
  0.00000000E+00  1.23755293E+01  1.23755293E+01 -2.47510585E+01  0.00000000E+00
  1.23755293E+01  1.23755293E+01 -2.47510585E+01  0.00000000E+00  1.23755293E+01
  1.23755293E+01 -2.47510585E+01  0.00000000E+00  1.23755293E+01  1.23755293E+01
 -2.47510585E+01  0.00000000E+00  1.23755293E+01  1.23755293E+01 -2.47510585E+01
  0.00000000E+00  1.23755293E+01  1.23755293E+01 -2.47510585E+01  0.00000000E+00
  1.23755293E+01  1.23755293E+01 -2.47510585E+01  0.00000000E+00  1.23755293E+01
  1.23755293E+01 -2.47510585E+01  0.00000000E+00  1.23755293E+01  1.23755293E+01
 -2.47510585E+01  0.00000000E+00  1.23755293E+01  1.23755293E+01 -2.47510585E+01
  0.00000000E+00  1.23755293E+01  1.23755293E+01 -2.47510585E+01  0.00000000E+00
  1.23755293E+01  1.23755293E+01 -2.47510585E+01  0.00000000E+00  1.23755293E+01
  1.23755293E+01 -2.47510585E+01  0.00000000E+00  1.23755293E+01  1.23755293E+01
 -2.47510585E+01  0.00000000E+00  1.23755293E+01  1.23755293E+01 -2.47510585E+01
  0.00000000E+00  1.23755293E+01  1.23755293E+01 -2.47510585E+01  0.00000000E+00
  1.23755293E+01  1.23755293E+01 -2.47510585E+01  0.00000000E+00  1.23755293E+01
  1.23755293E+01 -2.47510585E+01  0.00000000E+00  1.23755293E+01  1.23755293E+01
 -2.47510585E+01  0.00000000E+00  1.23755293E+01  1.23755293E+01 -2.47510585E+01
  0.00000000E+00  1.23755293E+01  1.23755293E+01 -2.47510585E+01  0.00000000E+00
  1.23755293E+01  1.23755293E+01 -2.47510585E+01  0.00000000E+00  1.23755293E+01
  1.23755293E+01 -2.47510585E+01  0.00000000E+00  1.23755293E+01  1.23755293E+01
 -2.47510585E+01  0.00000000E+00  1.23755293E+01  1.23755293E+01 -2.47510585E+01
  0.00000000E+00  1.23755293E+01  1.23755293E+01 -2.47510585E+01  0.00000000E+00
  1.23755293E+01  1.23755293E+01 -2.47510585E+01  0.00000000E+00  1.23755293E+01
  1.23755293E+01 -2.47510585E+01  0.00000000E+00  1.23755293E+01  1.23755293E+01
 -2.47510585E+01  0.00000000E+00  1.23755293E+01  1.23755293E+01 -2.47510585E+01
  0.00000000E+00  1.23755293E+01  1.23755293E+01 -2.47510585E+01  0.00000000E+00
  1.23755293E+01  1.23755293E+01 -2.47510585E+01  0.00000000E+00  1.23755293E+01
  1.23755293E+01 -2.47510585E+01  0.00000000E+00  1.23755293E+01  1.23755293E+01
 -2.47510585E+01  0.00000000E+00  1.23755293E+01  1.23755293E+01 -2.47510585E+01
  0.00000000E+00  1.23755293E+01  1.23755293E+01 -2.47510585E+01  0.00000000E+00
  1.23755293E+01  1.23755293E+01 -2.47510585E+01  0.00000000E+00  1.23755293E+01
  1.23755293E+01 -2.47510585E+01  0.00000000E+00  1.23755293E+01  1.23755293E+01
 -2.47510585E+01  0.00000000E+00  1.23755293E+01  1.23755293E+01 -2.47510585E+01
  0.00000000E+00  1.23755293E+01  1.23755293E+01 -2.47510585E+01  0.00000000E+00
  1.23755293E+01  1.23755293E+01 -2.47510585E+01  0.00000000E+00  1.23755293E+01
  1.23755293E+01 -2.47510585E+01  0.00000000E+00  1.23755293E+01  1.23755293E+01
 -2.47510585E+01  0.00000000E+00  1.23755293E+01  1.23755293E+01 -2.47510585E+01
  0.00000000E+00  1.23755293E+01  1.23755293E+01 -2.47510585E+01  0.00000000E+00
  1.23755293E+01  1.23755293E+01 -2.47510585E+01  0.00000000E+00  1.23755293E+01
  1.23755293E+01 -2.47510585E+01  0.00000000E+00  1.23755293E+01  1.23755293E+01
 -2.47510585E+01  0.00000000E+00  1.23755293E+01  1.23755293E+01 -2.47510585E+01
  0.00000000E+00  1.23755293E+01  1.23755293E+01 -2.47510585E+01  0.00000000E+00
  1.23755293E+01  1.23755293E+01 -2.47510585E+01  0.00000000E+00  1.23755293E+01
  1.23755293E+01 -2.47510585E+01  0.00000000E+00  1.23755293E+01  1.23755293E+01
 -2.47510585E+01  0.00000000E+00  1.23755293E+01  1.23755293E+01 -2.47510585E+01
  0.00000000E+00  1.23755293E+01  1.23755293E+01 -2.47510585E+01  0.00000000E+00
  1.23755293E+01  1.23755293E+01 -2.47510585E+01  0.00000000E+00  1.23755293E+01
  1.23755293E+01 -2.47510585E+01  0.00000000E+00  1.23755293E+01  1.23755293E+01
 -2.47510585E+01  0.00000000E+00  1.23755293E+01  1.23755293E+01 -2.47510585E+01
  0.00000000E+00  1.23755293E+01  1.23755293E+01 -2.47510585E+01  0.00000000E+00
  1.23755293E+01  1.23755293E+01 -2.47510585E+01  0.00000000E+00  1.23755293E+01
  1.23755293E+01 -2.47510585E+01  0.00000000E+00  1.23755293E+01  1.23755293E+01
 -2.47510585E+01  0.00000000E+00  1.23755293E+01  1.23755293E+01 -2.47510585E+01
  0.00000000E+00  1.23755293E+01  1.23755293E+01 -2.47510585E+01  0.00000000E+00
  1.23755293E+01  1.23755293E+01 -2.47510585E+01  0.00000000E+00  1.23755293E+01
  1.23755293E+01 -2.47510585E+01  0.00000000E+00  1.23755293E+01  1.23755293E+01
 -2.47510585E+01  0.00000000E+00  1.23755293E+01  1.23755293E+01 -2.47510585E+01
  0.00000000E+00  1.23755293E+01  1.23755293E+01 -2.47510585E+01  0.00000000E+00
  1.23755293E+01  1.23755293E+01 -2.47510585E+01  0.00000000E+00  1.23755293E+01
  1.23755293E+01 -2.47510585E+01  0.00000000E+00  1.23755293E+01  1.23755293E+01
 -2.47510585E+01  0.00000000E+00  1.23755293E+01  1.23755293E+01 -2.47510585E+01
  0.00000000E+00  1.23755293E+01  1.23755293E+01 -2.47510585E+01  0.00000000E+00
  1.23755293E+01  1.23755293E+01 -2.47510585E+01  0.00000000E+00  1.23755293E+01
  1.23755293E+01 -2.47510585E+01  0.00000000E+00  1.23755293E+01  1.23755293E+01
 -2.47510585E+01  0.00000000E+00  1.23755293E+01  1.23755293E+01 -2.47510585E+01
  0.00000000E+00  1.23755293E+01  1.23755293E+01 -2.47510585E+01  0.00000000E+00
  1.23755293E+01  1.23755293E+01 -2.47510585E+01  0.00000000E+00  1.23755293E+01
  1.23755293E+01 -2.47510585E+01  0.00000000E+00  1.23755293E+01  1.23755293E+01
 -2.47510585E+01  0.00000000E+00  1.23755293E+01  1.23755293E+01 -2.47510585E+01
  0.00000000E+00  1.23755293E+01  1.23755293E+01 -2.47510585E+01  0.00000000E+00
  1.23755293E+01  1.23755293E+01 -2.47510585E+01  0.00000000E+00  1.23755293E+01
  1.23755293E+01 -2.47510585E+01  0.00000000E+00  1.23755293E+01  1.23755293E+01
 -2.47510585E+01  0.00000000E+00  1.23755293E+01  1.23755293E+01 -2.47510585E+01
  0.00000000E+00  1.23755293E+01  1.23755293E+01 -2.47510585E+01  0.00000000E+00
  1.23755293E+01  1.23755293E+01 -2.47510585E+01  0.00000000E+00  1.23755293E+01
  1.23755293E+01 -2.47510585E+01  0.00000000E+00  1.23755293E+01  1.23755293E+01
 -2.47510585E+01  0.00000000E+00  1.23755293E+01  1.23755293E+01 -2.47510585E+01
  0.00000000E+00  1.23755293E+01  1.23755293E+01 -2.47510585E+01  0.00000000E+00
  1.23755293E+01  1.23755293E+01 -2.47510585E+01  0.00000000E+00  1.23755293E+01
  1.23755293E+01 -2.47510585E+01  0.00000000E+00  1.23755293E+01  1.23755293E+01
 -2.47510585E+01  0.00000000E+00  1.23755293E+01  1.23755293E+01 -2.47510585E+01
  0.00000000E+00  1.23755293E+01  1.23755293E+01 -2.47510585E+01  0.00000000E+00
  1.23755293E+01  1.23755293E+01 -2.47510585E+01  0.00000000E+00  1.23755293E+01
  1.23755293E+01 -2.47510585E+01  0.00000000E+00  1.23755293E+01  1.23755293E+01
 -2.47510585E+01  0.00000000E+00  1.23755293E+01  1.23755293E+01 -2.47510585E+01
  0.00000000E+00  1.23755293E+01  1.23755293E+01 -2.47510585E+01  0.00000000E+00
  1.23755293E+01  1.23755293E+01 -2.47510585E+01  0.00000000E+00  1.23755293E+01
  1.23755293E+01 -2.47510585E+01  0.00000000E+00  1.23755293E+01  1.23755293E+01
 -2.47510585E+01  0.00000000E+00  1.23755293E+01  1.23755293E+01 -2.47510585E+01
  0.00000000E+00  1.23755293E+01  1.23755293E+01 -2.47510585E+01  0.00000000E+00
  1.23755293E+01  1.23755293E+01 -2.47510585E+01  0.00000000E+00  1.23755293E+01
  1.23755293E+01 -2.47510585E+01  0.00000000E+00  1.23755293E+01  1.23755293E+01
 -2.47510585E+01  0.00000000E+00  1.23755293E+01  1.23755293E+01 -2.47510585E+01
  0.00000000E+00  1.23755293E+01  1.23755293E+01 -2.47510585E+01  0.00000000E+00
  1.23755293E+01  1.23755293E+01 -2.47510585E+01  0.00000000E+00  1.23755293E+01
  1.23755293E+01 -2.47510585E+01  0.00000000E+00  1.23755293E+01  1.23755293E+01
 -2.47510585E+01  0.00000000E+00  1.23755293E+01  1.23755293E+01 -2.47510585E+01
  0.00000000E+00  1.23755293E+01  1.23755293E+01 -2.47510585E+01  0.00000000E+00
  1.23755293E+01  1.23755293E+01 -2.47510585E+01  0.00000000E+00  1.23755293E+01
  1.23755293E+01 -2.47510585E+01  0.00000000E+00  1.23755293E+01  1.23755293E+01
 -2.47510585E+01  0.00000000E+00  1.23755293E+01  1.23755293E+01 -2.47510585E+01
  0.00000000E+00  1.23755293E+01  1.23755293E+01 -2.47510585E+01  0.00000000E+00
  1.23755293E+01  1.23755293E+01 -2.47510585E+01  0.00000000E+00  1.23755293E+01
  1.23755293E+01 -2.47510585E+01  0.00000000E+00  1.23755293E+01  1.23755293E+01
 -2.47510585E+01  0.00000000E+00  1.23755293E+01  1.23755293E+01 -2.47510585E+01
  0.00000000E+00  1.23755293E+01  1.23755293E+01 -2.47510585E+01  0.00000000E+00
  1.23755293E+01  1.23755293E+01 -2.47510585E+01  0.00000000E+00  1.23755293E+01
  1.23755293E+01 -2.47510585E+01  0.00000000E+00  1.23755293E+01  1.23755293E+01
 -2.47510585E+01  0.00000000E+00  1.23755293E+01  1.23755293E+01 -2.47510585E+01
  0.00000000E+00  1.23755293E+01  1.23755293E+01 -2.47510585E+01  0.00000000E+00
  1.23755293E+01  1.23755293E+01 -2.47510585E+01  0.00000000E+00  1.23755293E+01
  1.23755293E+01 -2.47510585E+01  0.00000000E+00  1.23755293E+01  1.23755293E+01
 -2.47510585E+01  0.00000000E+00  1.23755293E+01  1.23755293E+01 -2.47510585E+01
  0.00000000E+00  1.23755293E+01  1.23755293E+01 -2.47510585E+01  0.00000000E+00
  1.23755293E+01  1.23755293E+01 -2.47510585E+01  0.00000000E+00  1.23755293E+01
  1.23755293E+01 -2.47510585E+01  0.00000000E+00  1.23755293E+01  1.23755293E+01
 -2.47510585E+01  0.00000000E+00  1.23755293E+01  1.23755293E+01 -2.47510585E+01
  0.00000000E+00  1.23755293E+01  1.23755293E+01 -2.47510585E+01  0.00000000E+00
  1.23755293E+01  1.23755293E+01 -2.47510585E+01  0.00000000E+00  1.23755293E+01
  1.23755293E+01 -2.47510585E+01  0.00000000E+00  1.23755293E+01  1.23755293E+01
 -2.47510585E+01  0.00000000E+00  1.23755293E+01  1.23755293E+01 -2.47510585E+01
  0.00000000E+00  1.23755293E+01  1.23755293E+01 -2.47510585E+01  0.00000000E+00
  1.23755293E+01  1.23755293E+01 -2.47510585E+01  0.00000000E+00  1.23755293E+01
  1.23755293E+01 -2.47510585E+01  0.00000000E+00  1.23755293E+01  1.23755293E+01
 -2.47510585E+01  0.00000000E+00  1.23755293E+01  1.23755293E+01 -2.47510585E+01
  0.00000000E+00  1.23755293E+01  1.23755293E+01 -2.47510585E+01  0.00000000E+00
  1.23755293E+01  1.23755293E+01 -2.47510585E+01  0.00000000E+00  1.23755293E+01
  1.23755293E+01 -2.47510585E+01  0.00000000E+00  1.23755293E+01  1.23755293E+01
 -2.47510585E+01  0.00000000E+00  1.23755293E+01  1.23755293E+01 -2.47510585E+01
  0.00000000E+00  1.23755293E+01  1.23755293E+01 -2.47510585E+01  0.00000000E+00
  1.23755293E+01  1.23755293E+01 -2.47510585E+01  0.00000000E+00  1.23755293E+01
  1.23755293E+01 -2.47510585E+01  0.00000000E+00  1.23755293E+01  1.23755293E+01
 -2.47510585E+01  0.00000000E+00  1.23755293E+01  1.23755293E+01 -2.47510585E+01
  0.00000000E+00  1.23755293E+01  1.23755293E+01 -2.47510585E+01  0.00000000E+00
  1.23755293E+01  1.23755293E+01 -2.47510585E+01  0.00000000E+00  1.23755293E+01
  1.23755293E+01 -2.47510585E+01  0.00000000E+00  1.23755293E+01  1.23755293E+01
 -2.47510585E+01  0.00000000E+00  1.23755293E+01  1.23755293E+01 -2.47510585E+01
  0.00000000E+00  1.23755293E+01  1.23755293E+01 -2.47510585E+01  0.00000000E+00
  1.23755293E+01  1.23755293E+01 -2.47510585E+01  0.00000000E+00  1.23755293E+01
  1.23755293E+01 -2.47510585E+01  0.00000000E+00  1.23755293E+01  1.23755293E+01
 -2.47510585E+01  0.00000000E+00  1.23755293E+01  1.23755293E+01 -2.47510585E+01
  0.00000000E+00  1.23755293E+01  1.23755293E+01 -2.47510585E+01  0.00000000E+00
  1.23755293E+01  1.23755293E+01 -2.47510585E+01  0.00000000E+00  1.23755293E+01
  1.23755293E+01 -2.47510585E+01  0.00000000E+00  1.23755293E+01  1.23755293E+01
 -2.47510585E+01  0.00000000E+00  1.23755293E+01  1.23755293E+01 -2.47510585E+01
  0.00000000E+00  1.23755293E+01  1.23755293E+01 -2.47510585E+01  0.00000000E+00
  1.23755293E+01  1.23755293E+01 -2.47510585E+01  0.00000000E+00  1.23755293E+01
  1.23755293E+01 -2.47510585E+01  0.00000000E+00  1.23755293E+01  1.23755293E+01
 -2.47510585E+01  0.00000000E+00  1.23755293E+01  1.23755293E+01 -2.47510585E+01
  0.00000000E+00  1.23755293E+01  1.23755293E+01 -2.47510585E+01  0.00000000E+00
  1.23755293E+01  1.23755293E+01 -2.47510585E+01  0.00000000E+00  1.23755293E+01
  1.23755293E+01 -2.47510585E+01  0.00000000E+00  1.23755293E+01  1.23755293E+01
 -2.47510585E+01  0.00000000E+00  1.23755293E+01  1.23755293E+01 -2.47510585E+01
  0.00000000E+00  1.23755293E+01  1.23755293E+01 -2.47510585E+01  0.00000000E+00
  1.23755293E+01  1.23755293E+01 -2.47510585E+01  0.00000000E+00  1.23755293E+01
  1.23755293E+01 -2.47510585E+01  0.00000000E+00  1.23755293E+01  1.23755293E+01
 -2.47510585E+01  0.00000000E+00  1.23755293E+01  1.23755293E+01 -2.47510585E+01
  0.00000000E+00  1.23755293E+01  1.23755293E+01 -2.47510585E+01  0.00000000E+00
  1.23755293E+01  1.23755293E+01 -2.47510585E+01  0.00000000E+00  1.23755293E+01
  1.23755293E+01 -2.47510585E+01  0.00000000E+00  1.23755293E+01  1.23755293E+01
 -2.47510585E+01  0.00000000E+00  1.23755293E+01  1.23755293E+01 -2.47510585E+01
  0.00000000E+00  1.23755293E+01  1.23755293E+01 -2.47510585E+01  0.00000000E+00
  1.23755293E+01  1.23755293E+01 -2.47510585E+01  0.00000000E+00  1.23755293E+01
  1.23755293E+01 -2.47510585E+01  0.00000000E+00  1.23755293E+01  1.23755293E+01
 -2.47510585E+01  0.00000000E+00  1.23755293E+01  1.23755293E+01 -2.47510585E+01
  0.00000000E+00  1.23755293E+01  1.23755293E+01 -2.47510585E+01  0.00000000E+00
  1.23755293E+01  1.23755293E+01 -2.47510585E+01  0.00000000E+00  1.23755293E+01
  1.23755293E+01 -2.47510585E+01  0.00000000E+00  1.23755293E+01  1.23755293E+01
 -2.47510585E+01  0.00000000E+00  1.23755293E+01  1.23755293E+01 -2.47510585E+01
  0.00000000E+00  1.23755293E+01  1.23755293E+01 -2.47510585E+01  0.00000000E+00
  1.23755293E+01  1.23755293E+01 -2.47510585E+01  0.00000000E+00  1.23755293E+01
  1.23755293E+01 -2.47510585E+01  0.00000000E+00  1.23755293E+01  1.23755293E+01
 -2.47510585E+01  0.00000000E+00  1.23755293E+01  1.23755293E+01 -2.47510585E+01
  0.00000000E+00  1.23755293E+01  1.23755293E+01 -2.47510585E+01  0.00000000E+00
  1.23755293E+01  1.23755293E+01 -2.47510585E+01  0.00000000E+00  1.23755293E+01
  1.23755293E+01 -2.47510585E+01  0.00000000E+00  1.23755293E+01  1.23755293E+01
 -2.47510585E+01  0.00000000E+00  1.23755293E+01  1.23755293E+01 -2.47510585E+01
  0.00000000E+00  1.23755293E+01  1.23755293E+01 -2.47510585E+01  0.00000000E+00
  1.23755293E+01  1.23755293E+01 -2.47510585E+01  0.00000000E+00  1.23755293E+01
  1.23755293E+01 -2.47510585E+01  0.00000000E+00  1.23755293E+01  1.23755293E+01
 -2.47510585E+01  0.00000000E+00  1.23755293E+01  1.23755293E+01 -2.47510585E+01
  0.00000000E+00  1.23755293E+01  1.23755293E+01 -2.47510585E+01  0.00000000E+00
  1.23755293E+01  1.23755293E+01 -2.47510585E+01  0.00000000E+00  1.23755293E+01
  1.23755293E+01 -2.47510585E+01  0.00000000E+00  1.23755293E+01  1.23755293E+01
 -2.47510585E+01  0.00000000E+00  1.23755293E+01  1.23755293E+01 -2.47510585E+01
  0.00000000E+00  1.23755293E+01  1.23755293E+01 -2.47510585E+01  0.00000000E+00
  1.23755293E+01  1.23755293E+01 -2.47510585E+01  0.00000000E+00  1.23755293E+01
  1.23755293E+01 -2.47510585E+01  0.00000000E+00  1.23755293E+01  1.23755293E+01
 -2.47510585E+01  0.00000000E+00  1.23755293E+01  1.23755293E+01 -2.47510585E+01
  0.00000000E+00  1.23755293E+01  1.23755293E+01 -2.47510585E+01  0.00000000E+00
  1.23755293E+01  1.23755293E+01 -2.47510585E+01  0.00000000E+00  1.23755293E+01
  1.23755293E+01 -2.47510585E+01  0.00000000E+00  1.23755293E+01  1.23755293E+01
 -2.47510585E+01  0.00000000E+00  1.23755293E+01  1.23755293E+01 -2.47510585E+01
  0.00000000E+00  1.23755293E+01  1.23755293E+01 -2.47510585E+01  0.00000000E+00
  1.23755293E+01  1.23755293E+01 -2.47510585E+01  0.00000000E+00  1.23755293E+01
  1.23755293E+01 -2.47510585E+01  0.00000000E+00  1.23755293E+01  1.23755293E+01
 -2.47510585E+01  0.00000000E+00  1.23755293E+01  1.23755293E+01 -2.47510585E+01
  0.00000000E+00  1.23755293E+01  1.23755293E+01 -2.47510585E+01  0.00000000E+00
  1.23755293E+01  1.23755293E+01 -2.47510585E+01  0.00000000E+00  1.23755293E+01
  1.23755293E+01 -2.47510585E+01  0.00000000E+00  1.23755293E+01  1.23755293E+01
 -2.47510585E+01  0.00000000E+00  1.23755293E+01  1.23755293E+01 -2.47510585E+01
  0.00000000E+00  1.23755293E+01  1.23755293E+01 -2.47510585E+01  0.00000000E+00
  1.23755293E+01  1.23755293E+01 -2.47510585E+01  0.00000000E+00  1.23755293E+01
  1.23755293E+01 -2.47510585E+01  0.00000000E+00  1.23755293E+01  1.23755293E+01
 -2.47510585E+01  0.00000000E+00  1.23755293E+01  1.23755293E+01 -2.47510585E+01
  0.00000000E+00  1.23755293E+01  1.23755293E+01 -2.47510585E+01  0.00000000E+00
  1.23755293E+01  1.23755293E+01 -2.47510585E+01  0.00000000E+00  1.23755293E+01
  1.23755293E+01 -2.47510585E+01  0.00000000E+00  1.23755293E+01  1.23755293E+01
 -2.47510585E+01  0.00000000E+00  1.23755293E+01  1.23755293E+01 -2.47510585E+01
  0.00000000E+00  1.23755293E+01  1.23755293E+01 -2.47510585E+01  0.00000000E+00
  1.23755293E+01  1.23755293E+01 -2.47510585E+01  0.00000000E+00  1.23755293E+01
  1.23755293E+01 -2.47510585E+01  0.00000000E+00  1.23755293E+01  1.23755293E+01
 -2.47510585E+01  0.00000000E+00  1.23755293E+01  1.23755293E+01 -2.47510585E+01
  0.00000000E+00  1.23755293E+01  1.23755293E+01 -2.47510585E+01  0.00000000E+00
  1.23755293E+01  1.23755293E+01 -2.47510585E+01  0.00000000E+00  1.23755293E+01
  1.23755293E+01 -2.47510585E+01  0.00000000E+00  1.23755293E+01  1.23755293E+01
 -2.47510585E+01  0.00000000E+00  1.23755293E+01  1.23755293E+01 -2.47510585E+01
  0.00000000E+00  1.23755293E+01  1.23755293E+01 -2.47510585E+01  0.00000000E+00
  1.23755293E+01  1.23755293E+01 -2.47510585E+01  0.00000000E+00  1.23755293E+01
  1.23755293E+01 -2.47510585E+01  0.00000000E+00  1.23755293E+01  1.23755293E+01
 -2.47510585E+01  0.00000000E+00  1.23755293E+01  1.23755293E+01 -2.47510585E+01
  0.00000000E+00  1.23755293E+01  1.23755293E+01 -2.47510585E+01  0.00000000E+00
  1.23755293E+01  1.23755293E+01 -2.47510585E+01  0.00000000E+00  1.23755293E+01
  1.23755293E+01 -2.47510585E+01  0.00000000E+00  1.23755293E+01  1.23755293E+01
 -2.47510585E+01  0.00000000E+00  1.23755293E+01  1.23755293E+01 -2.47510585E+01
  0.00000000E+00  1.23755293E+01  1.23755293E+01 -2.47510585E+01  0.00000000E+00
  1.23755293E+01  1.23755293E+01 -2.47510585E+01  0.00000000E+00  1.23755293E+01
  1.23755293E+01 -2.47510585E+01  0.00000000E+00  1.23755293E+01  1.23755293E+01
 -2.47510585E+01  0.00000000E+00  1.23755293E+01  1.23755293E+01 -2.47510585E+01
  0.00000000E+00  1.23755293E+01  1.23755293E+01 -2.47510585E+01  0.00000000E+00
  1.23755293E+01  1.23755293E+01 -2.47510585E+01  0.00000000E+00  1.23755293E+01
  1.23755293E+01 -2.47510585E+01  0.00000000E+00  1.23755293E+01  1.23755293E+01
 -2.47510585E+01  0.00000000E+00  1.23755293E+01  1.23755293E+01 -2.47510585E+01
  0.00000000E+00  1.23755293E+01  1.23755293E+01 -2.47510585E+01  0.00000000E+00
  1.23755293E+01  1.23755293E+01 -2.47510585E+01  0.00000000E+00  1.23755293E+01
  1.23755293E+01 -2.47510585E+01  0.00000000E+00  1.23755293E+01  1.23755293E+01
 -2.47510585E+01  0.00000000E+00  1.23755293E+01  1.23755293E+01 -2.47510585E+01
  0.00000000E+00  1.23755293E+01  1.23755293E+01 -2.47510585E+01  0.00000000E+00
  1.23755293E+01  1.23755293E+01 -2.47510585E+01  0.00000000E+00  1.23755293E+01
  1.23755293E+01 -2.47510585E+01  0.00000000E+00  1.23755293E+01  1.23755293E+01
 -2.47510585E+01  0.00000000E+00  1.23755293E+01  1.23755293E+01 -2.47510585E+01
  0.00000000E+00  1.23755293E+01  1.23755293E+01 -2.47510585E+01  0.00000000E+00
  1.23755293E+01  1.23755293E+01 -2.47510585E+01  0.00000000E+00  1.23755293E+01
  1.23755293E+01 -2.47510585E+01  0.00000000E+00  1.23755293E+01  1.23755293E+01
 -2.47510585E+01  0.00000000E+00  1.23755293E+01  1.23755293E+01 -2.47510585E+01
  0.00000000E+00  1.23755293E+01  1.23755293E+01 -2.47510585E+01  0.00000000E+00
  1.23755293E+01  1.23755293E+01 -2.47510585E+01  0.00000000E+00  1.23755293E+01
  1.23755293E+01 -2.47510585E+01  0.00000000E+00  1.23755293E+01  1.23755293E+01
 -2.47510585E+01  0.00000000E+00  1.23755293E+01  1.23755293E+01 -2.47510585E+01
  0.00000000E+00  1.23755293E+01  1.23755293E+01 -2.47510585E+01  0.00000000E+00
  1.23755293E+01  1.23755293E+01 -2.47510585E+01  0.00000000E+00  1.23755293E+01
  1.23755293E+01 -2.47510585E+01  0.00000000E+00  1.23755293E+01  1.23755293E+01
 -2.47510585E+01  0.00000000E+00  1.23755293E+01  1.23755293E+01 -2.47510585E+01
  0.00000000E+00  1.23755293E+01  1.23755293E+01 -2.47510585E+01  0.00000000E+00
  1.23755293E+01  1.23755293E+01 -2.47510585E+01  0.00000000E+00  1.23755293E+01
  1.23755293E+01 -2.47510585E+01  0.00000000E+00  1.23755293E+01  1.23755293E+01
 -2.47510585E+01  0.00000000E+00  1.23755293E+01  1.23755293E+01 -2.47510585E+01
  0.00000000E+00  1.23755293E+01  1.23755293E+01 -2.47510585E+01  0.00000000E+00
  1.23755293E+01  1.23755293E+01 -2.47510585E+01  0.00000000E+00  1.23755293E+01
  1.23755293E+01 -2.47510585E+01  0.00000000E+00  1.23755293E+01  1.23755293E+01
 -2.47510585E+01  0.00000000E+00  1.23755293E+01  1.23755293E+01 -2.47510585E+01
  0.00000000E+00  1.23755293E+01  1.23755293E+01 -2.47510585E+01  0.00000000E+00
  1.23755293E+01  1.23755293E+01 -2.47510585E+01  0.00000000E+00  1.23755293E+01
  1.23755293E+01 -2.47510585E+01  0.00000000E+00  1.23755293E+01  1.23755293E+01
 -2.47510585E+01  0.00000000E+00  1.23755293E+01  1.23755293E+01 -2.47510585E+01
  0.00000000E+00  1.23755293E+01  1.23755293E+01 -2.47510585E+01  0.00000000E+00
  1.23755293E+01  1.23755293E+01 -2.47510585E+01  0.00000000E+00  1.23755293E+01
  1.23755293E+01 -2.47510585E+01  0.00000000E+00  1.23755293E+01  1.23755293E+01
 -2.47510585E+01  0.00000000E+00  1.23755293E+01  1.23755293E+01 -2.47510585E+01
  0.00000000E+00  1.23755293E+01  1.23755293E+01 -2.47510585E+01  0.00000000E+00
  1.23755293E+01  1.23755293E+01 -2.47510585E+01  0.00000000E+00  1.23755293E+01
  1.23755293E+01 -2.47510585E+01  0.00000000E+00  1.23755293E+01  1.23755293E+01
 -2.47510585E+01  0.00000000E+00  1.23755293E+01  1.23755293E+01 -2.47510585E+01
  0.00000000E+00  1.23755293E+01  1.23755293E+01 -2.47510585E+01  0.00000000E+00
  1.23755293E+01  1.23755293E+01 -2.47510585E+01  0.00000000E+00  1.23755293E+01
  1.23755293E+01 -2.47510585E+01  0.00000000E+00  1.23755293E+01  1.23755293E+01
 -2.47510585E+01  0.00000000E+00  1.23755293E+01  1.23755293E+01 -2.47510585E+01
  0.00000000E+00  1.23755293E+01  1.23755293E+01 -2.47510585E+01  0.00000000E+00
  1.23755293E+01  1.23755293E+01 -2.47510585E+01  0.00000000E+00  1.23755293E+01
  1.23755293E+01 -2.47510585E+01  0.00000000E+00  1.23755293E+01  1.23755293E+01
 -2.47510585E+01  0.00000000E+00  1.23755293E+01  1.23755293E+01 -2.47510585E+01
  0.00000000E+00  1.23755293E+01  1.23755293E+01 -2.47510585E+01  0.00000000E+00
  1.23755293E+01  1.23755293E+01 -2.47510585E+01  0.00000000E+00  1.23755293E+01
  1.23755293E+01 -2.47510585E+01  0.00000000E+00  1.23755293E+01  1.23755293E+01
 -2.47510585E+01  0.00000000E+00  1.23755293E+01  1.23755293E+01 -2.47510585E+01
  0.00000000E+00  1.23755293E+01  1.23755293E+01 -2.47510585E+01  0.00000000E+00
  1.23755293E+01  1.23755293E+01 -2.47510585E+01  0.00000000E+00  1.23755293E+01
  1.23755293E+01 -2.47510585E+01  0.00000000E+00  1.23755293E+01  1.23755293E+01
 -2.47510585E+01  0.00000000E+00  1.23755293E+01  1.23755293E+01 -2.47510585E+01
  0.00000000E+00  1.23755293E+01  1.23755293E+01 -2.47510585E+01  0.00000000E+00
  1.23755293E+01  1.23755293E+01 -2.47510585E+01  0.00000000E+00  1.23755293E+01
  1.23755293E+01 -2.47510585E+01  0.00000000E+00  1.23755293E+01  1.23755293E+01
 -2.47510585E+01  0.00000000E+00  1.23755293E+01  1.23755293E+01 -2.47510585E+01
  0.00000000E+00  1.23755293E+01  1.23755293E+01 -2.47510585E+01  0.00000000E+00
  1.23755293E+01  1.23755293E+01 -2.47510585E+01  0.00000000E+00  1.23755293E+01
  1.23755293E+01 -2.47510585E+01  0.00000000E+00  1.23755293E+01  1.23755293E+01
 -2.47510585E+01  0.00000000E+00  1.23755293E+01  1.23755293E+01 -2.47510585E+01
  0.00000000E+00  1.23755293E+01  1.23755293E+01 -2.47510585E+01  0.00000000E+00
  1.23755293E+01  1.23755293E+01 -2.47510585E+01  0.00000000E+00  1.23755293E+01
  1.23755293E+01 -2.47510585E+01  0.00000000E+00  1.23755293E+01  1.23755293E+01
 -2.47510585E+01  0.00000000E+00  1.23755293E+01  1.23755293E+01 -2.47510585E+01
  0.00000000E+00  1.23755293E+01  1.23755293E+01 -2.47510585E+01  0.00000000E+00
  1.23755293E+01  1.23755293E+01 -2.47510585E+01  0.00000000E+00  1.23755293E+01
  1.23755293E+01 -2.47510585E+01  0.00000000E+00  1.23755293E+01  1.23755293E+01
 -2.47510585E+01  0.00000000E+00  1.23755293E+01  1.23755293E+01 -2.47510585E+01
  0.00000000E+00  1.23755293E+01  1.23755293E+01 -2.47510585E+01  0.00000000E+00
  1.23755293E+01  1.23755293E+01 -2.47510585E+01  0.00000000E+00  1.23755293E+01
  1.23755293E+01 -2.47510585E+01  0.00000000E+00  1.23755293E+01  1.23755293E+01
 -2.47510585E+01  0.00000000E+00  1.23755293E+01  1.23755293E+01 -2.47510585E+01
  0.00000000E+00  1.23755293E+01  1.23755293E+01 -2.47510585E+01  0.00000000E+00
  1.23755293E+01  1.23755293E+01 -2.47510585E+01  0.00000000E+00  1.23755293E+01
  1.23755293E+01 -2.47510585E+01  0.00000000E+00  1.23755293E+01  1.23755293E+01
 -2.47510585E+01  0.00000000E+00  1.23755293E+01  1.23755293E+01 -2.47510585E+01
  0.00000000E+00  1.23755293E+01  1.23755293E+01 -2.47510585E+01  0.00000000E+00
  1.23755293E+01  1.23755293E+01 -2.47510585E+01  0.00000000E+00  1.23755293E+01
  1.23755293E+01 -2.47510585E+01  0.00000000E+00  1.23755293E+01  1.23755293E+01
 -2.47510585E+01  0.00000000E+00  1.23755293E+01  1.23755293E+01 -2.47510585E+01
  0.00000000E+00  1.23755293E+01  1.23755293E+01 -2.47510585E+01  0.00000000E+00
  1.23755293E+01  1.23755293E+01 -2.47510585E+01  0.00000000E+00  1.23755293E+01
  1.23755293E+01 -2.47510585E+01  0.00000000E+00  1.23755293E+01  1.23755293E+01
 -2.47510585E+01  0.00000000E+00  1.23755293E+01  1.23755293E+01 -2.47510585E+01
  0.00000000E+00  1.23755293E+01  1.23755293E+01 -2.47510585E+01  0.00000000E+00
  1.23755293E+01  1.23755293E+01 -2.47510585E+01  0.00000000E+00  1.23755293E+01
  1.23755293E+01 -2.47510585E+01  0.00000000E+00  1.23755293E+01  1.23755293E+01
 -2.47510585E+01  0.00000000E+00  1.23755293E+01  1.23755293E+01 -2.47510585E+01
  0.00000000E+00  1.23755293E+01  1.23755293E+01 -2.47510585E+01  0.00000000E+00
  1.23755293E+01  1.23755293E+01 -2.47510585E+01  0.00000000E+00  1.23755293E+01
  1.23755293E+01 -2.47510585E+01  0.00000000E+00  1.23755293E+01  1.23755293E+01
 -2.47510585E+01  0.00000000E+00  1.23755293E+01  1.23755293E+01 -2.47510585E+01
  0.00000000E+00  1.23755293E+01  1.23755293E+01 -2.47510585E+01  0.00000000E+00
  1.23755293E+01  1.23755293E+01 -2.47510585E+01  0.00000000E+00  1.23755293E+01
  1.23755293E+01 -2.47510585E+01  0.00000000E+00  1.23755293E+01  1.23755293E+01
 -2.47510585E+01  0.00000000E+00  1.23755293E+01  1.23755293E+01 -2.47510585E+01
  0.00000000E+00  1.23755293E+01  1.23755293E+01 -2.47510585E+01  0.00000000E+00
  1.23755293E+01  1.23755293E+01 -2.47510585E+01  0.00000000E+00  1.23755293E+01
  1.23755293E+01 -2.47510585E+01  0.00000000E+00  1.23755293E+01  1.23755293E+01
 -2.47510585E+01  0.00000000E+00  1.23755293E+01  1.23755293E+01 -2.47510585E+01
  0.00000000E+00  1.23755293E+01  1.23755293E+01 -2.47510585E+01  0.00000000E+00
  1.23755293E+01  1.23755293E+01 -2.47510585E+01  0.00000000E+00  1.23755293E+01
  1.23755293E+01 -2.47510585E+01  0.00000000E+00  1.23755293E+01  1.23755293E+01
 -2.47510585E+01  0.00000000E+00  1.23755293E+01  1.23755293E+01 -2.47510585E+01
  0.00000000E+00  1.23755293E+01  1.23755293E+01 -2.47510585E+01  0.00000000E+00
  1.23755293E+01  1.23755293E+01 -2.47510585E+01  0.00000000E+00  1.23755293E+01
  1.23755293E+01 -2.47510585E+01  0.00000000E+00  1.23755293E+01  1.23755293E+01
 -2.47510585E+01  0.00000000E+00  1.23755293E+01  1.23755293E+01 -2.47510585E+01
  0.00000000E+00  1.23755293E+01  1.23755293E+01 -2.47510585E+01  0.00000000E+00
  1.23755293E+01  1.23755293E+01 -2.47510585E+01  0.00000000E+00  1.23755293E+01
  1.23755293E+01 -2.47510585E+01  0.00000000E+00  1.23755293E+01  1.23755293E+01
 -2.47510585E+01  0.00000000E+00  1.23755293E+01  1.23755293E+01 -2.47510585E+01
  0.00000000E+00  1.23755293E+01  1.23755293E+01 -2.47510585E+01  0.00000000E+00
  1.23755293E+01  1.23755293E+01 -2.47510585E+01  0.00000000E+00  1.23755293E+01
  1.23755293E+01 -2.47510585E+01  0.00000000E+00  1.23755293E+01  1.23755293E+01
 -2.47510585E+01  0.00000000E+00  1.23755293E+01  1.23755293E+01 -2.47510585E+01
  0.00000000E+00  1.23755293E+01  1.23755293E+01 -2.47510585E+01  0.00000000E+00
  1.23755293E+01  1.23755293E+01 -2.47510585E+01  0.00000000E+00  1.23755293E+01
  1.23755293E+01 -2.47510585E+01  0.00000000E+00  1.23755293E+01  1.23755293E+01
 -2.47510585E+01  0.00000000E+00  1.23755293E+01  1.23755293E+01 -2.47510585E+01
  0.00000000E+00  1.23755293E+01  1.23755293E+01 -2.47510585E+01  0.00000000E+00
  1.23755293E+01  1.23755293E+01 -2.47510585E+01  0.00000000E+00  1.23755293E+01
  1.23755293E+01 -2.47510585E+01  0.00000000E+00  1.23755293E+01  1.23755293E+01
 -2.47510585E+01  0.00000000E+00  1.23755293E+01  1.23755293E+01 -2.47510585E+01
  0.00000000E+00  1.23755293E+01  1.23755293E+01 -2.47510585E+01  0.00000000E+00
  1.23755293E+01  1.23755293E+01 -2.47510585E+01  0.00000000E+00  1.23755293E+01
  1.23755293E+01 -2.47510585E+01  0.00000000E+00  1.23755293E+01  1.23755293E+01
 -2.47510585E+01  0.00000000E+00  1.23755293E+01  1.23755293E+01 -2.47510585E+01
  0.00000000E+00  1.23755293E+01  1.23755293E+01 -2.47510585E+01  0.00000000E+00
  1.23755293E+01  1.23755293E+01 -2.47510585E+01  0.00000000E+00  1.23755293E+01
  1.23755293E+01 -2.47510585E+01  0.00000000E+00  1.23755293E+01  1.23755293E+01
 -2.47510585E+01  0.00000000E+00  1.23755293E+01  1.23755293E+01 -2.47510585E+01
  0.00000000E+00  1.23755293E+01  1.23755293E+01 -2.47510585E+01  0.00000000E+00
  1.23755293E+01  1.23755293E+01 -2.47510585E+01  0.00000000E+00  1.23755293E+01
  1.23755293E+01 -2.47510585E+01  0.00000000E+00  1.23755293E+01  1.23755293E+01
 -2.47510585E+01  0.00000000E+00  1.23755293E+01  1.23755293E+01 -2.47510585E+01
  0.00000000E+00  1.23755293E+01  1.23755293E+01 -2.47510585E+01  0.00000000E+00
  1.23755293E+01  1.23755293E+01 -2.47510585E+01  0.00000000E+00  1.23755293E+01
  1.23755293E+01 -2.47510585E+01  0.00000000E+00  1.23755293E+01  1.23755293E+01
 -2.47510585E+01  0.00000000E+00  1.23755293E+01  1.23755293E+01 -2.47510585E+01
  0.00000000E+00  1.23755293E+01  1.23755293E+01 -2.47510585E+01  0.00000000E+00
  1.23755293E+01  1.23755293E+01 -2.47510585E+01  0.00000000E+00  1.23755293E+01
  1.23755293E+01 -2.47510585E+01  0.00000000E+00  1.23755293E+01  1.23755293E+01
 -2.47510585E+01  0.00000000E+00  1.23755293E+01  1.23755293E+01 -2.47510585E+01
  0.00000000E+00  1.23755293E+01  1.23755293E+01 -2.47510585E+01  0.00000000E+00
  1.23755293E+01  1.23755293E+01 -2.47510585E+01  0.00000000E+00  1.23755293E+01
  1.23755293E+01 -2.47510585E+01  0.00000000E+00  1.23755293E+01  1.23755293E+01
 -2.47510585E+01  0.00000000E+00  1.23755293E+01  1.23755293E+01 -2.47510585E+01
  0.00000000E+00  1.23755293E+01  1.23755293E+01 -2.47510585E+01  0.00000000E+00
  1.23755293E+01  1.23755293E+01 -2.47510585E+01  0.00000000E+00  1.23755293E+01
  1.23755293E+01 -2.47510585E+01  0.00000000E+00  1.23755293E+01  1.23755293E+01
 -2.47510585E+01  0.00000000E+00  1.23755293E+01  1.23755293E+01 -2.47510585E+01
  0.00000000E+00  1.23755293E+01  1.23755293E+01 -2.47510585E+01  0.00000000E+00
  1.23755293E+01  1.23755293E+01 -2.47510585E+01  0.00000000E+00  1.23755293E+01
  1.23755293E+01 -2.47510585E+01  0.00000000E+00  1.23755293E+01  1.23755293E+01
 -2.47510585E+01  0.00000000E+00  1.23755293E+01  1.23755293E+01 -2.47510585E+01
  0.00000000E+00  1.23755293E+01  1.23755293E+01 -2.47510585E+01  0.00000000E+00
  1.23755293E+01  1.23755293E+01 -2.47510585E+01  0.00000000E+00  1.23755293E+01
  1.23755293E+01 -2.47510585E+01  0.00000000E+00  1.23755293E+01  1.23755293E+01
 -2.47510585E+01  0.00000000E+00  1.23755293E+01  1.23755293E+01 -2.47510585E+01
  0.00000000E+00  1.23755293E+01  1.23755293E+01 -2.47510585E+01  0.00000000E+00
  1.23755293E+01  1.23755293E+01 -2.47510585E+01  0.00000000E+00  1.23755293E+01
  1.23755293E+01 -2.47510585E+01  0.00000000E+00  1.23755293E+01  1.23755293E+01
 -2.47510585E+01  0.00000000E+00  1.23755293E+01  1.23755293E+01 -2.47510585E+01
  0.00000000E+00  1.23755293E+01  1.23755293E+01 -2.47510585E+01  0.00000000E+00
  1.23755293E+01  1.23755293E+01 -2.47510585E+01  0.00000000E+00  1.23755293E+01
  1.23755293E+01 -2.47510585E+01  0.00000000E+00  1.23755293E+01  1.23755293E+01
 -2.47510585E+01  0.00000000E+00  1.23755293E+01  1.23755293E+01 -2.47510585E+01
  0.00000000E+00  1.23755293E+01  1.23755293E+01 -2.47510585E+01  0.00000000E+00
  1.23755293E+01  1.23755293E+01 -2.47510585E+01  0.00000000E+00  1.23755293E+01
  1.23755293E+01 -2.47510585E+01  0.00000000E+00  1.23755293E+01  1.23755293E+01
 -2.47510585E+01  0.00000000E+00  1.23755293E+01  1.23755293E+01 -2.47510585E+01
  0.00000000E+00  1.23755293E+01  1.23755293E+01 -2.47510585E+01  0.00000000E+00
  1.23755293E+01  1.23755293E+01 -2.47510585E+01  0.00000000E+00  1.23755293E+01
  1.23755293E+01 -2.47510585E+01  0.00000000E+00  1.23755293E+01  1.23755293E+01
 -2.47510585E+01  0.00000000E+00  1.23755293E+01  1.23755293E+01 -2.47510585E+01
  0.00000000E+00  1.23755293E+01  1.23755293E+01 -2.47510585E+01  0.00000000E+00
  1.23755293E+01  1.23755293E+01 -2.47510585E+01  0.00000000E+00  1.23755293E+01
  1.23755293E+01 -2.47510585E+01  0.00000000E+00  1.23755293E+01  1.23755293E+01
 -2.47510585E+01  0.00000000E+00  1.23755293E+01  1.23755293E+01 -2.47510585E+01
  0.00000000E+00  1.23755293E+01  1.23755293E+01 -2.47510585E+01  0.00000000E+00
  1.23755293E+01  1.23755293E+01 -2.47510585E+01  0.00000000E+00  1.23755293E+01
  1.23755293E+01 -2.47510585E+01  0.00000000E+00  1.23755293E+01  1.23755293E+01
 -2.47510585E+01  0.00000000E+00  1.23755293E+01  1.23755293E+01 -2.47510585E+01
  0.00000000E+00  1.23755293E+01  1.23755293E+01 -2.47510585E+01  0.00000000E+00
  1.23755293E+01  1.23755293E+01 -2.47510585E+01  0.00000000E+00  1.23755293E+01
  1.23755293E+01 -2.47510585E+01  0.00000000E+00  1.23755293E+01  1.23755293E+01
 -2.47510585E+01  0.00000000E+00  1.23755293E+01  1.23755293E+01 -2.47510585E+01
  0.00000000E+00  1.23755293E+01  1.23755293E+01 -2.47510585E+01  0.00000000E+00
  1.23755293E+01  1.23755293E+01 -2.47510585E+01  0.00000000E+00  1.23755293E+01
  1.23755293E+01 -2.47510585E+01  0.00000000E+00  1.23755293E+01  1.23755293E+01
 -2.47510585E+01  0.00000000E+00  1.23755293E+01  1.23755293E+01 -2.47510585E+01
  0.00000000E+00  1.23755293E+01  1.23755293E+01 -2.47510585E+01  0.00000000E+00
  1.23755293E+01  1.23755293E+01 -2.47510585E+01  0.00000000E+00  1.23755293E+01
  1.23755293E+01 -2.47510585E+01  0.00000000E+00  1.23755293E+01  1.23755293E+01
 -2.47510585E+01  0.00000000E+00  1.23755293E+01  1.23755293E+01 -2.47510585E+01
  0.00000000E+00  1.23755293E+01  1.23755293E+01 -2.47510585E+01  0.00000000E+00
  1.23755293E+01  1.23755293E+01 -2.47510585E+01  0.00000000E+00  1.23755293E+01
  1.23755293E+01 -2.47510585E+01  0.00000000E+00  1.23755293E+01  1.23755293E+01
 -2.47510585E+01  0.00000000E+00  1.23755293E+01  1.23755293E+01 -2.47510585E+01
  0.00000000E+00  1.23755293E+01  1.23755293E+01 -2.47510585E+01  0.00000000E+00
  1.23755293E+01  1.23755293E+01 -2.47510585E+01  0.00000000E+00  1.23755293E+01
  1.23755293E+01 -2.47510585E+01  0.00000000E+00  1.23755293E+01  1.23755293E+01
 -2.47510585E+01  0.00000000E+00  1.23755293E+01  1.23755293E+01 -2.47510585E+01
  0.00000000E+00  1.23755293E+01  1.23755293E+01 -2.47510585E+01  0.00000000E+00
  1.23755293E+01  1.23755293E+01 -2.47510585E+01  0.00000000E+00  1.23755293E+01
  1.23755293E+01 -2.47510585E+01  0.00000000E+00  1.23755293E+01  1.23755293E+01
 -2.47510585E+01  0.00000000E+00  1.23755293E+01  1.23755293E+01 -2.47510585E+01
  0.00000000E+00  1.23755293E+01  1.23755293E+01 -2.47510585E+01  0.00000000E+00
  1.23755293E+01  1.23755293E+01 -2.47510585E+01  0.00000000E+00  1.23755293E+01
  1.23755293E+01 -2.47510585E+01  0.00000000E+00  1.23755293E+01  1.23755293E+01
 -2.47510585E+01  0.00000000E+00  1.23755293E+01  1.23755293E+01 -2.47510585E+01
  0.00000000E+00  1.23755293E+01  1.23755293E+01 -2.47510585E+01  0.00000000E+00
  1.23755293E+01  1.23755293E+01 -2.47510585E+01  0.00000000E+00  1.23755293E+01
  1.23755293E+01 -2.47510585E+01  0.00000000E+00  1.23755293E+01  1.23755293E+01
 -2.47510585E+01  0.00000000E+00  1.23755293E+01  1.23755293E+01 -2.47510585E+01
  0.00000000E+00  1.23755293E+01  1.23755293E+01 -2.47510585E+01  0.00000000E+00
  1.23755293E+01  1.23755293E+01 -2.47510585E+01  0.00000000E+00  1.23755293E+01
  1.23755293E+01 -2.47510585E+01  0.00000000E+00  1.23755293E+01  1.23755293E+01
 -2.47510585E+01  0.00000000E+00  1.23755293E+01  1.23755293E+01 -2.47510585E+01
  0.00000000E+00  1.23755293E+01  1.23755293E+01 -2.47510585E+01  0.00000000E+00
  1.23755293E+01  1.23755293E+01 -2.47510585E+01  0.00000000E+00  1.23755293E+01
  1.23755293E+01 -2.47510585E+01  0.00000000E+00  1.23755293E+01  1.23755293E+01
 -2.47510585E+01  0.00000000E+00  1.23755293E+01  1.23755293E+01 -2.47510585E+01
  0.00000000E+00  1.23755293E+01  1.23755293E+01 -2.47510585E+01  0.00000000E+00
  1.23755293E+01  1.23755293E+01 -2.47510585E+01  0.00000000E+00  1.23755293E+01
  1.23755293E+01 -2.47510585E+01  0.00000000E+00  1.23755293E+01  1.23755293E+01
 -2.47510585E+01  0.00000000E+00  1.23755293E+01  1.23755293E+01 -2.47510585E+01
  0.00000000E+00  1.23755293E+01  1.23755293E+01 -2.47510585E+01  0.00000000E+00
  1.23755293E+01  1.23755293E+01 -2.47510585E+01  0.00000000E+00  1.23755293E+01
  1.23755293E+01 -2.47510585E+01  0.00000000E+00  1.23755293E+01  1.23755293E+01
 -2.47510585E+01  0.00000000E+00  1.23755293E+01  1.23755293E+01 -2.47510585E+01
  0.00000000E+00  1.23755293E+01  1.23755293E+01 -2.47510585E+01  0.00000000E+00
  1.23755293E+01  1.23755293E+01 -2.47510585E+01  0.00000000E+00  1.23755293E+01
  1.23755293E+01 -2.47510585E+01  0.00000000E+00  1.23755293E+01  1.23755293E+01
 -2.47510585E+01  0.00000000E+00  1.23755293E+01  1.23755293E+01 -2.47510585E+01
  0.00000000E+00  1.23755293E+01  1.23755293E+01 -2.47510585E+01  0.00000000E+00
  1.23755293E+01  1.23755293E+01 -2.47510585E+01  0.00000000E+00  1.23755293E+01
  1.23755293E+01 -2.47510585E+01  0.00000000E+00  1.23755293E+01  1.23755293E+01
 -2.47510585E+01  0.00000000E+00  1.23755293E+01  1.23755293E+01 -2.47510585E+01
  0.00000000E+00  1.23755293E+01  1.23755293E+01 -2.47510585E+01  0.00000000E+00
  1.23755293E+01  1.23755293E+01 -2.47510585E+01  0.00000000E+00  1.23755293E+01
  1.23755293E+01 -2.47510585E+01  0.00000000E+00  1.23755293E+01  1.23755293E+01
 -2.47510585E+01  0.00000000E+00  1.23755293E+01  1.23755293E+01 -2.47510585E+01
  0.00000000E+00  1.23755293E+01  1.23755293E+01 -2.47510585E+01  0.00000000E+00
  1.23755293E+01  1.23755293E+01 -2.47510585E+01  0.00000000E+00  1.23755293E+01
  1.23755293E+01 -2.47510585E+01  0.00000000E+00  1.23755293E+01  1.23755293E+01
 -2.47510585E+01  0.00000000E+00  1.23755293E+01  1.23755293E+01 -2.47510585E+01
  0.00000000E+00  1.23755293E+01  1.23755293E+01 -2.47510585E+01  0.00000000E+00
  1.23755293E+01  1.23755293E+01 -2.47510585E+01  0.00000000E+00  1.23755293E+01
  1.23755293E+01 -2.47510585E+01  0.00000000E+00  1.23755293E+01  1.23755293E+01
 -2.47510585E+01  0.00000000E+00  1.23755293E+01  1.23755293E+01 -2.47510585E+01
  0.00000000E+00  1.23755293E+01  1.23755293E+01 -2.47510585E+01  0.00000000E+00
  1.23755293E+01  1.23755293E+01 -2.47510585E+01  0.00000000E+00  1.23755293E+01
  1.23755293E+01 -2.47510585E+01  0.00000000E+00  1.23755293E+01  1.23755293E+01
 -2.47510585E+01  0.00000000E+00  1.23755293E+01  1.23755293E+01 -2.47510585E+01
  0.00000000E+00  1.23755293E+01  1.23755293E+01 -2.47510585E+01  0.00000000E+00
  1.23755293E+01  1.23755293E+01 -2.47510585E+01  0.00000000E+00  1.23755293E+01
  1.23755293E+01 -2.47510585E+01  0.00000000E+00  1.23755293E+01  1.23755293E+01
 -2.47510585E+01  0.00000000E+00  1.23755293E+01  1.23755293E+01 -2.47510585E+01
  0.00000000E+00  1.23755293E+01  1.23755293E+01 -2.47510585E+01  0.00000000E+00
  1.23755293E+01  1.23755293E+01 -2.47510585E+01  0.00000000E+00  1.23755293E+01
  1.23755293E+01 -2.47510585E+01  0.00000000E+00  1.23755293E+01  1.23755293E+01
 -2.47510585E+01  0.00000000E+00  1.23755293E+01  1.23755293E+01 -2.47510585E+01
  0.00000000E+00  1.23755293E+01  1.23755293E+01 -2.47510585E+01  0.00000000E+00
  1.23755293E+01  1.23755293E+01 -2.47510585E+01  0.00000000E+00  1.23755293E+01
  1.23755293E+01 -2.47510585E+01  0.00000000E+00  1.23755293E+01  1.23755293E+01
 -2.47510585E+01  0.00000000E+00  1.23755293E+01  1.23755293E+01 -2.47510585E+01
  0.00000000E+00  1.23755293E+01  1.23755293E+01 -2.47510585E+01  0.00000000E+00
  1.23755293E+01  1.23755293E+01 -2.47510585E+01  0.00000000E+00  1.23755293E+01
  1.23755293E+01 -2.47510585E+01  0.00000000E+00  1.23755293E+01  1.23755293E+01
 -2.47510585E+01  0.00000000E+00  1.23755293E+01  1.23755293E+01 -2.47510585E+01
  0.00000000E+00  1.23755293E+01  1.23755293E+01 -2.47510585E+01  0.00000000E+00
  1.23755293E+01  1.23755293E+01 -2.47510585E+01  0.00000000E+00  1.23755293E+01
  1.23755293E+01 -2.47510585E+01  0.00000000E+00  1.23755293E+01  1.23755293E+01
 -2.47510585E+01  0.00000000E+00  1.23755293E+01  1.23755293E+01 -2.47510585E+01
  0.00000000E+00  1.23755293E+01  1.23755293E+01 -2.47510585E+01  0.00000000E+00
  1.23755293E+01  1.23755293E+01 -2.47510585E+01  0.00000000E+00  1.23755293E+01
  1.23755293E+01 -2.47510585E+01  0.00000000E+00  1.23755293E+01  1.23755293E+01
 -2.47510585E+01  0.00000000E+00  1.23755293E+01  1.23755293E+01 -2.47510585E+01
  0.00000000E+00  1.23755293E+01  1.23755293E+01 -2.47510585E+01  0.00000000E+00
  1.23755293E+01  1.23755293E+01 -2.47510585E+01  0.00000000E+00  1.23755293E+01
  1.23755293E+01 -2.47510585E+01  0.00000000E+00  1.23755293E+01  1.23755293E+01
 -2.47510585E+01  0.00000000E+00  1.23755293E+01  1.23755293E+01 -2.47510585E+01
  0.00000000E+00  1.23755293E+01  1.23755293E+01 -2.47510585E+01  0.00000000E+00
  1.23755293E+01  1.23755293E+01 -2.47510585E+01  0.00000000E+00  1.23755293E+01
  1.23755293E+01 -2.47510585E+01  0.00000000E+00  1.23755293E+01  1.23755293E+01
 -2.47510585E+01  0.00000000E+00  1.23755293E+01  1.23755293E+01 -2.47510585E+01
  0.00000000E+00  1.23755293E+01  1.23755293E+01 -2.47510585E+01  0.00000000E+00
  1.23755293E+01  1.23755293E+01 -2.47510585E+01  0.00000000E+00  1.23755293E+01
  1.23755293E+01 -2.47510585E+01  0.00000000E+00  1.23755293E+01  1.23755293E+01
 -2.47510585E+01  0.00000000E+00  1.23755293E+01  1.23755293E+01 -2.47510585E+01
  0.00000000E+00  1.23755293E+01  1.23755293E+01 -2.47510585E+01  0.00000000E+00
  1.23755293E+01  1.23755293E+01 -2.47510585E+01  0.00000000E+00  1.23755293E+01
  1.23755293E+01 -2.47510585E+01  0.00000000E+00  1.23755293E+01  1.23755293E+01
 -2.47510585E+01  0.00000000E+00  1.23755293E+01  1.23755293E+01 -2.47510585E+01
  0.00000000E+00  1.23755293E+01  1.23755293E+01 -2.47510585E+01  0.00000000E+00
  1.23755293E+01  1.23755293E+01 -2.47510585E+01  0.00000000E+00  1.23755293E+01
  1.23755293E+01 -2.47510585E+01  0.00000000E+00  1.23755293E+01  1.23755293E+01
 -2.47510585E+01  0.00000000E+00  1.23755293E+01  1.23755293E+01 -2.47510585E+01
  0.00000000E+00  1.23755293E+01  1.23755293E+01 -2.47510585E+01  0.00000000E+00
  1.23755293E+01  1.23755293E+01 -2.47510585E+01  0.00000000E+00  1.23755293E+01
  1.23755293E+01 -2.47510585E+01  0.00000000E+00  1.23755293E+01  1.23755293E+01
 -2.47510585E+01  0.00000000E+00  1.23755293E+01  1.23755293E+01 -2.47510585E+01
  0.00000000E+00  1.23755293E+01  1.23755293E+01 -2.47510585E+01  0.00000000E+00
  1.23755293E+01  1.23755293E+01 -2.47510585E+01  0.00000000E+00  1.23755293E+01
  1.23755293E+01 -2.47510585E+01  0.00000000E+00  1.23755293E+01  1.23755293E+01
 -2.47510585E+01  0.00000000E+00  1.23755293E+01  1.23755293E+01 -2.47510585E+01
  0.00000000E+00  1.23755293E+01  1.23755293E+01 -2.47510585E+01  0.00000000E+00
  1.23755293E+01  1.23755293E+01 -2.47510585E+01  0.00000000E+00  1.23755293E+01
  1.23755293E+01 -2.47510585E+01  0.00000000E+00  1.23755293E+01  1.23755293E+01
 -2.47510585E+01  0.00000000E+00  1.23755293E+01  1.23755293E+01 -2.47510585E+01
  0.00000000E+00  1.23755293E+01  1.23755293E+01 -2.47510585E+01  0.00000000E+00
  1.23755293E+01  1.23755293E+01 -2.47510585E+01  0.00000000E+00  1.23755293E+01
  1.23755293E+01 -2.47510585E+01  0.00000000E+00  1.23755293E+01  1.23755293E+01
 -2.47510585E+01  0.00000000E+00  1.23755293E+01  1.23755293E+01 -2.47510585E+01
  0.00000000E+00  1.23755293E+01  1.23755293E+01 -2.47510585E+01  0.00000000E+00
  1.23755293E+01  1.23755293E+01 -2.47510585E+01  0.00000000E+00  1.23755293E+01
  1.23755293E+01 -2.47510585E+01  0.00000000E+00  1.23755293E+01  1.23755293E+01
 -2.47510585E+01  0.00000000E+00  1.23755293E+01  1.23755293E+01 -2.47510585E+01
  0.00000000E+00  1.23755293E+01  1.23755293E+01 -2.47510585E+01  0.00000000E+00
  1.23755293E+01  1.23755293E+01 -2.47510585E+01  0.00000000E+00  1.23755293E+01
  1.23755293E+01 -2.47510585E+01  0.00000000E+00  1.23755293E+01  1.23755293E+01
 -2.47510585E+01  0.00000000E+00  1.23755293E+01  1.23755293E+01 -2.47510585E+01
  0.00000000E+00  1.23755293E+01  1.23755293E+01 -2.47510585E+01  0.00000000E+00
  1.23755293E+01  1.23755293E+01 -2.47510585E+01  0.00000000E+00  1.23755293E+01
  1.23755293E+01 -2.47510585E+01  0.00000000E+00  1.23755293E+01  1.23755293E+01
 -2.47510585E+01  0.00000000E+00  1.23755293E+01  1.23755293E+01 -2.47510585E+01
  0.00000000E+00  1.23755293E+01  1.23755293E+01 -2.47510585E+01  0.00000000E+00
  1.23755293E+01  1.23755293E+01 -2.47510585E+01  0.00000000E+00  1.23755293E+01
  1.23755293E+01 -2.47510585E+01  0.00000000E+00  1.23755293E+01  1.23755293E+01
 -2.47510585E+01  0.00000000E+00  1.23755293E+01  1.23755293E+01 -2.47510585E+01
  0.00000000E+00  1.23755293E+01  1.23755293E+01 -2.47510585E+01  0.00000000E+00
  1.23755293E+01  1.23755293E+01 -2.47510585E+01  0.00000000E+00  1.23755293E+01
  1.23755293E+01 -2.47510585E+01  0.00000000E+00  1.23755293E+01  1.23755293E+01
 -2.47510585E+01  0.00000000E+00  1.23755293E+01  1.23755293E+01 -2.47510585E+01
  0.00000000E+00  1.23755293E+01  1.23755293E+01 -2.47510585E+01  0.00000000E+00
  1.23755293E+01  1.23755293E+01 -2.47510585E+01  0.00000000E+00  1.23755293E+01
  1.23755293E+01 -2.47510585E+01  0.00000000E+00  1.23755293E+01  1.23755293E+01
 -2.47510585E+01  0.00000000E+00  1.23755293E+01  1.23755293E+01 -2.47510585E+01
  0.00000000E+00  1.23755293E+01  1.23755293E+01 -2.47510585E+01  0.00000000E+00
  1.23755293E+01  1.23755293E+01 -2.47510585E+01  0.00000000E+00  1.23755293E+01
  1.23755293E+01 -2.47510585E+01  0.00000000E+00  1.23755293E+01  1.23755293E+01
 -2.47510585E+01  0.00000000E+00  1.23755293E+01  1.23755293E+01 -2.47510585E+01
  0.00000000E+00  1.23755293E+01  1.23755293E+01 -2.47510585E+01  0.00000000E+00
  1.23755293E+01  1.23755293E+01 -2.47510585E+01  0.00000000E+00  1.23755293E+01
  1.23755293E+01 -2.47510585E+01  0.00000000E+00  1.23755293E+01  1.23755293E+01
 -2.47510585E+01  0.00000000E+00  1.23755293E+01  1.23755293E+01 -2.47510585E+01
  0.00000000E+00  1.23755293E+01  1.23755293E+01 -2.47510585E+01  0.00000000E+00
  1.23755293E+01  1.23755293E+01 -2.47510585E+01  0.00000000E+00  1.23755293E+01
  1.23755293E+01 -2.47510585E+01  0.00000000E+00  1.23755293E+01  1.23755293E+01
 -2.47510585E+01  0.00000000E+00  1.23755293E+01  1.23755293E+01 -2.47510585E+01
  0.00000000E+00  1.23755293E+01  1.23755293E+01 -2.47510585E+01  0.00000000E+00
  1.23755293E+01  1.23755293E+01 -2.47510585E+01  0.00000000E+00  1.23755293E+01
  1.23755293E+01 -2.47510585E+01  0.00000000E+00  1.23755293E+01  1.23755293E+01
 -2.47510585E+01  0.00000000E+00  1.23755293E+01  1.23755293E+01 -2.47510585E+01
  0.00000000E+00  1.23755293E+01  1.23755293E+01 -2.47510585E+01  0.00000000E+00
  1.23755293E+01  1.23755293E+01 -2.47510585E+01  0.00000000E+00  1.23755293E+01
  1.23755293E+01 -2.47510585E+01  0.00000000E+00  1.23755293E+01  1.23755293E+01
 -2.47510585E+01  0.00000000E+00  1.23755293E+01  1.23755293E+01 -2.47510585E+01
  0.00000000E+00  1.23755293E+01  1.23755293E+01 -2.47510585E+01  0.00000000E+00
  1.23755293E+01  1.23755293E+01 -2.47510585E+01  0.00000000E+00  1.23755293E+01
  1.23755293E+01 -2.47510585E+01  0.00000000E+00  1.23755293E+01  1.23755293E+01
 -2.47510585E+01  0.00000000E+00  1.23755293E+01  1.23755293E+01 -2.47510585E+01
  0.00000000E+00  1.23755293E+01  1.23755293E+01 -2.47510585E+01  0.00000000E+00
  1.23755293E+01  1.23755293E+01 -2.47510585E+01  0.00000000E+00  1.23755293E+01
  1.23755293E+01 -2.47510585E+01  0.00000000E+00  1.23755293E+01  1.23755293E+01
 -2.47510585E+01  0.00000000E+00  1.23755293E+01  1.23755293E+01 -2.47510585E+01
  0.00000000E+00  1.23755293E+01  1.23755293E+01 -2.47510585E+01  0.00000000E+00
  1.23755293E+01  1.23755293E+01 -2.47510585E+01  0.00000000E+00  1.23755293E+01
  1.23755293E+01 -2.47510585E+01  0.00000000E+00  1.23755293E+01  1.23755293E+01
 -2.47510585E+01  0.00000000E+00  1.23755293E+01  1.23755293E+01 -2.47510585E+01
  0.00000000E+00  1.23755293E+01  1.23755293E+01 -2.47510585E+01  0.00000000E+00
  1.23755293E+01  1.23755293E+01 -2.47510585E+01  0.00000000E+00  1.23755293E+01
  1.23755293E+01 -2.47510585E+01  0.00000000E+00  1.23755293E+01  1.23755293E+01
 -2.47510585E+01  0.00000000E+00  1.23755293E+01  1.23755293E+01 -2.47510585E+01
  0.00000000E+00  1.23755293E+01  1.23755293E+01 -2.47510585E+01  0.00000000E+00
  1.23755293E+01  1.23755293E+01 -2.47510585E+01  0.00000000E+00  1.23755293E+01
  1.23755293E+01 -2.47510585E+01  0.00000000E+00  1.23755293E+01  1.23755293E+01
 -2.47510585E+01  0.00000000E+00  1.23755293E+01  1.23755293E+01 -2.47510585E+01
  0.00000000E+00  1.23755293E+01  1.23755293E+01 -2.47510585E+01  0.00000000E+00
  1.23755293E+01  1.23755293E+01 -2.47510585E+01  0.00000000E+00  1.23755293E+01
  1.23755293E+01 -2.47510585E+01  0.00000000E+00  1.23755293E+01  1.23755293E+01
 -2.47510585E+01  0.00000000E+00  1.23755293E+01  1.23755293E+01 -2.47510585E+01
  0.00000000E+00  1.23755293E+01  1.23755293E+01 -2.47510585E+01  0.00000000E+00
  1.23755293E+01  1.23755293E+01 -2.47510585E+01  0.00000000E+00  1.23755293E+01
  1.23755293E+01 -2.47510585E+01  0.00000000E+00  1.23755293E+01  1.23755293E+01
 -2.47510585E+01  0.00000000E+00  1.23755293E+01  1.23755293E+01 -2.47510585E+01
  0.00000000E+00  1.23755293E+01  1.23755293E+01 -2.47510585E+01  0.00000000E+00
  1.23755293E+01  1.23755293E+01 -2.47510585E+01  0.00000000E+00  1.23755293E+01
  1.23755293E+01 -2.47510585E+01  0.00000000E+00  1.23755293E+01  1.23755293E+01
 -2.47510585E+01  0.00000000E+00  1.23755293E+01  1.23755293E+01 -2.47510585E+01
  0.00000000E+00  1.23755293E+01  1.23755293E+01 -2.47510585E+01  0.00000000E+00
  1.23755293E+01  1.23755293E+01 -2.47510585E+01  0.00000000E+00  1.23755293E+01
  1.23755293E+01 -2.47510585E+01  0.00000000E+00  1.23755293E+01  1.23755293E+01
 -2.47510585E+01  0.00000000E+00  1.23755293E+01  1.23755293E+01 -2.47510585E+01
  0.00000000E+00  1.23755293E+01  1.23755293E+01 -2.47510585E+01  0.00000000E+00
  1.23755293E+01  1.23755293E+01 -2.47510585E+01  0.00000000E+00  1.23755293E+01
  1.23755293E+01 -2.47510585E+01  0.00000000E+00  1.23755293E+01  1.23755293E+01
 -2.47510585E+01  0.00000000E+00  1.23755293E+01  1.23755293E+01 -2.47510585E+01
  0.00000000E+00  1.23755293E+01  1.23755293E+01 -2.47510585E+01  0.00000000E+00
  1.23755293E+01  1.23755293E+01 -2.47510585E+01  0.00000000E+00  1.23755293E+01
  1.23755293E+01 -2.47510585E+01  0.00000000E+00  1.23755293E+01  1.23755293E+01
 -2.47510585E+01  0.00000000E+00  1.23755293E+01  1.23755293E+01 -2.47510585E+01
  0.00000000E+00  1.23755293E+01  1.23755293E+01 -2.47510585E+01  0.00000000E+00
  1.23755293E+01  1.23755293E+01 -2.47510585E+01  0.00000000E+00  1.23755293E+01
  1.23755293E+01 -2.47510585E+01  0.00000000E+00  1.23755293E+01  1.23755293E+01
 -2.47510585E+01  0.00000000E+00  1.23755293E+01  1.23755293E+01 -2.47510585E+01
  0.00000000E+00  1.23755293E+01  1.23755293E+01 -2.47510585E+01  0.00000000E+00
  1.23755293E+01  1.23755293E+01 -2.47510585E+01  0.00000000E+00  1.23755293E+01
  1.23755293E+01 -2.47510585E+01  0.00000000E+00  1.23755293E+01  1.23755293E+01
 -2.47510585E+01  0.00000000E+00  1.23755293E+01  1.23755293E+01 -2.47510585E+01
  0.00000000E+00  1.23755293E+01  1.23755293E+01 -2.47510585E+01  0.00000000E+00
  1.23755293E+01  1.23755293E+01 -2.47510585E+01  0.00000000E+00  1.23755293E+01
  1.23755293E+01 -2.47510585E+01  0.00000000E+00  1.23755293E+01  1.23755293E+01
 -2.47510585E+01  0.00000000E+00  1.23755293E+01  1.23755293E+01 -2.47510585E+01
  0.00000000E+00  1.23755293E+01  1.23755293E+01 -2.47510585E+01  0.00000000E+00
  1.23755293E+01  1.23755293E+01 -2.47510585E+01  0.00000000E+00  1.23755293E+01
  1.23755293E+01 -2.47510585E+01  0.00000000E+00  1.23755293E+01  1.23755293E+01
 -2.47510585E+01  0.00000000E+00  1.23755293E+01  1.23755293E+01 -2.47510585E+01
  0.00000000E+00  1.23755293E+01  1.23755293E+01 -2.47510585E+01  0.00000000E+00
  1.23755293E+01  1.23755293E+01 -2.47510585E+01  0.00000000E+00  1.23755293E+01
  1.23755293E+01 -2.47510585E+01  0.00000000E+00  1.23755293E+01  1.23755293E+01
 -2.47510585E+01  0.00000000E+00  1.23755293E+01  1.23755293E+01 -2.47510585E+01
  0.00000000E+00  1.23755293E+01  1.23755293E+01 -2.47510585E+01  0.00000000E+00
  1.23755293E+01  1.23755293E+01 -2.47510585E+01  0.00000000E+00  1.23755293E+01
  1.23755293E+01 -2.47510585E+01  0.00000000E+00  1.23755293E+01  1.23755293E+01
 -2.47510585E+01  0.00000000E+00  1.23755293E+01  1.23755293E+01 -2.47510585E+01
  0.00000000E+00  1.23755293E+01  1.23755293E+01 -2.47510585E+01  0.00000000E+00
  1.23755293E+01  1.23755293E+01 -2.47510585E+01  0.00000000E+00  1.23755293E+01
  1.23755293E+01 -2.47510585E+01  0.00000000E+00  1.23755293E+01  1.23755293E+01
 -2.47510585E+01  0.00000000E+00  1.23755293E+01  1.23755293E+01 -2.47510585E+01
  0.00000000E+00  1.23755293E+01  1.23755293E+01 -2.47510585E+01  0.00000000E+00
  1.23755293E+01  1.23755293E+01 -2.47510585E+01  0.00000000E+00  1.23755293E+01
  1.23755293E+01 -2.47510585E+01  0.00000000E+00  1.23755293E+01  1.23755293E+01
 -2.47510585E+01  0.00000000E+00  1.23755293E+01  1.23755293E+01 -2.47510585E+01
  0.00000000E+00  1.23755293E+01  1.23755293E+01 -2.47510585E+01  0.00000000E+00
  1.23755293E+01  1.23755293E+01 -2.47510585E+01  0.00000000E+00  1.23755293E+01
  1.23755293E+01 -2.47510585E+01  0.00000000E+00  1.23755293E+01  1.23755293E+01
 -2.47510585E+01  0.00000000E+00  1.23755293E+01  1.23755293E+01 -2.47510585E+01
  0.00000000E+00  1.23755293E+01  1.23755293E+01 -2.47510585E+01  0.00000000E+00
  1.23755293E+01  1.23755293E+01 -2.47510585E+01  0.00000000E+00  1.23755293E+01
  1.23755293E+01 -2.47510585E+01  0.00000000E+00  1.23755293E+01  1.23755293E+01
 -2.47510585E+01  0.00000000E+00  1.23755293E+01  1.23755293E+01 -2.47510585E+01
  0.00000000E+00  1.23755293E+01  1.23755293E+01 -2.47510585E+01  0.00000000E+00
  1.23755293E+01  1.23755293E+01 -2.47510585E+01  0.00000000E+00  1.23755293E+01
  1.23755293E+01 -2.47510585E+01  0.00000000E+00  1.23755293E+01  1.23755293E+01
 -2.47510585E+01  0.00000000E+00  1.23755293E+01  1.23755293E+01 -2.47510585E+01
  0.00000000E+00  1.23755293E+01  1.23755293E+01 -2.47510585E+01  0.00000000E+00
  1.23755293E+01  1.23755293E+01 -2.47510585E+01  0.00000000E+00  1.23755293E+01
  1.23755293E+01 -2.47510585E+01  0.00000000E+00  1.23755293E+01  1.23755293E+01
 -2.47510585E+01  0.00000000E+00  1.23755293E+01  1.23755293E+01 -2.47510585E+01
  0.00000000E+00  1.23755293E+01  1.23755293E+01 -2.47510585E+01  0.00000000E+00
  1.23755293E+01  1.23755293E+01 -2.47510585E+01  0.00000000E+00  1.23755293E+01
  1.23755293E+01 -2.47510585E+01  0.00000000E+00  1.23755293E+01  1.23755293E+01
 -2.47510585E+01  0.00000000E+00  1.23755293E+01  1.23755293E+01 -2.47510585E+01
  0.00000000E+00  1.23755293E+01  1.23755293E+01 -2.47510585E+01  0.00000000E+00
  1.23755293E+01  1.23755293E+01 -2.47510585E+01  0.00000000E+00  1.23755293E+01
  1.23755293E+01 -2.47510585E+01  0.00000000E+00  1.23755293E+01  1.23755293E+01
 -2.47510585E+01  0.00000000E+00  1.23755293E+01  1.23755293E+01 -2.47510585E+01
  0.00000000E+00  1.23755293E+01  1.23755293E+01 -2.47510585E+01  0.00000000E+00
  1.23755293E+01  1.23755293E+01 -2.47510585E+01  0.00000000E+00  1.23755293E+01
  1.23755293E+01 -2.47510585E+01  0.00000000E+00  1.23755293E+01  1.23755293E+01
 -2.47510585E+01  0.00000000E+00  1.23755293E+01  1.23755293E+01 -2.47510585E+01
  0.00000000E+00  1.23755293E+01  1.23755293E+01 -2.47510585E+01  0.00000000E+00
  1.23755293E+01  1.23755293E+01 -2.47510585E+01  0.00000000E+00  1.23755293E+01
  1.23755293E+01 -2.47510585E+01  0.00000000E+00  1.23755293E+01  1.23755293E+01
 -2.47510585E+01  0.00000000E+00  1.23755293E+01  1.23755293E+01 -2.47510585E+01
  0.00000000E+00  1.23755293E+01  1.23755293E+01 -2.47510585E+01  0.00000000E+00
  1.23755293E+01  1.23755293E+01 -2.47510585E+01  0.00000000E+00  1.23755293E+01
  1.23755293E+01 -2.47510585E+01  0.00000000E+00  1.23755293E+01  1.23755293E+01
 -2.47510585E+01  0.00000000E+00  1.23755293E+01  1.23755293E+01 -2.47510585E+01
  0.00000000E+00  1.23755293E+01  1.23755293E+01 -2.47510585E+01  0.00000000E+00
  1.23755293E+01  1.23755293E+01 -2.47510585E+01  0.00000000E+00  1.23755293E+01
  1.23755293E+01 -2.47510585E+01  0.00000000E+00  1.23755293E+01  1.23755293E+01
 -2.47510585E+01  0.00000000E+00  1.23755293E+01  1.23755293E+01 -2.47510585E+01
  0.00000000E+00  1.23755293E+01  1.23755293E+01 -2.47510585E+01  0.00000000E+00
  1.23755293E+01  1.23755293E+01 -2.47510585E+01  0.00000000E+00  1.23755293E+01
  1.23755293E+01 -2.47510585E+01  0.00000000E+00  1.23755293E+01  1.23755293E+01
 -2.47510585E+01  0.00000000E+00  1.23755293E+01  1.23755293E+01 -2.47510585E+01
  0.00000000E+00  1.23755293E+01  1.23755293E+01 -2.47510585E+01  0.00000000E+00
  1.23755293E+01  1.23755293E+01 -2.47510585E+01  0.00000000E+00  1.23755293E+01
  1.23755293E+01 -2.47510585E+01  0.00000000E+00  1.23755293E+01  1.23755293E+01
 -2.47510585E+01  0.00000000E+00  1.23755293E+01  1.23755293E+01 -2.47510585E+01
  0.00000000E+00  1.23755293E+01  1.23755293E+01 -2.47510585E+01  0.00000000E+00
  1.23755293E+01  1.23755293E+01 -2.47510585E+01  0.00000000E+00  1.23755293E+01
  1.23755293E+01 -2.47510585E+01  0.00000000E+00  1.23755293E+01  1.23755293E+01
 -2.47510585E+01  0.00000000E+00  1.23755293E+01  1.23755293E+01 -2.47510585E+01
  0.00000000E+00  1.23755293E+01  1.23755293E+01 -2.47510585E+01  0.00000000E+00
  1.23755293E+01  1.23755293E+01 -2.47510585E+01  0.00000000E+00  1.23755293E+01
  1.23755293E+01 -2.47510585E+01  0.00000000E+00  1.23755293E+01  1.23755293E+01
 -2.47510585E+01  0.00000000E+00  1.23755293E+01  1.23755293E+01 -2.47510585E+01
  0.00000000E+00  1.23755293E+01  1.23755293E+01 -2.47510585E+01  0.00000000E+00
  1.23755293E+01  1.23755293E+01 -2.47510585E+01  0.00000000E+00  1.23755293E+01
  1.23755293E+01 -2.47510585E+01  0.00000000E+00  1.23755293E+01  1.23755293E+01
 -2.47510585E+01  0.00000000E+00  1.23755293E+01  1.23755293E+01 -2.47510585E+01
  0.00000000E+00  1.23755293E+01  1.23755293E+01 -2.47510585E+01  0.00000000E+00
  1.23755293E+01  1.23755293E+01 -2.47510585E+01  0.00000000E+00  1.23755293E+01
  1.23755293E+01 -2.47510585E+01  0.00000000E+00  1.23755293E+01  1.23755293E+01
 -2.47510585E+01  0.00000000E+00  1.23755293E+01  1.23755293E+01 -2.47510585E+01
  0.00000000E+00  1.23755293E+01  1.23755293E+01 -2.47510585E+01  0.00000000E+00
  1.23755293E+01  1.23755293E+01 -2.47510585E+01  0.00000000E+00  1.23755293E+01
  1.23755293E+01 -2.47510585E+01  0.00000000E+00  1.23755293E+01  1.23755293E+01
 -2.47510585E+01  0.00000000E+00  1.23755293E+01  1.23755293E+01 -2.47510585E+01
  0.00000000E+00  1.23755293E+01  1.23755293E+01 -2.47510585E+01  0.00000000E+00
  1.23755293E+01  1.23755293E+01 -2.47510585E+01  0.00000000E+00  1.23755293E+01
  1.23755293E+01 -2.47510585E+01  0.00000000E+00  1.23755293E+01  1.23755293E+01
 -2.47510585E+01  0.00000000E+00  1.23755293E+01  1.23755293E+01 -2.47510585E+01
  0.00000000E+00  1.23755293E+01  1.23755293E+01 -2.47510585E+01  0.00000000E+00
  1.23755293E+01  1.23755293E+01 -2.47510585E+01  0.00000000E+00  1.23755293E+01
  1.23755293E+01 -2.47510585E+01  0.00000000E+00  1.23755293E+01  1.23755293E+01
 -2.47510585E+01  0.00000000E+00  1.23755293E+01  1.23755293E+01 -2.47510585E+01
  0.00000000E+00  1.23755293E+01  1.23755293E+01 -2.47510585E+01  0.00000000E+00
  1.23755293E+01  1.23755293E+01 -2.47510585E+01  0.00000000E+00  1.23755293E+01
  1.23755293E+01 -2.47510585E+01  0.00000000E+00  1.23755293E+01  1.23755293E+01
 -2.47510585E+01  0.00000000E+00  1.23755293E+01  1.23755293E+01 -2.47510585E+01
  0.00000000E+00  1.23755293E+01  1.23755293E+01 -2.47510585E+01  0.00000000E+00
  1.23755293E+01  1.23755293E+01 -2.47510585E+01  0.00000000E+00  1.23755293E+01
  1.23755293E+01 -2.47510585E+01  0.00000000E+00  1.23755293E+01  1.23755293E+01
 -2.47510585E+01  0.00000000E+00  1.23755293E+01  1.23755293E+01 -2.47510585E+01
  0.00000000E+00  1.23755293E+01  1.23755293E+01 -2.47510585E+01  0.00000000E+00
  1.23755293E+01  1.23755293E+01 -2.47510585E+01  0.00000000E+00  1.23755293E+01
  1.23755293E+01 -2.47510585E+01  0.00000000E+00  1.23755293E+01  1.23755293E+01
 -2.47510585E+01  0.00000000E+00  1.23755293E+01  1.23755293E+01 -2.47510585E+01
  0.00000000E+00  1.23755293E+01  1.23755293E+01 -2.47510585E+01  0.00000000E+00
  1.23755293E+01  1.23755293E+01 -2.47510585E+01  0.00000000E+00  1.23755293E+01
  1.23755293E+01 -2.47510585E+01  0.00000000E+00  1.23755293E+01  1.23755293E+01
 -2.47510585E+01  0.00000000E+00  1.23755293E+01  1.23755293E+01 -2.47510585E+01
  0.00000000E+00  1.23755293E+01  1.23755293E+01 -2.47510585E+01  0.00000000E+00
  1.23755293E+01  1.23755293E+01 -2.47510585E+01  0.00000000E+00  1.23755293E+01
  1.23755293E+01 -2.47510585E+01  0.00000000E+00  1.23755293E+01  1.23755293E+01
 -2.47510585E+01  0.00000000E+00  1.23755293E+01  1.23755293E+01 -2.47510585E+01
  0.00000000E+00  1.23755293E+01  1.23755293E+01 -2.47510585E+01  0.00000000E+00
  1.23755293E+01  1.23755293E+01 -2.47510585E+01  0.00000000E+00  1.23755293E+01
  1.23755293E+01 -2.47510585E+01  0.00000000E+00  1.23755293E+01  1.23755293E+01
 -2.47510585E+01  0.00000000E+00  1.23755293E+01  1.23755293E+01 -2.47510585E+01
  0.00000000E+00  1.23755293E+01  1.23755293E+01 -2.47510585E+01  0.00000000E+00
  1.23755293E+01  1.23755293E+01 -2.47510585E+01  0.00000000E+00  1.23755293E+01
  1.23755293E+01 -2.47510585E+01  0.00000000E+00  1.23755293E+01  1.23755293E+01
 -2.47510585E+01  0.00000000E+00  1.23755293E+01  1.23755293E+01 -2.47510585E+01
  0.00000000E+00  1.23755293E+01  1.23755293E+01 -2.47510585E+01  0.00000000E+00
  1.23755293E+01  1.23755293E+01 -2.47510585E+01  0.00000000E+00  1.23755293E+01
  1.23755293E+01 -2.47510585E+01  0.00000000E+00  1.23755293E+01  1.23755293E+01
 -2.47510585E+01  0.00000000E+00  1.23755293E+01  1.23755293E+01 -2.47510585E+01
  0.00000000E+00  1.23755293E+01  1.23755293E+01 -2.47510585E+01  0.00000000E+00
  1.23755293E+01  1.23755293E+01 -2.47510585E+01  0.00000000E+00  1.23755293E+01
  1.23755293E+01 -2.47510585E+01  0.00000000E+00  1.23755293E+01  1.23755293E+01
 -2.47510585E+01  0.00000000E+00  1.23755293E+01  1.23755293E+01 -2.47510585E+01
  0.00000000E+00  1.23755293E+01  1.23755293E+01 -2.47510585E+01  0.00000000E+00
  1.23755293E+01  1.23755293E+01 -2.47510585E+01  0.00000000E+00  1.23755293E+01
  1.23755293E+01 -2.47510585E+01  0.00000000E+00  1.23755293E+01  1.23755293E+01
 -2.47510585E+01  0.00000000E+00  1.23755293E+01  1.23755293E+01 -2.47510585E+01
  0.00000000E+00  1.23755293E+01  1.23755293E+01 -2.47510585E+01  0.00000000E+00
  1.23755293E+01  1.23755293E+01 -2.47510585E+01  0.00000000E+00  1.23755293E+01
  1.23755293E+01 -2.47510585E+01  0.00000000E+00  1.23755293E+01  1.23755293E+01
 -2.47510585E+01  0.00000000E+00  1.23755293E+01  1.23755293E+01 -2.47510585E+01
  0.00000000E+00  1.23755293E+01  1.23755293E+01 -2.47510585E+01  0.00000000E+00
  1.23755293E+01  1.23755293E+01 -2.47510585E+01  0.00000000E+00  1.23755293E+01
  1.23755293E+01 -2.47510585E+01  0.00000000E+00  1.23755293E+01  1.23755293E+01
 -2.47510585E+01  0.00000000E+00  1.23755293E+01  1.23755293E+01 -2.47510585E+01
  0.00000000E+00  1.23755293E+01  1.23755293E+01 -2.47510585E+01  0.00000000E+00
  1.23755293E+01  1.23755293E+01 -2.47510585E+01  0.00000000E+00  1.23755293E+01
  1.23755293E+01 -2.47510585E+01  0.00000000E+00  1.23755293E+01  1.23755293E+01
 -2.47510585E+01  0.00000000E+00  1.23755293E+01  1.23755293E+01 -2.47510585E+01
  0.00000000E+00  1.23755293E+01  1.23755293E+01 -2.47510585E+01  0.00000000E+00
  1.23755293E+01  1.23755293E+01 -2.47510585E+01  0.00000000E+00  1.23755293E+01
  1.23755293E+01 -2.47510585E+01  0.00000000E+00  1.23755293E+01  1.23755293E+01
 -2.47510585E+01  0.00000000E+00  1.23755293E+01  1.23755293E+01 -2.47510585E+01
  0.00000000E+00  1.23755293E+01  1.23755293E+01 -2.47510585E+01  0.00000000E+00
  1.23755293E+01  1.23755293E+01 -2.47510585E+01  0.00000000E+00  1.23755293E+01
  1.23755293E+01 -2.47510585E+01  0.00000000E+00  1.23755293E+01  1.23755293E+01
 -2.47510585E+01  0.00000000E+00  1.23755293E+01  1.23755293E+01 -2.47510585E+01
  0.00000000E+00  1.23755293E+01  1.23755293E+01 -2.47510585E+01  0.00000000E+00
  1.23755293E+01  1.23755293E+01 -2.47510585E+01  0.00000000E+00  1.23755293E+01
  1.23755293E+01 -2.47510585E+01  0.00000000E+00  1.23755293E+01  1.23755293E+01
 -2.47510585E+01  0.00000000E+00  1.23755293E+01  1.23755293E+01 -2.47510585E+01
  0.00000000E+00  1.23755293E+01  1.23755293E+01 -2.47510585E+01  0.00000000E+00
  1.23755293E+01  1.23755293E+01 -2.47510585E+01  0.00000000E+00  1.23755293E+01
  1.23755293E+01 -2.47510585E+01  0.00000000E+00  1.23755293E+01  1.23755293E+01
 -2.47510585E+01  0.00000000E+00  1.23755293E+01  1.23755293E+01 -2.47510585E+01
  0.00000000E+00  1.23755293E+01  1.23755293E+01 -2.47510585E+01  0.00000000E+00
  1.23755293E+01  1.23755293E+01 -2.47510585E+01  0.00000000E+00  1.23755293E+01
  1.23755293E+01 -2.47510585E+01  0.00000000E+00  1.23755293E+01  1.23755293E+01
 -2.47510585E+01  0.00000000E+00  1.23755293E+01  1.23755293E+01 -2.47510585E+01
  0.00000000E+00  1.23755293E+01  1.23755293E+01 -2.47510585E+01  0.00000000E+00
  1.23755293E+01  1.23755293E+01 -2.47510585E+01  0.00000000E+00  1.23755293E+01
  1.23755293E+01 -2.47510585E+01  0.00000000E+00  1.23755293E+01  1.23755293E+01
 -2.47510585E+01  0.00000000E+00  1.23755293E+01  1.23755293E+01 -2.47510585E+01
  0.00000000E+00  1.23755293E+01  1.23755293E+01 -2.47510585E+01  0.00000000E+00
  1.23755293E+01  1.23755293E+01 -2.47510585E+01  0.00000000E+00  1.23755293E+01
  1.23755293E+01 -2.47510585E+01  0.00000000E+00  1.23755293E+01  1.23755293E+01
 -2.47510585E+01  0.00000000E+00  1.23755293E+01  1.23755293E+01 -2.47510585E+01
  0.00000000E+00  1.23755293E+01  1.23755293E+01 -2.47510585E+01  0.00000000E+00
  1.23755293E+01  1.23755293E+01 -2.47510585E+01  0.00000000E+00  1.23755293E+01
  1.23755293E+01 -2.47510585E+01  0.00000000E+00  1.23755293E+01  1.23755293E+01
 -2.47510585E+01  0.00000000E+00  1.23755293E+01  1.23755293E+01 -2.47510585E+01
  0.00000000E+00  1.23755293E+01  1.23755293E+01 -2.47510585E+01  0.00000000E+00
  1.23755293E+01  1.23755293E+01 -2.47510585E+01  0.00000000E+00  1.23755293E+01
  1.23755293E+01 -2.47510585E+01  0.00000000E+00  1.23755293E+01  1.23755293E+01
 -2.47510585E+01  0.00000000E+00  1.23755293E+01  1.23755293E+01 -2.47510585E+01
  0.00000000E+00  1.23755293E+01  1.23755293E+01 -2.47510585E+01  0.00000000E+00
  1.23755293E+01  1.23755293E+01 -2.47510585E+01  0.00000000E+00  1.23755293E+01
  1.23755293E+01 -2.47510585E+01  0.00000000E+00  1.23755293E+01  1.23755293E+01
 -2.47510585E+01  0.00000000E+00  1.23755293E+01  1.23755293E+01 -2.47510585E+01
  0.00000000E+00  1.23755293E+01  1.23755293E+01 -2.47510585E+01  0.00000000E+00
  1.23755293E+01  1.23755293E+01 -2.47510585E+01  0.00000000E+00  1.23755293E+01
  1.23755293E+01 -2.47510585E+01  0.00000000E+00  1.23755293E+01  1.23755293E+01
 -2.47510585E+01  0.00000000E+00  1.23755293E+01  1.23755293E+01 -2.47510585E+01
  0.00000000E+00  1.23755293E+01  1.23755293E+01 -2.47510585E+01  0.00000000E+00
  1.23755293E+01  1.23755293E+01 -2.47510585E+01  0.00000000E+00  1.23755293E+01
  1.23755293E+01 -2.47510585E+01  0.00000000E+00  1.23755293E+01  1.23755293E+01
 -2.47510585E+01  0.00000000E+00  1.23755293E+01  1.23755293E+01 -2.47510585E+01
  0.00000000E+00  1.23755293E+01  1.23755293E+01 -2.47510585E+01  0.00000000E+00
  1.23755293E+01  1.23755293E+01 -2.47510585E+01  0.00000000E+00  1.23755293E+01
  1.23755293E+01 -2.47510585E+01  0.00000000E+00  1.23755293E+01  1.23755293E+01
 -2.47510585E+01  0.00000000E+00  1.23755293E+01  1.23755293E+01 -2.47510585E+01
  0.00000000E+00  1.23755293E+01  1.23755293E+01 -2.47510585E+01  0.00000000E+00
  1.23755293E+01  1.23755293E+01 -2.47510585E+01  0.00000000E+00  1.23755293E+01
  1.23755293E+01 -2.47510585E+01  0.00000000E+00  1.23755293E+01  1.23755293E+01
 -2.47510585E+01  0.00000000E+00  1.23755293E+01  1.23755293E+01 -2.47510585E+01
  0.00000000E+00  1.23755293E+01  1.23755293E+01 -2.47510585E+01  0.00000000E+00
  1.23755293E+01  1.23755293E+01 -2.47510585E+01  0.00000000E+00  1.23755293E+01
  1.23755293E+01 -2.47510585E+01  0.00000000E+00  1.23755293E+01  1.23755293E+01
 -2.47510585E+01  0.00000000E+00  1.23755293E+01  1.23755293E+01 -2.47510585E+01
  0.00000000E+00  1.23755293E+01  1.23755293E+01 -2.47510585E+01  0.00000000E+00
  1.23755293E+01  1.23755293E+01 -2.47510585E+01  0.00000000E+00  1.23755293E+01
  1.23755293E+01 -2.47510585E+01  0.00000000E+00  1.23755293E+01  1.23755293E+01
 -2.47510585E+01  0.00000000E+00  1.23755293E+01  1.23755293E+01 -2.47510585E+01
  0.00000000E+00  1.23755293E+01  1.23755293E+01 -2.47510585E+01  0.00000000E+00
  1.23755293E+01  1.23755293E+01 -2.47510585E+01  0.00000000E+00  1.23755293E+01
  1.23755293E+01 -2.47510585E+01  0.00000000E+00  1.23755293E+01  1.23755293E+01
 -2.47510585E+01  0.00000000E+00  1.23755293E+01  1.23755293E+01 -2.47510585E+01
  0.00000000E+00  1.23755293E+01  1.23755293E+01 -2.47510585E+01  0.00000000E+00
  1.23755293E+01  1.23755293E+01 -2.47510585E+01  0.00000000E+00  1.23755293E+01
  1.23755293E+01 -2.47510585E+01  0.00000000E+00  1.23755293E+01  1.23755293E+01
 -2.47510585E+01  0.00000000E+00  1.23755293E+01  1.23755293E+01 -2.47510585E+01
  0.00000000E+00  1.23755293E+01  1.23755293E+01 -2.47510585E+01  0.00000000E+00
  1.23755293E+01  1.23755293E+01 -2.47510585E+01  0.00000000E+00  1.23755293E+01
  1.23755293E+01 -2.47510585E+01  0.00000000E+00  1.23755293E+01  1.23755293E+01
 -2.47510585E+01  0.00000000E+00  1.23755293E+01  1.23755293E+01 -2.47510585E+01
  0.00000000E+00  1.23755293E+01  1.23755293E+01 -2.47510585E+01  0.00000000E+00
  1.23755293E+01  1.23755293E+01 -2.47510585E+01  0.00000000E+00  1.23755293E+01
  1.23755293E+01 -2.47510585E+01  0.00000000E+00  1.23755293E+01  1.23755293E+01
 -2.47510585E+01  0.00000000E+00  1.23755293E+01  1.23755293E+01 -2.47510585E+01
  0.00000000E+00  1.23755293E+01  1.23755293E+01 -2.47510585E+01  0.00000000E+00
  1.23755293E+01  1.23755293E+01 -2.47510585E+01  0.00000000E+00  1.23755293E+01
  1.23755293E+01 -2.47510585E+01  0.00000000E+00  1.23755293E+01  1.23755293E+01
 -2.47510585E+01  0.00000000E+00  1.23755293E+01  1.23755293E+01 -2.47510585E+01
  0.00000000E+00  1.23755293E+01  1.23755293E+01 -2.47510585E+01  0.00000000E+00
  1.23755293E+01  1.23755293E+01 -2.47510585E+01  0.00000000E+00  1.23755293E+01
  1.23755293E+01 -2.47510585E+01  0.00000000E+00  1.23755293E+01  1.23755293E+01
 -2.47510585E+01  0.00000000E+00  1.23755293E+01  1.23755293E+01 -2.47510585E+01
  0.00000000E+00  1.23755293E+01  1.23755293E+01 -2.47510585E+01  0.00000000E+00
  1.23755293E+01  1.23755293E+01 -2.47510585E+01  0.00000000E+00  1.23755293E+01
  1.23755293E+01 -2.47510585E+01  0.00000000E+00  1.23755293E+01  1.23755293E+01
 -2.47510585E+01  0.00000000E+00  1.23755293E+01  1.23755293E+01 -2.47510585E+01
  0.00000000E+00  1.23755293E+01  1.23755293E+01 -2.47510585E+01  0.00000000E+00
  1.23755293E+01  1.23755293E+01 -2.47510585E+01  0.00000000E+00  1.23755293E+01
  1.23755293E+01 -2.47510585E+01  0.00000000E+00  1.23755293E+01  1.23755293E+01
 -2.47510585E+01  0.00000000E+00  1.23755293E+01  1.23755293E+01 -2.47510585E+01
  0.00000000E+00  1.23755293E+01  1.23755293E+01 -2.47510585E+01  0.00000000E+00
  1.23755293E+01  1.23755293E+01 -2.47510585E+01  0.00000000E+00  1.23755293E+01
  1.23755293E+01 -2.47510585E+01  0.00000000E+00  1.23755293E+01  1.23755293E+01
 -2.47510585E+01  0.00000000E+00  1.23755293E+01  1.23755293E+01 -2.47510585E+01
  0.00000000E+00  1.23755293E+01  1.23755293E+01 -2.47510585E+01  0.00000000E+00
  1.23755293E+01  1.23755293E+01 -2.47510585E+01  0.00000000E+00  1.23755293E+01
  1.23755293E+01 -2.47510585E+01  0.00000000E+00  1.23755293E+01  1.23755293E+01
 -2.47510585E+01  0.00000000E+00  1.23755293E+01  1.23755293E+01 -2.47510585E+01
  0.00000000E+00  1.23755293E+01  1.23755293E+01 -2.47510585E+01  0.00000000E+00
  1.23755293E+01  1.23755293E+01 -2.47510585E+01  0.00000000E+00  1.23755293E+01
  1.23755293E+01 -2.47510585E+01  0.00000000E+00  1.23755293E+01  1.23755293E+01
 -2.47510585E+01  0.00000000E+00  1.23755293E+01  1.23755293E+01 -2.47510585E+01
  0.00000000E+00  1.23755293E+01  1.23755293E+01 -2.47510585E+01  0.00000000E+00
  1.23755293E+01  1.23755293E+01 -2.47510585E+01  0.00000000E+00  1.23755293E+01
  1.23755293E+01 -2.47510585E+01  0.00000000E+00  1.23755293E+01  1.23755293E+01
 -2.47510585E+01  0.00000000E+00  1.23755293E+01  1.23755293E+01 -2.47510585E+01
  0.00000000E+00  1.23755293E+01  1.23755293E+01 -2.47510585E+01  0.00000000E+00
  1.23755293E+01  1.23755293E+01 -2.47510585E+01  0.00000000E+00  1.23755293E+01
  1.23755293E+01 -2.47510585E+01  0.00000000E+00  1.23755293E+01  1.23755293E+01
 -2.47510585E+01  0.00000000E+00  1.23755293E+01  1.23755293E+01 -2.47510585E+01
  0.00000000E+00  1.23755293E+01  1.23755293E+01 -2.47510585E+01  0.00000000E+00
  1.23755293E+01  1.23755293E+01 -2.47510585E+01  0.00000000E+00  1.23755293E+01
  1.23755293E+01 -2.47510585E+01  0.00000000E+00  1.23755293E+01  1.23755293E+01
 -2.47510585E+01  0.00000000E+00  1.23755293E+01  1.23755293E+01 -2.47510585E+01
  0.00000000E+00  1.23755293E+01  1.23755293E+01 -2.47510585E+01  0.00000000E+00
  1.23755293E+01  1.23755293E+01 -2.47510585E+01  0.00000000E+00  1.23755293E+01
  1.23755293E+01 -2.47510585E+01  0.00000000E+00  1.23755293E+01  1.23755293E+01
 -2.47510585E+01  0.00000000E+00  1.23755293E+01  1.23755293E+01 -2.47510585E+01
  0.00000000E+00  1.23755293E+01  1.23755293E+01 -2.47510585E+01  0.00000000E+00
  1.23755293E+01  1.23755293E+01 -2.47510585E+01  0.00000000E+00  1.23755293E+01
  1.23755293E+01 -2.47510585E+01  0.00000000E+00  1.23755293E+01  1.23755293E+01
 -2.47510585E+01  0.00000000E+00  1.23755293E+01  1.23755293E+01 -2.47510585E+01
  0.00000000E+00  1.23755293E+01  1.23755293E+01 -2.47510585E+01  0.00000000E+00
  1.23755293E+01  1.23755293E+01 -2.47510585E+01  0.00000000E+00  1.23755293E+01
  1.23755293E+01 -2.47510585E+01  0.00000000E+00  1.23755293E+01  1.23755293E+01
 -2.47510585E+01  0.00000000E+00  1.23755293E+01  1.23755293E+01 -2.47510585E+01
  0.00000000E+00  1.23755293E+01  1.23755293E+01 -2.47510585E+01  0.00000000E+00
  1.23755293E+01  1.23755293E+01 -2.47510585E+01  0.00000000E+00  1.23755293E+01
  1.23755293E+01 -2.47510585E+01  0.00000000E+00  1.23755293E+01  1.23755293E+01
 -2.47510585E+01  0.00000000E+00  1.23755293E+01  1.23755293E+01 -2.47510585E+01
  0.00000000E+00  1.23755293E+01  1.23755293E+01 -2.47510585E+01  0.00000000E+00
  1.23755293E+01  1.23755293E+01 -2.47510585E+01  0.00000000E+00  1.23755293E+01
  1.23755293E+01 -2.47510585E+01  0.00000000E+00  1.23755293E+01  1.23755293E+01
 -2.47510585E+01  0.00000000E+00  1.23755293E+01  1.23755293E+01 -2.47510585E+01
  0.00000000E+00  1.23755293E+01  1.23755293E+01 -2.47510585E+01  0.00000000E+00
  1.23755293E+01  1.23755293E+01 -2.47510585E+01  0.00000000E+00  1.23755293E+01
  1.23755293E+01 -2.47510585E+01  0.00000000E+00  1.23755293E+01  1.23755293E+01
 -2.47510585E+01  0.00000000E+00  1.23755293E+01  1.23755293E+01 -2.47510585E+01
  0.00000000E+00  1.23755293E+01  1.23755293E+01 -2.47510585E+01  0.00000000E+00
  1.23755293E+01  1.23755293E+01 -2.47510585E+01  0.00000000E+00  1.23755293E+01
  1.23755293E+01 -2.47510585E+01  0.00000000E+00  1.23755293E+01  1.23755293E+01
 -2.47510585E+01  0.00000000E+00  1.23755293E+01  1.23755293E+01 -2.47510585E+01
  0.00000000E+00  1.23755293E+01  1.23755293E+01 -2.47510585E+01  0.00000000E+00
  1.23755293E+01  1.23755293E+01 -2.47510585E+01  0.00000000E+00  1.23755293E+01
  1.23755293E+01 -2.47510585E+01  0.00000000E+00  1.23755293E+01  1.23755293E+01
 -2.47510585E+01  0.00000000E+00  1.23755293E+01  1.23755293E+01 -2.47510585E+01
  0.00000000E+00  1.23755293E+01  1.23755293E+01 -2.47510585E+01  0.00000000E+00
  1.23755293E+01  1.23755293E+01 -2.47510585E+01  0.00000000E+00  1.23755293E+01
  1.23755293E+01 -2.47510585E+01  0.00000000E+00  1.23755293E+01  1.23755293E+01
 -2.47510585E+01  0.00000000E+00  1.23755293E+01  1.23755293E+01 -2.47510585E+01
  0.00000000E+00  1.23755293E+01  1.23755293E+01 -2.47510585E+01  0.00000000E+00
  1.23755293E+01  1.23755293E+01 -2.47510585E+01  0.00000000E+00  1.23755293E+01
  1.23755293E+01 -2.47510585E+01  0.00000000E+00  1.23755293E+01  1.23755293E+01
 -2.47510585E+01  0.00000000E+00  1.23755293E+01  1.23755293E+01 -2.47510585E+01
  0.00000000E+00  1.23755293E+01  1.23755293E+01 -2.47510585E+01  0.00000000E+00
  1.23755293E+01  1.23755293E+01 -2.47510585E+01  0.00000000E+00  1.23755293E+01
  1.23755293E+01 -2.47510585E+01  0.00000000E+00  1.23755293E+01  1.23755293E+01
 -2.47510585E+01  0.00000000E+00  1.23755293E+01  1.23755293E+01 -2.47510585E+01
  0.00000000E+00  1.23755293E+01  1.23755293E+01 -2.47510585E+01  0.00000000E+00
  1.23755293E+01  1.23755293E+01 -2.47510585E+01  0.00000000E+00  1.23755293E+01
  1.23755293E+01 -2.47510585E+01  0.00000000E+00  1.23755293E+01  1.23755293E+01
 -2.47510585E+01  0.00000000E+00  1.23755293E+01  1.23755293E+01 -2.47510585E+01
  0.00000000E+00  1.23755293E+01  1.23755293E+01 -2.47510585E+01  0.00000000E+00
  1.23755293E+01  1.23755293E+01 -2.47510585E+01  0.00000000E+00  1.23755293E+01
  1.23755293E+01 -2.47510585E+01  0.00000000E+00  1.23755293E+01  1.23755293E+01
 -2.47510585E+01  0.00000000E+00  1.23755293E+01  1.23755293E+01 -2.47510585E+01
  0.00000000E+00  1.23755293E+01  1.23755293E+01 -2.47510585E+01  0.00000000E+00
  1.23755293E+01  1.23755293E+01 -2.47510585E+01  0.00000000E+00  1.23755293E+01
  1.23755293E+01 -2.47510585E+01  0.00000000E+00  1.23755293E+01  1.23755293E+01
 -2.47510585E+01  0.00000000E+00  1.23755293E+01  1.23755293E+01 -2.47510585E+01
  0.00000000E+00  1.23755293E+01  1.23755293E+01 -2.47510585E+01  0.00000000E+00
  1.23755293E+01  1.23755293E+01 -2.47510585E+01  0.00000000E+00  1.23755293E+01
  1.23755293E+01 -2.47510585E+01  0.00000000E+00  1.23755293E+01  1.23755293E+01
 -2.47510585E+01  0.00000000E+00  1.23755293E+01  1.23755293E+01 -2.47510585E+01
  0.00000000E+00  1.23755293E+01  1.23755293E+01 -2.47510585E+01  0.00000000E+00
  1.23755293E+01  1.23755293E+01 -2.47510585E+01  0.00000000E+00  1.23755293E+01
  1.23755293E+01 -2.47510585E+01  0.00000000E+00  1.23755293E+01  1.23755293E+01
 -2.47510585E+01  0.00000000E+00  1.23755293E+01  1.23755293E+01 -2.47510585E+01
  0.00000000E+00  1.23755293E+01  1.23755293E+01 -2.47510585E+01  0.00000000E+00
  1.23755293E+01  1.23755293E+01 -2.47510585E+01  0.00000000E+00  1.23755293E+01
  1.23755293E+01 -2.47510585E+01  0.00000000E+00  1.23755293E+01  1.23755293E+01
 -2.47510585E+01  0.00000000E+00  1.23755293E+01  1.23755293E+01 -2.47510585E+01
  0.00000000E+00  1.23755293E+01  1.23755293E+01 -2.47510585E+01  0.00000000E+00
  1.23755293E+01  1.23755293E+01 -2.47510585E+01  0.00000000E+00  1.23755293E+01
  1.23755293E+01 -2.47510585E+01  0.00000000E+00  1.23755293E+01  1.23755293E+01
 -2.47510585E+01  0.00000000E+00  1.23755293E+01  1.23755293E+01 -2.47510585E+01
  0.00000000E+00  1.23755293E+01  1.23755293E+01 -2.47510585E+01  0.00000000E+00
  1.23755293E+01  1.23755293E+01 -2.47510585E+01  0.00000000E+00  1.23755293E+01
  1.23755293E+01 -2.47510585E+01  0.00000000E+00  1.23755293E+01  1.23755293E+01
 -2.47510585E+01  0.00000000E+00  1.23755293E+01  1.23755293E+01 -2.47510585E+01
  0.00000000E+00  1.23755293E+01  1.23755293E+01 -2.47510585E+01  0.00000000E+00
  1.23755293E+01  1.23755293E+01 -2.47510585E+01  0.00000000E+00  1.23755293E+01
  1.23755293E+01 -2.47510585E+01  0.00000000E+00  1.23755293E+01  1.23755293E+01
 -2.47510585E+01  0.00000000E+00  1.23755293E+01  1.23755293E+01 -2.47510585E+01
  0.00000000E+00  1.23755293E+01  1.23755293E+01 -2.47510585E+01  0.00000000E+00
  1.23755293E+01  1.23755293E+01 -2.47510585E+01  0.00000000E+00  1.23755293E+01
  1.23755293E+01 -2.47510585E+01  0.00000000E+00  1.23755293E+01  1.23755293E+01
 -2.47510585E+01  0.00000000E+00  1.23755293E+01  1.23755293E+01 -2.47510585E+01
  0.00000000E+00  1.23755293E+01  1.23755293E+01 -2.47510585E+01  0.00000000E+00
  1.23755293E+01  1.23755293E+01 -2.47510585E+01  0.00000000E+00  1.23755293E+01
  1.23755293E+01 -2.47510585E+01  0.00000000E+00  1.23755293E+01  1.23755293E+01
 -2.47510585E+01  0.00000000E+00  1.23755293E+01  1.23755293E+01 -2.47510585E+01
  0.00000000E+00  1.23755293E+01  1.23755293E+01 -2.47510585E+01  0.00000000E+00
  1.23755293E+01  1.23755293E+01 -2.47510585E+01  0.00000000E+00  1.23755293E+01
  1.23755293E+01 -2.47510585E+01  0.00000000E+00  1.23755293E+01  1.23755293E+01
 -2.47510585E+01  0.00000000E+00  1.23755293E+01  1.23755293E+01 -2.47510585E+01
  0.00000000E+00  1.23755293E+01  1.23755293E+01 -2.47510585E+01  0.00000000E+00
  1.23755293E+01  1.23755293E+01 -2.47510585E+01  0.00000000E+00  1.23755293E+01
  1.23755293E+01 -2.47510585E+01  0.00000000E+00  1.23755293E+01  1.23755293E+01
 -2.47510585E+01  0.00000000E+00  1.23755293E+01  1.23755293E+01 -2.47510585E+01
  0.00000000E+00  1.23755293E+01  1.23755293E+01 -2.47510585E+01  0.00000000E+00
  1.23755293E+01  1.23755293E+01 -2.47510585E+01  0.00000000E+00  1.23755293E+01
  1.23755293E+01 -2.47510585E+01  0.00000000E+00  1.23755293E+01  1.23755293E+01
 -2.47510585E+01  0.00000000E+00  1.23755293E+01  1.23755293E+01 -2.47510585E+01
  0.00000000E+00  1.23755293E+01  1.23755293E+01 -2.47510585E+01  0.00000000E+00
  1.23755293E+01  1.23755293E+01 -2.47510585E+01  0.00000000E+00  1.23755293E+01
  1.23755293E+01 -2.47510585E+01  0.00000000E+00  1.23755293E+01  1.23755293E+01
 -2.47510585E+01  0.00000000E+00  1.23755293E+01  1.23755293E+01 -2.47510585E+01
  0.00000000E+00  1.23755293E+01  1.23755293E+01 -2.47510585E+01  0.00000000E+00
  1.23755293E+01  1.23755293E+01 -2.47510585E+01  0.00000000E+00  1.23755293E+01
  1.23755293E+01 -2.47510585E+01  0.00000000E+00  1.23755293E+01  1.23755293E+01
 -2.47510585E+01  0.00000000E+00  1.23755293E+01  1.23755293E+01 -2.47510585E+01
  0.00000000E+00  1.23755293E+01  1.23755293E+01 -2.47510585E+01  0.00000000E+00
  1.23755293E+01  1.23755293E+01 -2.47510585E+01  0.00000000E+00  1.23755293E+01
  1.23755293E+01 -2.47510585E+01  0.00000000E+00  1.23755293E+01  1.23755293E+01
 -2.47510585E+01  0.00000000E+00  1.23755293E+01  1.23755293E+01 -2.47510585E+01
  0.00000000E+00  1.23755293E+01  1.23755293E+01 -2.47510585E+01  0.00000000E+00
  1.23755293E+01  1.23755293E+01 -2.47510585E+01  0.00000000E+00  1.23755293E+01
  1.23755293E+01 -2.47510585E+01  0.00000000E+00  1.23755293E+01  1.23755293E+01
 -2.47510585E+01  0.00000000E+00  1.23755293E+01  1.23755293E+01 -2.47510585E+01
  0.00000000E+00  1.23755293E+01  1.23755293E+01 -2.47510585E+01  0.00000000E+00
  1.23755293E+01  1.23755293E+01 -2.47510585E+01  0.00000000E+00  1.23755293E+01
  1.23755293E+01 -2.47510585E+01  0.00000000E+00  1.23755293E+01  1.23755293E+01
 -2.47510585E+01  0.00000000E+00  1.23755293E+01  1.23755293E+01 -2.47510585E+01
  0.00000000E+00  1.23755293E+01  1.23755293E+01 -2.47510585E+01  0.00000000E+00
  1.23755293E+01  1.23755293E+01 -2.47510585E+01  0.00000000E+00  1.23755293E+01
  1.23755293E+01 -2.47510585E+01  0.00000000E+00  1.23755293E+01  1.23755293E+01
 -2.47510585E+01  0.00000000E+00  1.23755293E+01  1.23755293E+01 -2.47510585E+01
  0.00000000E+00  1.23755293E+01  1.23755293E+01 -2.47510585E+01  0.00000000E+00
  1.23755293E+01  1.23755293E+01 -2.47510585E+01  0.00000000E+00  1.23755293E+01
  1.23755293E+01 -2.47510585E+01  0.00000000E+00  1.23755293E+01  1.23755293E+01
 -2.47510585E+01  0.00000000E+00  1.23755293E+01  1.23755293E+01 -2.47510585E+01
  0.00000000E+00  1.23755293E+01  1.23755293E+01 -2.47510585E+01  0.00000000E+00
  1.23755293E+01  1.23755293E+01 -2.47510585E+01  0.00000000E+00  1.23755293E+01
  1.23755293E+01 -2.47510585E+01  0.00000000E+00  1.23755293E+01  1.23755293E+01
 -2.47510585E+01  0.00000000E+00  1.23755293E+01  1.23755293E+01 -2.47510585E+01
  0.00000000E+00  1.23755293E+01  1.23755293E+01 -2.47510585E+01  0.00000000E+00
  1.23755293E+01  1.23755293E+01 -2.47510585E+01  0.00000000E+00  1.23755293E+01
  1.23755293E+01 -2.47510585E+01  0.00000000E+00  1.23755293E+01  1.23755293E+01
 -2.47510585E+01  0.00000000E+00  1.23755293E+01  1.23755293E+01 -2.47510585E+01
  0.00000000E+00  1.23755293E+01  1.23755293E+01 -2.47510585E+01  0.00000000E+00
  1.23755293E+01  1.23755293E+01 -2.47510585E+01  0.00000000E+00  1.23755293E+01
  1.23755293E+01 -2.47510585E+01  0.00000000E+00  1.23755293E+01  1.23755293E+01
 -2.47510585E+01  0.00000000E+00  1.23755293E+01  1.23755293E+01 -2.47510585E+01
  0.00000000E+00  1.23755293E+01  1.23755293E+01 -2.47510585E+01  0.00000000E+00
  1.23755293E+01  1.23755293E+01 -2.47510585E+01  0.00000000E+00  1.23755293E+01
  1.23755293E+01 -2.47510585E+01  0.00000000E+00  1.23755293E+01  1.23755293E+01
 -2.47510585E+01  0.00000000E+00  1.23755293E+01  1.23755293E+01 -2.47510585E+01
  0.00000000E+00  1.23755293E+01  1.23755293E+01 -2.47510585E+01  0.00000000E+00
  1.23755293E+01  1.23755293E+01 -2.47510585E+01  0.00000000E+00  1.23755293E+01
  1.23755293E+01 -2.47510585E+01  0.00000000E+00  1.23755293E+01  1.23755293E+01
 -2.47510585E+01  0.00000000E+00  1.23755293E+01  1.23755293E+01 -2.47510585E+01
  0.00000000E+00  1.23755293E+01  1.23755293E+01 -2.47510585E+01  0.00000000E+00
  1.23755293E+01  1.23755293E+01 -2.47510585E+01  0.00000000E+00  1.23755293E+01
  1.23755293E+01 -2.47510585E+01  0.00000000E+00  1.23755293E+01  1.23755293E+01
 -2.47510585E+01  0.00000000E+00  1.23755293E+01  1.23755293E+01 -2.47510585E+01
  0.00000000E+00  1.23755293E+01  1.23755293E+01 -2.47510585E+01  0.00000000E+00
  1.23755293E+01  1.23755293E+01 -2.47510585E+01  0.00000000E+00  1.23755293E+01
  1.23755293E+01 -2.47510585E+01  0.00000000E+00  1.23755293E+01  1.23755293E+01
 -2.47510585E+01  0.00000000E+00  1.23755293E+01  1.23755293E+01 -2.47510585E+01
  0.00000000E+00  1.23755293E+01  1.23755293E+01 -2.47510585E+01  0.00000000E+00
  1.23755293E+01  1.23755293E+01 -2.47510585E+01  0.00000000E+00  1.23755293E+01
  1.23755293E+01 -2.47510585E+01  0.00000000E+00  1.23755293E+01  1.23755293E+01
 -2.47510585E+01  0.00000000E+00  1.23755293E+01  1.23755293E+01 -2.47510585E+01
  0.00000000E+00  1.23755293E+01  1.23755293E+01 -2.47510585E+01  0.00000000E+00
  1.23755293E+01  1.23755293E+01 -2.47510585E+01  0.00000000E+00  1.23755293E+01
  1.23755293E+01 -2.47510585E+01  0.00000000E+00  1.23755293E+01  1.23755293E+01
 -2.47510585E+01  0.00000000E+00  1.23755293E+01  1.23755293E+01 -2.47510585E+01
  0.00000000E+00  1.23755293E+01  1.23755293E+01 -2.47510585E+01  0.00000000E+00
  1.23755293E+01  1.23755293E+01 -2.47510585E+01  0.00000000E+00  1.23755293E+01
  1.23755293E+01 -2.47510585E+01  0.00000000E+00  1.23755293E+01  1.23755293E+01
 -2.47510585E+01  0.00000000E+00  1.23755293E+01  1.23755293E+01 -2.47510585E+01
  0.00000000E+00  1.23755293E+01  1.23755293E+01 -2.47510585E+01  0.00000000E+00
  1.23755293E+01  1.23755293E+01 -2.47510585E+01  0.00000000E+00  1.23755293E+01
  1.23755293E+01 -2.47510585E+01  0.00000000E+00  1.23755293E+01  1.23755293E+01
 -2.47510585E+01  0.00000000E+00  1.23755293E+01  1.23755293E+01 -2.47510585E+01
  0.00000000E+00  1.23755293E+01  1.23755293E+01 -2.47510585E+01  0.00000000E+00
  1.23755293E+01  1.23755293E+01 -2.47510585E+01  0.00000000E+00  1.23755293E+01
  1.23755293E+01 -2.47510585E+01  0.00000000E+00  1.23755293E+01  1.23755293E+01
 -2.47510585E+01  0.00000000E+00  1.23755293E+01  1.23755293E+01 -2.47510585E+01
  0.00000000E+00  1.23755293E+01  1.23755293E+01 -2.47510585E+01  0.00000000E+00
  1.23755293E+01  1.23755293E+01 -2.47510585E+01  0.00000000E+00  1.23755293E+01
  1.23755293E+01 -2.47510585E+01  0.00000000E+00  1.23755293E+01  1.23755293E+01
 -2.47510585E+01  0.00000000E+00  1.23755293E+01  1.23755293E+01 -2.47510585E+01
  0.00000000E+00  1.23755293E+01  1.23755293E+01 -2.47510585E+01  0.00000000E+00
  1.23755293E+01  1.23755293E+01 -2.47510585E+01  0.00000000E+00  1.23755293E+01
  1.23755293E+01 -2.47510585E+01  0.00000000E+00  1.23755293E+01  1.23755293E+01
 -2.47510585E+01  0.00000000E+00  1.23755293E+01  1.23755293E+01 -2.47510585E+01
  0.00000000E+00  1.23755293E+01  1.23755293E+01 -2.47510585E+01  0.00000000E+00
  1.23755293E+01  1.23755293E+01 -2.47510585E+01  0.00000000E+00  1.23755293E+01
  1.23755293E+01 -2.47510585E+01  0.00000000E+00  1.23755293E+01  1.23755293E+01
 -2.47510585E+01  0.00000000E+00  1.23755293E+01  1.23755293E+01 -2.47510585E+01
  0.00000000E+00  1.23755293E+01  1.23755293E+01 -2.47510585E+01  0.00000000E+00
  1.23755293E+01  1.23755293E+01 -2.47510585E+01  0.00000000E+00  1.23755293E+01
  1.23755293E+01 -2.47510585E+01  0.00000000E+00  1.23755293E+01  1.23755293E+01
 -2.47510585E+01  0.00000000E+00  1.23755293E+01  1.23755293E+01 -2.47510585E+01
  0.00000000E+00  1.23755293E+01  1.23755293E+01 -2.47510585E+01  0.00000000E+00
  1.23755293E+01  1.23755293E+01 -2.47510585E+01  0.00000000E+00  1.23755293E+01
  1.23755293E+01 -2.47510585E+01  0.00000000E+00  1.23755293E+01  1.23755293E+01
 -2.47510585E+01  0.00000000E+00  1.23755293E+01  1.23755293E+01 -2.47510585E+01
  0.00000000E+00  1.23755293E+01  1.23755293E+01 -2.47510585E+01  0.00000000E+00
  1.23755293E+01  1.23755293E+01 -2.47510585E+01  0.00000000E+00  1.23755293E+01
  1.23755293E+01 -2.47510585E+01  0.00000000E+00  1.23755293E+01  1.23755293E+01
 -2.47510585E+01  0.00000000E+00  1.23755293E+01  1.23755293E+01 -2.47510585E+01
  0.00000000E+00  1.23755293E+01  1.23755293E+01 -2.47510585E+01  0.00000000E+00
  1.23755293E+01  1.23755293E+01 -2.47510585E+01  0.00000000E+00  1.23755293E+01
  1.23755293E+01 -2.47510585E+01  0.00000000E+00  1.23755293E+01  1.23755293E+01
 -2.47510585E+01  0.00000000E+00  1.23755293E+01  1.23755293E+01 -2.47510585E+01
  0.00000000E+00  1.23755293E+01  1.23755293E+01 -2.47510585E+01  0.00000000E+00
  1.23755293E+01  1.23755293E+01 -2.47510585E+01  0.00000000E+00  1.23755293E+01
  1.23755293E+01 -2.47510585E+01  0.00000000E+00  1.23755293E+01  1.23755293E+01
 -2.47510585E+01  0.00000000E+00  1.23755293E+01  1.23755293E+01 -2.47510585E+01
  0.00000000E+00  1.23755293E+01  1.23755293E+01 -2.47510585E+01  0.00000000E+00
  1.23755293E+01  1.23755293E+01 -2.47510585E+01  0.00000000E+00  1.23755293E+01
  1.23755293E+01 -2.47510585E+01  0.00000000E+00  1.23755293E+01  1.23755293E+01
 -2.47510585E+01  0.00000000E+00  1.23755293E+01  1.23755293E+01 -2.47510585E+01
  0.00000000E+00  1.23755293E+01  1.23755293E+01 -2.47510585E+01  0.00000000E+00
  1.23755293E+01  1.23755293E+01 -2.47510585E+01  0.00000000E+00  1.23755293E+01
  1.23755293E+01 -2.47510585E+01  0.00000000E+00  1.23755293E+01  1.23755293E+01
 -2.47510585E+01  0.00000000E+00  1.23755293E+01  1.23755293E+01 -2.47510585E+01
  0.00000000E+00  1.23755293E+01  1.23755293E+01 -2.47510585E+01  0.00000000E+00
  1.23755293E+01  1.23755293E+01 -2.47510585E+01  0.00000000E+00  1.23755293E+01
  1.23755293E+01 -2.47510585E+01  0.00000000E+00  1.23755293E+01  1.23755293E+01
 -2.47510585E+01  0.00000000E+00  1.23755293E+01  1.23755293E+01 -2.47510585E+01
  0.00000000E+00  1.23755293E+01  1.23755293E+01 -2.47510585E+01  0.00000000E+00
  1.23755293E+01  1.23755293E+01 -2.47510585E+01  0.00000000E+00  1.23755293E+01
  1.23755293E+01 -2.47510585E+01  0.00000000E+00  1.23755293E+01  1.23755293E+01
 -2.47510585E+01  0.00000000E+00  1.23755293E+01  1.23755293E+01 -2.47510585E+01
  0.00000000E+00  1.23755293E+01  1.23755293E+01 -2.47510585E+01  0.00000000E+00
  1.23755293E+01  1.23755293E+01 -2.47510585E+01  0.00000000E+00  1.23755293E+01
  1.23755293E+01 -2.47510585E+01  0.00000000E+00  1.23755293E+01  1.23755293E+01
 -2.47510585E+01  0.00000000E+00  1.23755293E+01  1.23755293E+01 -2.47510585E+01
  0.00000000E+00  1.23755293E+01  1.23755293E+01 -2.47510585E+01  0.00000000E+00
  1.23755293E+01  1.23755293E+01 -2.47510585E+01  0.00000000E+00  1.23755293E+01
  1.23755293E+01 -2.47510585E+01  0.00000000E+00  1.23755293E+01  1.23755293E+01
 -2.47510585E+01  0.00000000E+00  1.23755293E+01  1.23755293E+01 -2.47510585E+01
  0.00000000E+00  1.23755293E+01  1.23755293E+01 -2.47510585E+01  0.00000000E+00
  1.23755293E+01  1.23755293E+01 -2.47510585E+01  0.00000000E+00  1.23755293E+01
  1.23755293E+01 -2.47510585E+01  0.00000000E+00  1.23755293E+01  1.23755293E+01
 -2.47510585E+01  0.00000000E+00  1.23755293E+01  1.23755293E+01 -2.47510585E+01
  0.00000000E+00  1.23755293E+01  1.23755293E+01 -2.47510585E+01  0.00000000E+00
  1.23755293E+01  1.23755293E+01 -2.47510585E+01  0.00000000E+00  1.23755293E+01
  1.23755293E+01 -2.47510585E+01  0.00000000E+00  1.23755293E+01  1.23755293E+01
 -2.47510585E+01  0.00000000E+00  1.23755293E+01  1.23755293E+01 -2.47510585E+01
  0.00000000E+00  1.23755293E+01  1.23755293E+01 -2.47510585E+01  0.00000000E+00
  1.23755293E+01  1.23755293E+01 -2.47510585E+01  0.00000000E+00  1.23755293E+01
  1.23755293E+01 -2.47510585E+01  0.00000000E+00  1.23755293E+01  1.23755293E+01
 -2.47510585E+01  0.00000000E+00  1.23755293E+01  1.23755293E+01 -2.47510585E+01
  0.00000000E+00  1.23755293E+01  1.23755293E+01 -2.47510585E+01  0.00000000E+00
  1.23755293E+01  1.23755293E+01 -2.47510585E+01  0.00000000E+00  1.23755293E+01
  1.23755293E+01 -2.47510585E+01  0.00000000E+00  1.23755293E+01  1.23755293E+01
 -2.47510585E+01  0.00000000E+00  1.23755293E+01  1.23755293E+01 -2.47510585E+01
  0.00000000E+00  1.23755293E+01  1.23755293E+01 -2.47510585E+01  0.00000000E+00
  1.23755293E+01  1.23755293E+01 -2.47510585E+01  0.00000000E+00  1.23755293E+01
  1.23755293E+01 -2.47510585E+01  0.00000000E+00  1.23755293E+01  1.23755293E+01
 -2.47510585E+01  0.00000000E+00  1.23755293E+01  1.23755293E+01 -2.47510585E+01
  0.00000000E+00  1.23755293E+01  1.23755293E+01 -2.47510585E+01  0.00000000E+00
  1.23755293E+01  1.23755293E+01 -2.47510585E+01  0.00000000E+00  1.23755293E+01
  1.23755293E+01 -2.47510585E+01  0.00000000E+00  1.23755293E+01  1.23755293E+01
 -2.47510585E+01  0.00000000E+00  1.23755293E+01  1.23755293E+01 -2.47510585E+01
  0.00000000E+00  1.23755293E+01  1.23755293E+01 -2.47510585E+01  0.00000000E+00
  1.23755293E+01  1.23755293E+01 -2.47510585E+01  0.00000000E+00  1.23755293E+01
  1.23755293E+01 -2.47510585E+01  0.00000000E+00  1.23755293E+01  1.23755293E+01
 -2.47510585E+01  0.00000000E+00  1.23755293E+01  1.23755293E+01 -2.47510585E+01
  0.00000000E+00  1.23755293E+01  1.23755293E+01 -2.47510585E+01  0.00000000E+00
  1.23755293E+01  1.23755293E+01 -2.47510585E+01  0.00000000E+00  1.23755293E+01
  1.23755293E+01 -2.47510585E+01  0.00000000E+00  1.23755293E+01  1.23755293E+01
 -2.47510585E+01  0.00000000E+00  1.23755293E+01  1.23755293E+01 -2.47510585E+01
  0.00000000E+00  1.23755293E+01  1.23755293E+01 -2.47510585E+01  0.00000000E+00
  1.23755293E+01  1.23755293E+01 -2.47510585E+01  0.00000000E+00  1.23755293E+01
  1.23755293E+01 -2.47510585E+01  0.00000000E+00  1.23755293E+01  1.23755293E+01
 -2.47510585E+01  0.00000000E+00  1.23755293E+01  1.23755293E+01 -2.47510585E+01
  0.00000000E+00  1.23755293E+01  1.23755293E+01 -2.47510585E+01  0.00000000E+00
  1.23755293E+01  1.23755293E+01 -2.47510585E+01  0.00000000E+00  1.23755293E+01
  1.23755293E+01 -2.47510585E+01  0.00000000E+00  1.23755293E+01  1.23755293E+01
 -2.47510585E+01  0.00000000E+00  1.23755293E+01  1.23755293E+01 -2.47510585E+01
  0.00000000E+00  1.23755293E+01  1.23755293E+01 -2.47510585E+01  0.00000000E+00
  1.23755293E+01  1.23755293E+01 -2.47510585E+01  0.00000000E+00  1.23755293E+01
  1.23755293E+01 -2.47510585E+01  0.00000000E+00  1.23755293E+01  1.23755293E+01
 -2.47510585E+01  0.00000000E+00  1.23755293E+01  1.23755293E+01 -2.47510585E+01
  0.00000000E+00  1.23755293E+01  1.23755293E+01 -2.47510585E+01  0.00000000E+00
  1.23755293E+01  1.23755293E+01 -2.47510585E+01  0.00000000E+00  1.23755293E+01
  1.23755293E+01 -2.47510585E+01  0.00000000E+00  1.23755293E+01  1.23755293E+01
 -2.47510585E+01  0.00000000E+00  1.23755293E+01  1.23755293E+01 -2.47510585E+01
  0.00000000E+00  1.23755293E+01  1.23755293E+01 -2.47510585E+01  0.00000000E+00
  1.23755293E+01  1.23755293E+01 -2.47510585E+01  0.00000000E+00  1.23755293E+01
  1.23755293E+01 -2.47510585E+01  0.00000000E+00  1.23755293E+01  1.23755293E+01
 -2.47510585E+01  0.00000000E+00  1.23755293E+01  1.23755293E+01 -2.47510585E+01
  0.00000000E+00  1.23755293E+01  1.23755293E+01 -2.47510585E+01  0.00000000E+00
  1.23755293E+01  1.23755293E+01 -2.47510585E+01  0.00000000E+00  1.23755293E+01
  1.23755293E+01 -2.47510585E+01  0.00000000E+00  1.23755293E+01  1.23755293E+01
 -2.47510585E+01  0.00000000E+00  1.23755293E+01  1.23755293E+01 -2.47510585E+01
  0.00000000E+00  1.23755293E+01  1.23755293E+01 -2.47510585E+01  0.00000000E+00
  1.23755293E+01  1.23755293E+01 -2.47510585E+01  0.00000000E+00  1.23755293E+01
  1.23755293E+01 -2.47510585E+01  0.00000000E+00  1.23755293E+01  1.23755293E+01
 -2.47510585E+01  0.00000000E+00  1.23755293E+01  1.23755293E+01 -2.47510585E+01
  0.00000000E+00  1.23755293E+01  1.23755293E+01 -2.47510585E+01  0.00000000E+00
  1.23755293E+01  1.23755293E+01 -2.47510585E+01  0.00000000E+00  1.23755293E+01
  1.23755293E+01 -2.47510585E+01  0.00000000E+00  1.23755293E+01  1.23755293E+01
 -2.47510585E+01  0.00000000E+00  1.23755293E+01  1.23755293E+01 -2.47510585E+01
  0.00000000E+00  1.23755293E+01  1.23755293E+01 -2.47510585E+01  0.00000000E+00
  1.23755293E+01  1.23755293E+01 -2.47510585E+01  0.00000000E+00  1.23755293E+01
  1.23755293E+01 -2.47510585E+01  0.00000000E+00  1.23755293E+01  1.23755293E+01
 -2.47510585E+01  0.00000000E+00  1.23755293E+01  1.23755293E+01 -2.47510585E+01
  0.00000000E+00  1.23755293E+01  1.23755293E+01 -2.47510585E+01  0.00000000E+00
  1.23755293E+01  1.23755293E+01 -2.47510585E+01  0.00000000E+00  1.23755293E+01
  1.23755293E+01 -2.47510585E+01  0.00000000E+00  1.23755293E+01  1.23755293E+01
 -2.47510585E+01  0.00000000E+00  1.23755293E+01  1.23755293E+01 -2.47510585E+01
  0.00000000E+00  1.23755293E+01  1.23755293E+01 -2.47510585E+01  0.00000000E+00
  1.23755293E+01  1.23755293E+01 -2.47510585E+01  0.00000000E+00  1.23755293E+01
  1.23755293E+01 -2.47510585E+01  0.00000000E+00  1.23755293E+01  1.23755293E+01
 -2.47510585E+01  0.00000000E+00  1.23755293E+01  1.23755293E+01 -2.47510585E+01
  0.00000000E+00  1.23755293E+01  1.23755293E+01 -2.47510585E+01  0.00000000E+00
  1.23755293E+01  1.23755293E+01 -2.47510585E+01  0.00000000E+00  1.23755293E+01
  1.23755293E+01 -2.47510585E+01  0.00000000E+00  1.23755293E+01  1.23755293E+01
 -2.47510585E+01  0.00000000E+00  1.23755293E+01  1.23755293E+01 -2.47510585E+01
  0.00000000E+00  1.23755293E+01  1.23755293E+01 -2.47510585E+01  0.00000000E+00
  1.23755293E+01  1.23755293E+01 -2.47510585E+01  0.00000000E+00  1.23755293E+01
  1.23755293E+01 -2.47510585E+01  0.00000000E+00  1.23755293E+01  1.23755293E+01
 -2.47510585E+01  0.00000000E+00  1.23755293E+01  1.23755293E+01 -2.47510585E+01
  0.00000000E+00  1.23755293E+01  1.23755293E+01 -2.47510585E+01  0.00000000E+00
  1.23755293E+01  1.23755293E+01 -2.47510585E+01  0.00000000E+00  1.23755293E+01
  1.23755293E+01 -2.47510585E+01  0.00000000E+00  1.23755293E+01  1.23755293E+01
 -2.47510585E+01  0.00000000E+00  1.23755293E+01  1.23755293E+01 -2.47510585E+01
  0.00000000E+00  1.23755293E+01  1.23755293E+01 -2.47510585E+01  0.00000000E+00
  1.23755293E+01  1.23755293E+01 -2.47510585E+01  0.00000000E+00  1.23755293E+01
  1.23755293E+01 -2.47510585E+01  0.00000000E+00  1.23755293E+01  1.23755293E+01
 -2.47510585E+01  0.00000000E+00  1.23755293E+01  1.23755293E+01 -2.47510585E+01
  0.00000000E+00  1.23755293E+01  1.23755293E+01 -2.47510585E+01  0.00000000E+00
  1.23755293E+01  1.23755293E+01 -2.47510585E+01  0.00000000E+00  1.23755293E+01
  1.23755293E+01 -2.47510585E+01  0.00000000E+00  1.23755293E+01  1.23755293E+01
 -2.47510585E+01  0.00000000E+00  1.23755293E+01  1.23755293E+01 -2.47510585E+01
  0.00000000E+00  1.23755293E+01  1.23755293E+01 -2.47510585E+01  0.00000000E+00
  1.23755293E+01  1.23755293E+01 -2.47510585E+01  0.00000000E+00  1.23755293E+01
  1.23755293E+01 -2.47510585E+01  0.00000000E+00  1.23755293E+01  1.23755293E+01
 -2.47510585E+01  0.00000000E+00  1.23755293E+01  1.23755293E+01 -2.47510585E+01
  0.00000000E+00  1.23755293E+01  1.23755293E+01 -2.47510585E+01  0.00000000E+00
  1.23755293E+01  1.23755293E+01 -2.47510585E+01  0.00000000E+00  1.23755293E+01
  1.23755293E+01 -2.47510585E+01  0.00000000E+00  1.23755293E+01  1.23755293E+01
 -2.47510585E+01  0.00000000E+00  1.23755293E+01  1.23755293E+01 -2.47510585E+01
  0.00000000E+00  1.23755293E+01  1.23755293E+01 -2.47510585E+01  0.00000000E+00
  1.23755293E+01  1.23755293E+01 -2.47510585E+01  0.00000000E+00  1.23755293E+01
  1.23755293E+01 -2.47510585E+01  0.00000000E+00  1.23755293E+01  1.23755293E+01
 -2.47510585E+01  0.00000000E+00  1.23755293E+01  1.23755293E+01 -2.47510585E+01
  0.00000000E+00  1.23755293E+01  1.23755293E+01 -2.47510585E+01  0.00000000E+00
  1.23755293E+01  1.23755293E+01 -2.47510585E+01  0.00000000E+00  1.23755293E+01
  1.23755293E+01 -2.47510585E+01  0.00000000E+00  1.23755293E+01  1.23755293E+01
 -2.47510585E+01  0.00000000E+00  1.23755293E+01  1.23755293E+01 -2.47510585E+01
  0.00000000E+00  1.23755293E+01  1.23755293E+01 -2.47510585E+01  0.00000000E+00
  1.23755293E+01  1.23755293E+01 -2.47510585E+01  0.00000000E+00  1.23755293E+01
  1.23755293E+01 -2.47510585E+01  0.00000000E+00  1.23755293E+01  1.23755293E+01
 -2.47510585E+01  0.00000000E+00  1.23755293E+01  1.23755293E+01 -2.47510585E+01
  0.00000000E+00  1.23755293E+01  1.23755293E+01 -2.47510585E+01  0.00000000E+00
  1.23755293E+01  1.23755293E+01 -2.47510585E+01  0.00000000E+00  1.23755293E+01
  1.23755293E+01 -2.47510585E+01  0.00000000E+00  1.23755293E+01  1.23755293E+01
 -2.47510585E+01  0.00000000E+00  1.23755293E+01  1.23755293E+01 -2.47510585E+01
  0.00000000E+00  1.23755293E+01  1.23755293E+01 -2.47510585E+01  0.00000000E+00
  1.23755293E+01  1.23755293E+01 -2.47510585E+01  0.00000000E+00  1.23755293E+01
  1.23755293E+01 -2.47510585E+01  0.00000000E+00  1.23755293E+01  1.23755293E+01
 -2.47510585E+01  0.00000000E+00  1.23755293E+01  1.23755293E+01 -2.47510585E+01
  0.00000000E+00  1.23755293E+01  1.23755293E+01 -2.47510585E+01  0.00000000E+00
  1.23755293E+01  1.23755293E+01 -2.47510585E+01  0.00000000E+00  1.23755293E+01
  1.23755293E+01 -2.47510585E+01  0.00000000E+00  1.23755293E+01  1.23755293E+01
 -2.47510585E+01  0.00000000E+00  1.23755293E+01  1.23755293E+01 -2.47510585E+01
  0.00000000E+00  1.23755293E+01  1.23755293E+01 -2.47510585E+01  0.00000000E+00
  1.23755293E+01  1.23755293E+01 -2.47510585E+01  0.00000000E+00  1.23755293E+01
  1.23755293E+01 -2.47510585E+01  0.00000000E+00  1.23755293E+01  1.23755293E+01
 -2.47510585E+01  0.00000000E+00  1.23755293E+01  1.23755293E+01 -2.47510585E+01
  0.00000000E+00  1.23755293E+01  1.23755293E+01 -2.47510585E+01  0.00000000E+00
  1.23755293E+01  1.23755293E+01 -2.47510585E+01  0.00000000E+00  1.23755293E+01
  1.23755293E+01 -2.47510585E+01  0.00000000E+00  1.23755293E+01  1.23755293E+01
 -2.47510585E+01  0.00000000E+00  1.23755293E+01  1.23755293E+01 -2.47510585E+01
  0.00000000E+00  1.23755293E+01  1.23755293E+01 -2.47510585E+01  0.00000000E+00
  1.23755293E+01  1.23755293E+01 -2.47510585E+01  0.00000000E+00  1.23755293E+01
  1.23755293E+01 -2.47510585E+01  0.00000000E+00  1.23755293E+01  1.23755293E+01
 -2.47510585E+01  0.00000000E+00  1.23755293E+01  1.23755293E+01 -2.47510585E+01
  0.00000000E+00  1.23755293E+01  1.23755293E+01 -2.47510585E+01  0.00000000E+00
  1.23755293E+01  1.23755293E+01 -2.47510585E+01  0.00000000E+00  1.23755293E+01
  1.23755293E+01 -2.47510585E+01  0.00000000E+00  1.23755293E+01  1.23755293E+01
 -2.47510585E+01  0.00000000E+00  1.23755293E+01  1.23755293E+01 -2.47510585E+01
  0.00000000E+00  1.23755293E+01  1.23755293E+01 -2.47510585E+01  0.00000000E+00
  1.23755293E+01  1.23755293E+01 -2.47510585E+01  0.00000000E+00  1.23755293E+01
  1.23755293E+01 -2.47510585E+01  0.00000000E+00  1.23755293E+01  1.23755293E+01
 -2.47510585E+01  0.00000000E+00  1.23755293E+01  1.23755293E+01 -2.47510585E+01
  0.00000000E+00  1.23755293E+01  1.23755293E+01 -2.47510585E+01  0.00000000E+00
  1.23755293E+01  1.23755293E+01 -2.47510585E+01  0.00000000E+00  1.23755293E+01
  1.23755293E+01 -2.47510585E+01  0.00000000E+00  1.23755293E+01  1.23755293E+01
 -2.47510585E+01  0.00000000E+00  1.23755293E+01  1.23755293E+01 -2.47510585E+01
  0.00000000E+00  1.23755293E+01  1.23755293E+01 -2.47510585E+01  0.00000000E+00
  1.23755293E+01  1.23755293E+01 -2.47510585E+01  0.00000000E+00  1.23755293E+01
  1.23755293E+01 -2.47510585E+01  0.00000000E+00  1.23755293E+01  1.23755293E+01
 -2.47510585E+01  0.00000000E+00  1.23755293E+01  1.23755293E+01 -2.47510585E+01
  0.00000000E+00  1.23755293E+01  1.23755293E+01 -2.47510585E+01  0.00000000E+00
  1.23755293E+01  1.23755293E+01 -2.47510585E+01  0.00000000E+00  1.23755293E+01
  1.23755293E+01 -2.47510585E+01  0.00000000E+00  1.23755293E+01  1.23755293E+01
 -2.47510585E+01  0.00000000E+00  1.23755293E+01  1.23755293E+01 -2.47510585E+01
  0.00000000E+00  1.23755293E+01  1.23755293E+01 -2.47510585E+01  0.00000000E+00
  1.23755293E+01  1.23755293E+01 -2.47510585E+01  0.00000000E+00  1.23755293E+01
  1.23755293E+01 -2.47510585E+01  0.00000000E+00  1.23755293E+01  1.23755293E+01
 -2.47510585E+01  0.00000000E+00  1.23755293E+01  1.23755293E+01 -2.47510585E+01
  0.00000000E+00  1.23755293E+01  1.23755293E+01 -2.47510585E+01  0.00000000E+00
  1.23755293E+01  1.23755293E+01 -2.47510585E+01  0.00000000E+00  1.23755293E+01
  1.23755293E+01 -2.47510585E+01  0.00000000E+00  1.23755293E+01  1.23755293E+01
 -2.47510585E+01  0.00000000E+00  1.23755293E+01  1.23755293E+01 -2.47510585E+01
  0.00000000E+00  1.23755293E+01  1.23755293E+01 -2.47510585E+01  0.00000000E+00
  1.23755293E+01  1.23755293E+01 -2.47510585E+01  0.00000000E+00  1.23755293E+01
  1.23755293E+01 -2.47510585E+01  0.00000000E+00  1.23755293E+01  1.23755293E+01
 -2.47510585E+01  0.00000000E+00  1.23755293E+01  1.23755293E+01 -2.47510585E+01
  0.00000000E+00  1.23755293E+01  1.23755293E+01 -2.47510585E+01  0.00000000E+00
  1.23755293E+01  1.23755293E+01 -2.47510585E+01  0.00000000E+00  1.23755293E+01
  1.23755293E+01 -2.47510585E+01  0.00000000E+00  1.23755293E+01  1.23755293E+01
 -2.47510585E+01  0.00000000E+00  1.23755293E+01  1.23755293E+01 -2.47510585E+01
  0.00000000E+00  1.23755293E+01  1.23755293E+01 -2.47510585E+01  0.00000000E+00
  1.23755293E+01  1.23755293E+01 -2.47510585E+01  0.00000000E+00  1.23755293E+01
  1.23755293E+01 -2.47510585E+01  0.00000000E+00  1.23755293E+01  1.23755293E+01
 -2.47510585E+01  0.00000000E+00  1.23755293E+01  1.23755293E+01 -2.47510585E+01
  0.00000000E+00  1.23755293E+01  1.23755293E+01 -2.47510585E+01  0.00000000E+00
  1.23755293E+01  1.23755293E+01 -2.47510585E+01  0.00000000E+00  1.23755293E+01
  1.23755293E+01 -2.47510585E+01  0.00000000E+00  1.23755293E+01  1.23755293E+01
 -2.47510585E+01  0.00000000E+00  1.23755293E+01  1.23755293E+01 -2.47510585E+01
  0.00000000E+00  1.23755293E+01  1.23755293E+01 -2.47510585E+01  0.00000000E+00
  1.23755293E+01  1.23755293E+01 -2.47510585E+01  0.00000000E+00  1.23755293E+01
  1.23755293E+01 -2.47510585E+01  0.00000000E+00  1.23755293E+01  1.23755293E+01
 -2.47510585E+01  0.00000000E+00  1.23755293E+01  1.23755293E+01 -2.47510585E+01
  0.00000000E+00  1.23755293E+01  1.23755293E+01 -2.47510585E+01  0.00000000E+00
  1.23755293E+01  1.23755293E+01 -2.47510585E+01  0.00000000E+00  1.23755293E+01
  1.23755293E+01 -2.47510585E+01  0.00000000E+00  1.23755293E+01  1.23755293E+01
 -2.47510585E+01  0.00000000E+00  1.23755293E+01  1.23755293E+01 -2.47510585E+01
  0.00000000E+00  1.23755293E+01  1.23755293E+01 -2.47510585E+01  0.00000000E+00
  1.23755293E+01  1.23755293E+01 -2.47510585E+01  0.00000000E+00  1.23755293E+01
  1.23755293E+01 -2.47510585E+01  0.00000000E+00  1.23755293E+01  1.23755293E+01
 -2.47510585E+01  0.00000000E+00  1.23755293E+01  1.23755293E+01 -2.47510585E+01
  0.00000000E+00  1.23755293E+01  1.23755293E+01 -2.47510585E+01  0.00000000E+00
  1.23755293E+01  1.23755293E+01 -2.47510585E+01  0.00000000E+00  1.23755293E+01
  1.23755293E+01 -2.47510585E+01  0.00000000E+00  1.23755293E+01  1.23755293E+01
 -2.47510585E+01  0.00000000E+00  1.23755293E+01  1.23755293E+01 -2.47510585E+01
  0.00000000E+00  1.23755293E+01  1.23755293E+01 -2.47510585E+01  0.00000000E+00
  1.23755293E+01  1.23755293E+01 -2.47510585E+01  0.00000000E+00  1.23755293E+01
  1.23755293E+01 -2.47510585E+01  0.00000000E+00  1.23755293E+01  1.23755293E+01
 -2.47510585E+01  0.00000000E+00  1.23755293E+01  1.23755293E+01 -2.47510585E+01
  0.00000000E+00  1.23755293E+01  1.23755293E+01 -2.47510585E+01  0.00000000E+00
  1.23755293E+01  1.23755293E+01 -2.47510585E+01  0.00000000E+00  1.23755293E+01
  1.23755293E+01 -2.47510585E+01  0.00000000E+00  1.23755293E+01  1.23755293E+01
 -2.47510585E+01  0.00000000E+00  1.23755293E+01  1.23755293E+01 -2.47510585E+01
  0.00000000E+00  1.23755293E+01  1.23755293E+01 -2.47510585E+01  0.00000000E+00
  1.23755293E+01  1.23755293E+01 -2.47510585E+01  0.00000000E+00  1.23755293E+01
  1.23755293E+01 -2.47510585E+01  0.00000000E+00  1.23755293E+01  1.23755293E+01
 -2.47510585E+01  0.00000000E+00  1.23755293E+01  1.23755293E+01 -2.47510585E+01
  0.00000000E+00  1.23755293E+01  1.23755293E+01 -2.47510585E+01  0.00000000E+00
  1.23755293E+01  1.23755293E+01 -2.47510585E+01  0.00000000E+00  1.23755293E+01
  1.23755293E+01 -2.47510585E+01  0.00000000E+00  1.23755293E+01  1.23755293E+01
 -2.47510585E+01  0.00000000E+00  1.23755293E+01  1.23755293E+01 -2.47510585E+01
  0.00000000E+00  1.23755293E+01  1.23755293E+01 -2.47510585E+01  0.00000000E+00
  1.23755293E+01  1.23755293E+01 -2.47510585E+01  0.00000000E+00  1.23755293E+01
  1.23755293E+01 -2.47510585E+01  0.00000000E+00  1.23755293E+01  1.23755293E+01
 -2.47510585E+01  0.00000000E+00  1.23755293E+01  1.23755293E+01 -2.47510585E+01
  0.00000000E+00  1.23755293E+01  1.23755293E+01 -2.47510585E+01  0.00000000E+00
  1.23755293E+01  1.23755293E+01 -2.47510585E+01  0.00000000E+00  1.23755293E+01
  1.23755293E+01 -2.47510585E+01  0.00000000E+00  1.23755293E+01  1.23755293E+01
 -2.47510585E+01  0.00000000E+00  1.23755293E+01  1.23755293E+01 -2.47510585E+01
  0.00000000E+00  1.23755293E+01  1.23755293E+01 -2.47510585E+01  0.00000000E+00
  1.23755293E+01  1.23755293E+01 -2.47510585E+01  0.00000000E+00  1.23755293E+01
  1.23755293E+01 -2.47510585E+01  0.00000000E+00  1.23755293E+01  1.23755293E+01
 -2.47510585E+01  0.00000000E+00  1.23755293E+01  1.23755293E+01 -2.47510585E+01
  0.00000000E+00  1.23755293E+01  1.23755293E+01 -2.47510585E+01  0.00000000E+00
  1.23755293E+01  1.23755293E+01 -2.47510585E+01  0.00000000E+00  1.23755293E+01
  1.23755293E+01 -2.47510585E+01  0.00000000E+00  1.23755293E+01  1.23755293E+01
 -2.47510585E+01  0.00000000E+00  1.23755293E+01  1.23755293E+01 -2.47510585E+01
  0.00000000E+00  1.23755293E+01  1.23755293E+01 -2.47510585E+01  0.00000000E+00
  1.23755293E+01  1.23755293E+01 -2.47510585E+01  0.00000000E+00  1.23755293E+01
  1.23755293E+01 -2.47510585E+01  0.00000000E+00  1.23755293E+01  1.23755293E+01
 -2.47510585E+01  0.00000000E+00  1.23755293E+01  1.23755293E+01 -2.47510585E+01
  0.00000000E+00  1.23755293E+01  1.23755293E+01 -2.47510585E+01  0.00000000E+00
  1.23755293E+01  1.23755293E+01 -2.47510585E+01  0.00000000E+00  1.23755293E+01
  1.23755293E+01 -2.47510585E+01  0.00000000E+00  1.23755293E+01  1.23755293E+01
 -2.47510585E+01  0.00000000E+00  1.23755293E+01  1.23755293E+01 -2.47510585E+01
  0.00000000E+00  1.23755293E+01  1.23755293E+01 -2.47510585E+01  0.00000000E+00
  1.23755293E+01  1.23755293E+01 -2.47510585E+01  0.00000000E+00  1.23755293E+01
  1.23755293E+01 -2.47510585E+01  0.00000000E+00  1.23755293E+01  1.23755293E+01
 -2.47510585E+01  0.00000000E+00  1.23755293E+01  1.23755293E+01 -2.47510585E+01
  0.00000000E+00  1.23755293E+01  1.23755293E+01 -2.47510585E+01  0.00000000E+00
  1.23755293E+01  1.23755293E+01 -2.47510585E+01  0.00000000E+00  1.23755293E+01
  1.23755293E+01 -2.47510585E+01  0.00000000E+00  1.23755293E+01  1.23755293E+01
 -2.47510585E+01  0.00000000E+00  1.23755293E+01  1.23755293E+01 -2.47510585E+01
  0.00000000E+00  1.23755293E+01  1.23755293E+01 -2.47510585E+01  0.00000000E+00
  1.23755293E+01  1.23755293E+01 -2.47510585E+01  0.00000000E+00  1.23755293E+01
  1.23755293E+01 -2.47510585E+01  0.00000000E+00  1.23755293E+01  1.23755293E+01
 -2.47510585E+01  0.00000000E+00  1.23755293E+01  1.23755293E+01 -2.47510585E+01
  0.00000000E+00  1.23755293E+01  1.23755293E+01 -2.47510585E+01  0.00000000E+00
  1.23755293E+01  1.23755293E+01 -2.47510585E+01  0.00000000E+00  1.23755293E+01
  1.23755293E+01 -2.47510585E+01  0.00000000E+00  1.23755293E+01  1.23755293E+01
 -2.47510585E+01  0.00000000E+00  1.23755293E+01  1.23755293E+01 -2.47510585E+01
  0.00000000E+00  1.23755293E+01  1.23755293E+01 -2.47510585E+01  0.00000000E+00
  1.23755293E+01  1.23755293E+01 -2.47510585E+01  0.00000000E+00  1.23755293E+01
  1.23755293E+01 -2.47510585E+01  0.00000000E+00  1.23755293E+01  1.23755293E+01
 -2.47510585E+01  0.00000000E+00  1.23755293E+01  1.23755293E+01 -2.47510585E+01
  0.00000000E+00  1.23755293E+01  1.23755293E+01 -2.47510585E+01  0.00000000E+00
  1.23755293E+01  1.23755293E+01 -2.47510585E+01  0.00000000E+00  1.23755293E+01
  1.23755293E+01 -2.47510585E+01  0.00000000E+00  1.23755293E+01  1.23755293E+01
 -2.47510585E+01  0.00000000E+00  1.23755293E+01  1.23755293E+01 -2.47510585E+01
  0.00000000E+00  1.23755293E+01  1.23755293E+01 -2.47510585E+01  0.00000000E+00
  1.23755293E+01  1.23755293E+01 -2.47510585E+01  0.00000000E+00  1.23755293E+01
  1.23755293E+01 -2.47510585E+01  0.00000000E+00  1.23755293E+01  1.23755293E+01
 -2.47510585E+01  0.00000000E+00  1.23755293E+01  1.23755293E+01 -2.47510585E+01
  0.00000000E+00  1.23755293E+01  1.23755293E+01 -2.47510585E+01  0.00000000E+00
  1.23755293E+01  1.23755293E+01 -2.47510585E+01  0.00000000E+00  1.23755293E+01
  1.23755293E+01 -2.47510585E+01  0.00000000E+00  1.23755293E+01  1.23755293E+01
 -2.47510585E+01  0.00000000E+00  1.23755293E+01  1.23755293E+01 -2.47510585E+01
  0.00000000E+00  1.23755293E+01  1.23755293E+01 -2.47510585E+01  0.00000000E+00
  1.23755293E+01  1.23755293E+01 -2.47510585E+01  0.00000000E+00  1.23755293E+01
  1.23755293E+01 -2.47510585E+01  0.00000000E+00  1.23755293E+01  1.23755293E+01
 -2.47510585E+01  0.00000000E+00  1.23755293E+01  1.23755293E+01 -2.47510585E+01
  0.00000000E+00  1.23755293E+01  1.23755293E+01 -2.47510585E+01  0.00000000E+00
  1.23755293E+01  1.23755293E+01 -2.47510585E+01  0.00000000E+00  1.23755293E+01
  1.23755293E+01 -2.47510585E+01  0.00000000E+00  1.23755293E+01  1.23755293E+01
 -2.47510585E+01  0.00000000E+00  1.23755293E+01  1.23755293E+01 -2.47510585E+01
  0.00000000E+00  1.23755293E+01  1.23755293E+01 -2.47510585E+01  0.00000000E+00
  1.23755293E+01  1.23755293E+01 -2.47510585E+01  0.00000000E+00  1.23755293E+01
  1.23755293E+01 -2.47510585E+01  0.00000000E+00  1.23755293E+01  1.23755293E+01
 -2.47510585E+01  0.00000000E+00  1.23755293E+01  1.23755293E+01 -2.47510585E+01
  0.00000000E+00  1.23755293E+01  1.23755293E+01 -2.47510585E+01  0.00000000E+00
  1.23755293E+01  1.23755293E+01 -2.47510585E+01  0.00000000E+00  1.23755293E+01
  1.23755293E+01 -2.47510585E+01  0.00000000E+00  1.23755293E+01  1.23755293E+01
 -2.47510585E+01  0.00000000E+00  1.23755293E+01  1.23755293E+01 -2.47510585E+01
  0.00000000E+00  1.23755293E+01  1.23755293E+01 -2.47510585E+01  0.00000000E+00
  1.23755293E+01  1.23755293E+01 -2.47510585E+01  0.00000000E+00  1.23755293E+01
  1.23755293E+01 -2.47510585E+01  0.00000000E+00  1.23755293E+01  1.23755293E+01
 -2.47510585E+01  0.00000000E+00  1.23755293E+01  1.23755293E+01 -2.47510585E+01
  0.00000000E+00  1.23755293E+01  1.23755293E+01 -2.47510585E+01  0.00000000E+00
  1.23755293E+01  1.23755293E+01 -2.47510585E+01  0.00000000E+00  1.23755293E+01
  1.23755293E+01 -2.47510585E+01  0.00000000E+00  1.23755293E+01  1.23755293E+01
 -2.47510585E+01  0.00000000E+00  1.23755293E+01  1.23755293E+01 -2.47510585E+01
  0.00000000E+00  1.23755293E+01  1.23755293E+01 -2.47510585E+01  0.00000000E+00
  1.23755293E+01  1.23755293E+01 -2.47510585E+01  0.00000000E+00  1.23755293E+01
  1.23755293E+01 -2.47510585E+01  0.00000000E+00  1.23755293E+01  1.23755293E+01
 -2.47510585E+01  0.00000000E+00  1.23755293E+01  1.23755293E+01 -2.47510585E+01
  0.00000000E+00  1.23755293E+01  1.23755293E+01 -2.47510585E+01  0.00000000E+00
  1.23755293E+01  1.23755293E+01 -2.47510585E+01  0.00000000E+00  1.23755293E+01
  1.23755293E+01 -2.47510585E+01  0.00000000E+00  1.23755293E+01  1.23755293E+01
 -2.47510585E+01  0.00000000E+00  1.23755293E+01  1.23755293E+01 -2.47510585E+01
  0.00000000E+00  1.23755293E+01  1.23755293E+01 -2.47510585E+01  0.00000000E+00
  1.23755293E+01  1.23755293E+01 -2.47510585E+01  0.00000000E+00  1.23755293E+01
  1.23755293E+01 -2.47510585E+01  0.00000000E+00  1.23755293E+01  1.23755293E+01
 -2.47510585E+01  0.00000000E+00  1.23755293E+01  1.23755293E+01 -2.47510585E+01
  0.00000000E+00  1.23755293E+01  1.23755293E+01 -2.47510585E+01  0.00000000E+00
  1.23755293E+01  1.23755293E+01 -2.47510585E+01  0.00000000E+00  1.23755293E+01
  1.23755293E+01 -2.47510585E+01  0.00000000E+00  1.23755293E+01  1.23755293E+01
 -2.47510585E+01  0.00000000E+00  1.23755293E+01  1.23755293E+01 -2.47510585E+01
  0.00000000E+00  1.23755293E+01  1.23755293E+01 -2.47510585E+01  0.00000000E+00
  1.23755293E+01  1.23755293E+01 -2.47510585E+01  0.00000000E+00  1.23755293E+01
  1.23755293E+01 -2.47510585E+01  0.00000000E+00  1.23755293E+01  1.23755293E+01
 -2.47510585E+01  0.00000000E+00  1.23755293E+01  1.23755293E+01 -2.47510585E+01
  0.00000000E+00  1.23755293E+01  1.23755293E+01 -2.47510585E+01  0.00000000E+00
  1.23755293E+01  1.23755293E+01 -2.47510585E+01  0.00000000E+00  1.23755293E+01
  1.23755293E+01 -2.47510585E+01  0.00000000E+00  1.23755293E+01  1.23755293E+01
 -2.47510585E+01  0.00000000E+00  1.23755293E+01  1.23755293E+01 -2.47510585E+01
  0.00000000E+00  1.23755293E+01  1.23755293E+01 -2.47510585E+01  0.00000000E+00
  1.23755293E+01  1.23755293E+01 -2.47510585E+01  0.00000000E+00  1.23755293E+01
  1.23755293E+01 -2.47510585E+01  0.00000000E+00  1.23755293E+01  1.23755293E+01
 -2.47510585E+01  0.00000000E+00  1.23755293E+01  1.23755293E+01 -2.47510585E+01
  0.00000000E+00  1.23755293E+01  1.23755293E+01 -2.47510585E+01  0.00000000E+00
  1.23755293E+01  1.23755293E+01 -2.47510585E+01  0.00000000E+00  1.23755293E+01
  1.23755293E+01 -2.47510585E+01  0.00000000E+00  1.23755293E+01  1.23755293E+01
 -2.47510585E+01  0.00000000E+00  1.23755293E+01  1.23755293E+01 -2.47510585E+01
  0.00000000E+00  1.23755293E+01  1.23755293E+01 -2.47510585E+01  0.00000000E+00
  1.23755293E+01  1.23755293E+01 -2.47510585E+01  0.00000000E+00  1.23755293E+01
  1.23755293E+01 -2.47510585E+01  0.00000000E+00  1.23755293E+01  1.23755293E+01
 -2.47510585E+01  0.00000000E+00  1.23755293E+01  1.23755293E+01 -2.47510585E+01
  0.00000000E+00  1.23755293E+01  1.23755293E+01 -2.47510585E+01  0.00000000E+00
  1.23755293E+01  1.23755293E+01 -2.47510585E+01  0.00000000E+00  1.23755293E+01
  1.23755293E+01 -2.47510585E+01  0.00000000E+00  1.23755293E+01  1.23755293E+01
 -2.47510585E+01  0.00000000E+00  1.23755293E+01  1.23755293E+01 -2.47510585E+01
  0.00000000E+00  1.23755293E+01  1.23755293E+01 -2.47510585E+01  0.00000000E+00
  1.23755293E+01  1.23755293E+01 -2.47510585E+01  0.00000000E+00  1.23755293E+01
  1.23755293E+01 -2.47510585E+01  0.00000000E+00  1.23755293E+01  1.23755293E+01
 -2.47510585E+01  0.00000000E+00  1.23755293E+01  1.23755293E+01 -2.47510585E+01
  0.00000000E+00  1.23755293E+01  1.23755293E+01 -2.47510585E+01  0.00000000E+00
  1.23755293E+01  1.23755293E+01 -2.47510585E+01  0.00000000E+00  1.23755293E+01
  1.23755293E+01 -2.47510585E+01  0.00000000E+00  1.23755293E+01  1.23755293E+01
 -2.47510585E+01  0.00000000E+00  1.23755293E+01  1.23755293E+01 -2.47510585E+01
  0.00000000E+00  1.23755293E+01  1.23755293E+01 -2.47510585E+01  0.00000000E+00
  1.23755293E+01  1.23755293E+01 -2.47510585E+01  0.00000000E+00  1.23755293E+01
  1.23755293E+01 -2.47510585E+01  0.00000000E+00  1.23755293E+01  1.23755293E+01
 -2.47510585E+01  0.00000000E+00  1.23755293E+01  1.23755293E+01 -2.47510585E+01
  0.00000000E+00  1.23755293E+01  1.23755293E+01 -2.47510585E+01  0.00000000E+00
  1.23755293E+01  1.23755293E+01 -2.47510585E+01  0.00000000E+00  1.23755293E+01
  1.23755293E+01 -2.47510585E+01  0.00000000E+00  1.23755293E+01  1.23755293E+01
 -2.47510585E+01  0.00000000E+00  1.23755293E+01  1.23755293E+01 -2.47510585E+01
  0.00000000E+00  1.23755293E+01  1.23755293E+01 -2.47510585E+01  0.00000000E+00
  1.23755293E+01  1.23755293E+01 -2.47510585E+01  0.00000000E+00  1.23755293E+01
  1.23755293E+01 -2.47510585E+01  0.00000000E+00  1.23755293E+01  1.23755293E+01
 -2.47510585E+01  0.00000000E+00  1.23755293E+01  1.23755293E+01 -2.47510585E+01
  0.00000000E+00  1.23755293E+01  1.23755293E+01 -2.47510585E+01  0.00000000E+00
  1.23755293E+01  1.23755293E+01 -2.47510585E+01  0.00000000E+00  1.23755293E+01
  1.23755293E+01 -2.47510585E+01  0.00000000E+00  1.23755293E+01  1.23755293E+01
 -2.47510585E+01  0.00000000E+00  1.23755293E+01  1.23755293E+01 -2.47510585E+01
  0.00000000E+00  1.23755293E+01  1.23755293E+01 -2.47510585E+01  0.00000000E+00
  1.23755293E+01  1.23755293E+01 -2.47510585E+01  0.00000000E+00  1.23755293E+01
  1.23755293E+01 -2.47510585E+01  0.00000000E+00  1.23755293E+01  1.23755293E+01
 -2.47510585E+01  0.00000000E+00  1.23755293E+01  1.23755293E+01 -2.47510585E+01
  0.00000000E+00  1.23755293E+01  1.23755293E+01 -2.47510585E+01  0.00000000E+00
  1.23755293E+01  1.23755293E+01 -2.47510585E+01  0.00000000E+00  1.23755293E+01
  1.23755293E+01 -2.47510585E+01  0.00000000E+00  1.23755293E+01  1.23755293E+01
 -2.47510585E+01  0.00000000E+00  1.23755293E+01  1.23755293E+01 -2.47510585E+01
  0.00000000E+00  1.23755293E+01  1.23755293E+01 -2.47510585E+01  0.00000000E+00
  1.23755293E+01  1.23755293E+01 -2.47510585E+01  0.00000000E+00  1.23755293E+01
  1.23755293E+01 -2.47510585E+01  0.00000000E+00  1.23755293E+01  1.23755293E+01
 -2.47510585E+01  0.00000000E+00  1.23755293E+01  1.23755293E+01 -2.47510585E+01
  0.00000000E+00  1.23755293E+01  1.23755293E+01 -2.47510585E+01  0.00000000E+00
  1.23755293E+01  1.23755293E+01 -2.47510585E+01  0.00000000E+00  1.23755293E+01
  1.23755293E+01 -2.47510585E+01  0.00000000E+00  1.23755293E+01  1.23755293E+01
 -2.47510585E+01  0.00000000E+00  1.23755293E+01  1.23755293E+01 -2.47510585E+01
  0.00000000E+00  1.23755293E+01  1.23755293E+01 -2.47510585E+01  0.00000000E+00
  1.23755293E+01  1.23755293E+01 -2.47510585E+01  0.00000000E+00  1.23755293E+01
  1.23755293E+01 -2.47510585E+01  0.00000000E+00  1.23755293E+01  1.23755293E+01
 -2.47510585E+01  0.00000000E+00  1.23755293E+01  1.23755293E+01 -2.47510585E+01
  0.00000000E+00  1.23755293E+01  1.23755293E+01 -2.47510585E+01  0.00000000E+00
  1.23755293E+01  1.23755293E+01 -2.47510585E+01  0.00000000E+00  1.23755293E+01
  1.23755293E+01 -2.47510585E+01  0.00000000E+00  1.23755293E+01  1.23755293E+01
 -2.47510585E+01  0.00000000E+00  1.23755293E+01  1.23755293E+01 -2.47510585E+01
  0.00000000E+00  1.23755293E+01  1.23755293E+01 -2.47510585E+01  0.00000000E+00
  1.23755293E+01  1.23755293E+01 -2.47510585E+01  0.00000000E+00  1.23755293E+01
  1.23755293E+01 -2.47510585E+01  0.00000000E+00  1.23755293E+01  1.23755293E+01
 -2.47510585E+01  0.00000000E+00  1.23755293E+01  1.23755293E+01 -2.47510585E+01
  0.00000000E+00  1.23755293E+01  1.23755293E+01 -2.47510585E+01  0.00000000E+00
  1.23755293E+01  1.23755293E+01 -2.47510585E+01  0.00000000E+00  1.23755293E+01
  1.23755293E+01 -2.47510585E+01  0.00000000E+00  1.23755293E+01  1.23755293E+01
 -2.47510585E+01  0.00000000E+00  1.23755293E+01  1.23755293E+01 -2.47510585E+01
  0.00000000E+00  1.23755293E+01  1.23755293E+01 -2.47510585E+01  0.00000000E+00
  1.23755293E+01  1.23755293E+01 -2.47510585E+01  0.00000000E+00  1.23755293E+01
  1.23755293E+01 -2.47510585E+01  0.00000000E+00  1.23755293E+01  1.23755293E+01
 -2.47510585E+01  0.00000000E+00  1.23755293E+01  1.23755293E+01 -2.47510585E+01
  0.00000000E+00  1.23755293E+01  1.23755293E+01 -2.47510585E+01  0.00000000E+00
  1.23755293E+01  1.23755293E+01 -2.47510585E+01  0.00000000E+00  1.23755293E+01
  1.23755293E+01 -2.47510585E+01  0.00000000E+00  1.23755293E+01  1.23755293E+01
 -2.47510585E+01  0.00000000E+00  1.23755293E+01  1.23755293E+01 -2.47510585E+01
  0.00000000E+00  1.23755293E+01  1.23755293E+01 -2.47510585E+01  0.00000000E+00
  1.23755293E+01  1.23755293E+01 -2.47510585E+01  0.00000000E+00  1.23755293E+01
  1.23755293E+01 -2.47510585E+01  0.00000000E+00  1.23755293E+01  1.23755293E+01
 -2.47510585E+01  0.00000000E+00  1.23755293E+01  1.23755293E+01 -2.47510585E+01
  0.00000000E+00  1.23755293E+01  1.23755293E+01 -2.47510585E+01  0.00000000E+00
  1.23755293E+01  1.23755293E+01 -2.47510585E+01  0.00000000E+00  1.23755293E+01
  1.23755293E+01 -2.47510585E+01  0.00000000E+00  1.23755293E+01  1.23755293E+01
 -2.47510585E+01  0.00000000E+00  1.23755293E+01  1.23755293E+01 -2.47510585E+01
  0.00000000E+00  1.23755293E+01  1.23755293E+01 -2.47510585E+01  0.00000000E+00
  1.23755293E+01  1.23755293E+01 -2.47510585E+01  0.00000000E+00  1.23755293E+01
  1.23755293E+01 -2.47510585E+01  0.00000000E+00  1.23755293E+01  1.23755293E+01
 -2.47510585E+01  0.00000000E+00  1.23755293E+01  1.23755293E+01 -2.47510585E+01
  0.00000000E+00  1.23755293E+01  1.23755293E+01 -2.47510585E+01  0.00000000E+00
  1.23755293E+01  1.23755293E+01 -2.47510585E+01  0.00000000E+00  1.23755293E+01
  1.23755293E+01 -2.47510585E+01  0.00000000E+00  1.23755293E+01  1.23755293E+01
 -2.47510585E+01  0.00000000E+00  1.23755293E+01  1.23755293E+01 -2.47510585E+01
  0.00000000E+00  1.23755293E+01  1.23755293E+01 -2.47510585E+01  0.00000000E+00
  1.23755293E+01  1.23755293E+01 -2.47510585E+01  0.00000000E+00  1.23755293E+01
  1.23755293E+01 -2.47510585E+01  0.00000000E+00  1.23755293E+01  1.23755293E+01
 -2.47510585E+01  0.00000000E+00  1.23755293E+01  1.23755293E+01 -2.47510585E+01
  0.00000000E+00  1.23755293E+01  1.23755293E+01 -2.47510585E+01  0.00000000E+00
  1.23755293E+01  1.23755293E+01 -2.47510585E+01  0.00000000E+00  1.23755293E+01
  1.23755293E+01 -2.47510585E+01  0.00000000E+00  1.23755293E+01  1.23755293E+01
 -2.47510585E+01  0.00000000E+00  1.23755293E+01  1.23755293E+01 -2.47510585E+01
  0.00000000E+00  1.23755293E+01  1.23755293E+01 -2.47510585E+01  0.00000000E+00
  1.23755293E+01  1.23755293E+01 -2.47510585E+01  0.00000000E+00  1.23755293E+01
  1.23755293E+01 -2.47510585E+01  0.00000000E+00  1.23755293E+01  1.23755293E+01
 -2.47510585E+01  0.00000000E+00  1.23755293E+01  1.23755293E+01 -2.47510585E+01
  0.00000000E+00  1.23755293E+01  1.23755293E+01 -2.47510585E+01  0.00000000E+00
  1.23755293E+01  1.23755293E+01 -2.47510585E+01  0.00000000E+00  1.23755293E+01
  1.23755293E+01 -2.47510585E+01  0.00000000E+00  1.23755293E+01  1.23755293E+01
 -2.47510585E+01  0.00000000E+00  1.23755293E+01  1.23755293E+01 -2.47510585E+01
  0.00000000E+00  1.23755293E+01  1.23755293E+01 -2.47510585E+01  0.00000000E+00
  1.23755293E+01  1.23755293E+01 -2.47510585E+01  0.00000000E+00  1.23755293E+01
  1.23755293E+01 -2.47510585E+01  0.00000000E+00  1.23755293E+01  1.23755293E+01
 -2.47510585E+01  0.00000000E+00  1.23755293E+01  1.23755293E+01 -2.47510585E+01
  0.00000000E+00  1.23755293E+01  1.23755293E+01 -2.47510585E+01  0.00000000E+00
  1.23755293E+01  1.23755293E+01 -2.47510585E+01  0.00000000E+00  1.23755293E+01
  1.23755293E+01 -2.47510585E+01  0.00000000E+00  1.23755293E+01  1.23755293E+01
 -2.47510585E+01  0.00000000E+00  1.23755293E+01  1.23755293E+01 -2.47510585E+01
  0.00000000E+00  1.23755293E+01  1.23755293E+01 -2.47510585E+01  0.00000000E+00
  1.23755293E+01  1.23755293E+01 -2.47510585E+01  0.00000000E+00  1.23755293E+01
  1.23755293E+01 -2.47510585E+01  0.00000000E+00  1.23755293E+01  1.23755293E+01
 -2.47510585E+01  0.00000000E+00  1.23755293E+01  1.23755293E+01 -2.47510585E+01
  0.00000000E+00  1.23755293E+01  1.23755293E+01 -2.47510585E+01  0.00000000E+00
  1.23755293E+01  1.23755293E+01 -2.47510585E+01  0.00000000E+00  1.23755293E+01
  1.23755293E+01 -2.47510585E+01  0.00000000E+00  1.23755293E+01  1.23755293E+01
 -2.47510585E+01  0.00000000E+00  1.23755293E+01  1.23755293E+01 -2.47510585E+01
  0.00000000E+00  1.23755293E+01  1.23755293E+01 -2.47510585E+01  0.00000000E+00
  1.23755293E+01  1.23755293E+01 -2.47510585E+01  0.00000000E+00  1.23755293E+01
  1.23755293E+01 -2.47510585E+01  0.00000000E+00  1.23755293E+01  1.23755293E+01
 -2.47510585E+01  0.00000000E+00  1.23755293E+01  1.23755293E+01 -2.47510585E+01
  0.00000000E+00  1.23755293E+01  1.23755293E+01 -2.47510585E+01  0.00000000E+00
  1.23755293E+01  1.23755293E+01 -2.47510585E+01  0.00000000E+00  1.23755293E+01
  1.23755293E+01 -2.47510585E+01  0.00000000E+00  1.23755293E+01  1.23755293E+01
 -2.47510585E+01  0.00000000E+00  1.23755293E+01  1.23755293E+01 -2.47510585E+01
  0.00000000E+00  1.23755293E+01  1.23755293E+01 -2.47510585E+01  0.00000000E+00
  1.23755293E+01  1.23755293E+01 -2.47510585E+01  0.00000000E+00  1.23755293E+01
  1.23755293E+01 -2.47510585E+01  0.00000000E+00  1.23755293E+01  1.23755293E+01
 -2.47510585E+01  0.00000000E+00  1.23755293E+01  1.23755293E+01 -2.47510585E+01
  0.00000000E+00  1.23755293E+01  1.23755293E+01 -2.47510585E+01  0.00000000E+00
  1.23755293E+01  1.23755293E+01 -2.47510585E+01  0.00000000E+00  1.23755293E+01
  1.23755293E+01 -2.47510585E+01  0.00000000E+00  1.23755293E+01  1.23755293E+01
 -2.47510585E+01  0.00000000E+00  1.23755293E+01  1.23755293E+01 -2.47510585E+01
  0.00000000E+00  1.23755293E+01  1.23755293E+01 -2.47510585E+01  0.00000000E+00
  1.23755293E+01  1.23755293E+01 -2.47510585E+01  0.00000000E+00  1.23755293E+01
  1.23755293E+01 -2.47510585E+01  0.00000000E+00  1.23755293E+01  1.23755293E+01
 -2.47510585E+01  0.00000000E+00  1.23755293E+01  1.23755293E+01 -2.47510585E+01
  0.00000000E+00  1.23755293E+01  1.23755293E+01 -2.47510585E+01  0.00000000E+00
  1.23755293E+01  1.23755293E+01 -2.47510585E+01  0.00000000E+00  1.23755293E+01
  1.23755293E+01 -2.47510585E+01  0.00000000E+00  1.23755293E+01  1.23755293E+01
 -2.47510585E+01  0.00000000E+00  1.23755293E+01  1.23755293E+01 -2.47510585E+01
  0.00000000E+00  1.23755293E+01  1.23755293E+01 -2.47510585E+01  0.00000000E+00
  1.23755293E+01  1.23755293E+01 -2.47510585E+01  0.00000000E+00  1.23755293E+01
  1.23755293E+01 -2.47510585E+01  0.00000000E+00  1.23755293E+01  1.23755293E+01
 -2.47510585E+01  0.00000000E+00  1.23755293E+01  1.23755293E+01 -2.47510585E+01
  0.00000000E+00  1.23755293E+01  1.23755293E+01 -2.47510585E+01  0.00000000E+00
  1.23755293E+01  1.23755293E+01 -2.47510585E+01  0.00000000E+00  1.23755293E+01
  1.23755293E+01 -2.47510585E+01  0.00000000E+00  1.23755293E+01  1.23755293E+01
 -2.47510585E+01  0.00000000E+00  1.23755293E+01  1.23755293E+01 -2.47510585E+01
  0.00000000E+00  1.23755293E+01  1.23755293E+01 -2.47510585E+01  0.00000000E+00
  1.23755293E+01  1.23755293E+01 -2.47510585E+01  0.00000000E+00  1.23755293E+01
  1.23755293E+01 -2.47510585E+01  0.00000000E+00  1.23755293E+01  1.23755293E+01
 -2.47510585E+01  0.00000000E+00  1.23755293E+01  1.23755293E+01 -2.47510585E+01
  0.00000000E+00  1.23755293E+01  1.23755293E+01 -2.47510585E+01  0.00000000E+00
  1.23755293E+01  1.23755293E+01 -2.47510585E+01  0.00000000E+00  1.23755293E+01
  1.23755293E+01 -2.47510585E+01  0.00000000E+00  1.23755293E+01  1.23755293E+01
 -2.47510585E+01  0.00000000E+00  1.23755293E+01  1.23755293E+01 -2.47510585E+01
  0.00000000E+00  1.23755293E+01  1.23755293E+01 -2.47510585E+01  0.00000000E+00
  1.23755293E+01  1.23755293E+01 -2.47510585E+01  0.00000000E+00  1.23755293E+01
  1.23755293E+01 -2.47510585E+01  0.00000000E+00  1.23755293E+01  1.23755293E+01
 -2.47510585E+01  0.00000000E+00  1.23755293E+01  1.23755293E+01 -2.47510585E+01
  0.00000000E+00  1.23755293E+01  1.23755293E+01 -2.47510585E+01  0.00000000E+00
  1.23755293E+01  1.23755293E+01 -2.47510585E+01  0.00000000E+00  1.23755293E+01
  1.23755293E+01 -2.47510585E+01  0.00000000E+00  1.23755293E+01  1.23755293E+01
 -2.47510585E+01  0.00000000E+00  1.23755293E+01  1.23755293E+01 -2.47510585E+01
  0.00000000E+00  1.23755293E+01  1.23755293E+01 -2.47510585E+01  0.00000000E+00
  1.23755293E+01  1.23755293E+01 -2.47510585E+01  0.00000000E+00  1.23755293E+01
  1.23755293E+01 -2.47510585E+01  0.00000000E+00  1.23755293E+01  1.23755293E+01
 -2.47510585E+01  0.00000000E+00  1.23755293E+01  1.23755293E+01 -2.47510585E+01
  0.00000000E+00  1.23755293E+01  1.23755293E+01 -2.47510585E+01  0.00000000E+00
  1.23755293E+01  1.23755293E+01 -2.47510585E+01  0.00000000E+00  1.23755293E+01
  1.23755293E+01 -2.47510585E+01  0.00000000E+00  1.23755293E+01  1.23755293E+01
 -2.47510585E+01  0.00000000E+00  1.23755293E+01  1.23755293E+01 -2.47510585E+01
  0.00000000E+00  1.23755293E+01  1.23755293E+01 -2.47510585E+01  0.00000000E+00
  1.23755293E+01  1.23755293E+01 -2.47510585E+01  0.00000000E+00  1.23755293E+01
  1.23755293E+01 -2.47510585E+01  0.00000000E+00  1.23755293E+01  1.23755293E+01
 -2.47510585E+01  0.00000000E+00  1.23755293E+01  1.23755293E+01 -2.47510585E+01
  0.00000000E+00  1.23755293E+01  1.23755293E+01 -2.47510585E+01  0.00000000E+00
  1.23755293E+01  1.23755293E+01 -2.47510585E+01  0.00000000E+00  1.23755293E+01
  1.23755293E+01 -2.47510585E+01  0.00000000E+00  1.23755293E+01  1.23755293E+01
 -2.47510585E+01  0.00000000E+00  1.23755293E+01  1.23755293E+01 -2.47510585E+01
  0.00000000E+00  1.23755293E+01  1.23755293E+01 -2.47510585E+01  0.00000000E+00
  1.23755293E+01  1.23755293E+01 -2.47510585E+01  0.00000000E+00  1.23755293E+01
  1.23755293E+01 -2.47510585E+01  0.00000000E+00  1.23755293E+01  1.23755293E+01
 -2.47510585E+01  0.00000000E+00  1.23755293E+01  1.23755293E+01 -2.47510585E+01
  0.00000000E+00  1.23755293E+01  1.23755293E+01 -2.47510585E+01  0.00000000E+00
  1.23755293E+01  1.23755293E+01 -2.47510585E+01  0.00000000E+00  1.23755293E+01
  1.23755293E+01 -2.47510585E+01  0.00000000E+00  1.23755293E+01  1.23755293E+01
 -2.47510585E+01  0.00000000E+00  1.23755293E+01  1.23755293E+01 -2.47510585E+01
  0.00000000E+00  1.23755293E+01  1.23755293E+01 -2.47510585E+01  0.00000000E+00
  1.23755293E+01  1.23755293E+01 -2.47510585E+01  0.00000000E+00  1.23755293E+01
  1.23755293E+01 -2.47510585E+01  0.00000000E+00  1.23755293E+01  1.23755293E+01
 -2.47510585E+01  0.00000000E+00  1.23755293E+01  1.23755293E+01 -2.47510585E+01
  0.00000000E+00  1.23755293E+01  1.23755293E+01 -2.47510585E+01  0.00000000E+00
  1.23755293E+01  1.23755293E+01 -2.47510585E+01  0.00000000E+00  1.23755293E+01
  1.23755293E+01 -2.47510585E+01  0.00000000E+00  1.23755293E+01  1.23755293E+01
 -2.47510585E+01  0.00000000E+00  1.23755293E+01  1.23755293E+01 -2.47510585E+01
  0.00000000E+00  1.23755293E+01  1.23755293E+01 -2.47510585E+01  0.00000000E+00
  1.23755293E+01  1.23755293E+01 -2.47510585E+01  0.00000000E+00  1.23755293E+01
  1.23755293E+01 -2.47510585E+01  0.00000000E+00  1.23755293E+01  1.23755293E+01
 -2.47510585E+01  0.00000000E+00  1.23755293E+01  1.23755293E+01 -2.47510585E+01
  0.00000000E+00  1.23755293E+01  1.23755293E+01 -2.47510585E+01  0.00000000E+00
  1.23755293E+01  1.23755293E+01 -2.47510585E+01  0.00000000E+00  1.23755293E+01
  1.23755293E+01 -2.47510585E+01  0.00000000E+00  1.23755293E+01  1.23755293E+01
 -2.47510585E+01  0.00000000E+00  1.23755293E+01  1.23755293E+01 -2.47510585E+01
  0.00000000E+00  1.23755293E+01  1.23755293E+01 -2.47510585E+01  0.00000000E+00
  1.23755293E+01  1.23755293E+01 -2.47510585E+01  0.00000000E+00  1.23755293E+01
  1.23755293E+01 -2.47510585E+01  0.00000000E+00  1.23755293E+01  1.23755293E+01
 -2.47510585E+01  0.00000000E+00  1.23755293E+01  1.23755293E+01 -2.47510585E+01
  0.00000000E+00  1.23755293E+01  1.23755293E+01 -2.47510585E+01  0.00000000E+00
  1.23755293E+01  1.23755293E+01 -2.47510585E+01  0.00000000E+00  1.23755293E+01
  1.23755293E+01 -2.47510585E+01  0.00000000E+00  1.23755293E+01  1.23755293E+01
 -2.47510585E+01  0.00000000E+00  1.23755293E+01  1.23755293E+01 -2.47510585E+01
  0.00000000E+00  1.23755293E+01  1.23755293E+01 -2.47510585E+01  0.00000000E+00
  1.23755293E+01  1.23755293E+01 -2.47510585E+01  0.00000000E+00  1.23755293E+01
  1.23755293E+01 -2.47510585E+01  0.00000000E+00  1.23755293E+01  1.23755293E+01
 -2.47510585E+01  0.00000000E+00  1.23755293E+01  1.23755293E+01 -2.47510585E+01
  0.00000000E+00  1.23755293E+01  1.23755293E+01 -2.47510585E+01  0.00000000E+00
  1.23755293E+01  1.23755293E+01 -2.47510585E+01  0.00000000E+00  1.23755293E+01
  1.23755293E+01 -2.47510585E+01  0.00000000E+00  1.23755293E+01  1.23755293E+01
 -2.47510585E+01  0.00000000E+00  1.23755293E+01  1.23755293E+01 -2.47510585E+01
  0.00000000E+00  1.23755293E+01  1.23755293E+01 -2.47510585E+01  0.00000000E+00
  1.23755293E+01  1.23755293E+01 -2.47510585E+01  0.00000000E+00  1.23755293E+01
  1.23755293E+01 -2.47510585E+01  0.00000000E+00  1.23755293E+01  1.23755293E+01
 -2.47510585E+01  0.00000000E+00  1.23755293E+01  1.23755293E+01 -2.47510585E+01
  0.00000000E+00  1.23755293E+01  1.23755293E+01 -2.47510585E+01  0.00000000E+00
  1.23755293E+01  1.23755293E+01 -2.47510585E+01  0.00000000E+00  1.23755293E+01
  1.23755293E+01 -2.47510585E+01  0.00000000E+00  1.23755293E+01  1.23755293E+01
 -2.47510585E+01  0.00000000E+00  1.23755293E+01  1.23755293E+01 -2.47510585E+01
  0.00000000E+00  1.23755293E+01  1.23755293E+01 -2.47510585E+01  0.00000000E+00
  1.23755293E+01  1.23755293E+01 -2.47510585E+01  0.00000000E+00  1.23755293E+01
  1.23755293E+01 -2.47510585E+01  0.00000000E+00  1.23755293E+01  1.23755293E+01
 -2.47510585E+01  0.00000000E+00  1.23755293E+01  1.23755293E+01 -2.47510585E+01
  0.00000000E+00  1.23755293E+01  1.23755293E+01 -2.47510585E+01  0.00000000E+00
  1.23755293E+01  1.23755293E+01 -2.47510585E+01  0.00000000E+00  1.23755293E+01
  1.23755293E+01 -2.47510585E+01  0.00000000E+00  1.23755293E+01  1.23755293E+01
 -2.47510585E+01  0.00000000E+00  1.23755293E+01  1.23755293E+01 -2.47510585E+01
  0.00000000E+00  1.23755293E+01  1.23755293E+01 -2.47510585E+01  0.00000000E+00
  1.23755293E+01  1.23755293E+01 -2.47510585E+01  0.00000000E+00  1.23755293E+01
  1.23755293E+01 -2.47510585E+01  0.00000000E+00  1.23755293E+01  1.23755293E+01
 -2.47510585E+01  0.00000000E+00  1.23755293E+01  1.23755293E+01 -2.47510585E+01
  0.00000000E+00  1.23755293E+01  1.23755293E+01 -2.47510585E+01  0.00000000E+00
  1.23755293E+01  1.23755293E+01 -2.47510585E+01  0.00000000E+00  1.23755293E+01
  1.23755293E+01 -2.47510585E+01  0.00000000E+00  1.23755293E+01  1.23755293E+01
 -2.47510585E+01  0.00000000E+00  1.23755293E+01  1.23755293E+01 -2.47510585E+01
  0.00000000E+00  1.23755293E+01  1.23755293E+01 -2.47510585E+01  0.00000000E+00
  1.23755293E+01  1.23755293E+01 -2.47510585E+01  0.00000000E+00  1.23755293E+01
  1.23755293E+01 -2.47510585E+01  0.00000000E+00  1.23755293E+01  1.23755293E+01
 -2.47510585E+01  0.00000000E+00  1.23755293E+01  1.23755293E+01 -2.47510585E+01
  0.00000000E+00  1.23755293E+01  1.23755293E+01 -2.47510585E+01  0.00000000E+00
  1.23755293E+01  1.23755293E+01 -2.47510585E+01  0.00000000E+00  1.23755293E+01
  1.23755293E+01 -2.47510585E+01  0.00000000E+00  1.23755293E+01  1.23755293E+01
 -2.47510585E+01  0.00000000E+00  1.23755293E+01  1.23755293E+01 -2.47510585E+01
  0.00000000E+00  1.23755293E+01  1.23755293E+01 -2.47510585E+01  0.00000000E+00
  1.23755293E+01  1.23755293E+01 -2.47510585E+01  0.00000000E+00  1.23755293E+01
  1.23755293E+01 -2.47510585E+01  0.00000000E+00  1.23755293E+01  1.23755293E+01
 -2.47510585E+01  0.00000000E+00  1.23755293E+01  1.23755293E+01 -2.47510585E+01
  0.00000000E+00  1.23755293E+01  1.23755293E+01 -2.47510585E+01  0.00000000E+00
  1.23755293E+01  1.23755293E+01 -2.47510585E+01  0.00000000E+00  1.23755293E+01
  1.23755293E+01 -2.47510585E+01  0.00000000E+00  1.23755293E+01  1.23755293E+01
 -2.47510585E+01  0.00000000E+00  1.23755293E+01  1.23755293E+01 -2.47510585E+01
  0.00000000E+00  1.23755293E+01  1.23755293E+01 -2.47510585E+01  0.00000000E+00
  1.23755293E+01  1.23755293E+01 -2.47510585E+01  0.00000000E+00  1.23755293E+01
  1.23755293E+01 -2.47510585E+01  0.00000000E+00  1.23755293E+01  1.23755293E+01
 -2.47510585E+01  0.00000000E+00  1.23755293E+01  1.23755293E+01 -2.47510585E+01
  0.00000000E+00  1.23755293E+01  1.23755293E+01 -2.47510585E+01  0.00000000E+00
  1.23755293E+01  1.23755293E+01 -2.47510585E+01  0.00000000E+00  1.23755293E+01
  1.23755293E+01 -2.47510585E+01  0.00000000E+00  1.23755293E+01  1.23755293E+01
 -2.47510585E+01  0.00000000E+00  1.23755293E+01  1.23755293E+01 -2.47510585E+01
  0.00000000E+00  1.23755293E+01  1.23755293E+01 -2.47510585E+01  0.00000000E+00
  1.23755293E+01  1.23755293E+01 -2.47510585E+01  0.00000000E+00  1.23755293E+01
  1.23755293E+01 -2.47510585E+01  0.00000000E+00  1.23755293E+01  1.23755293E+01
 -2.47510585E+01  0.00000000E+00  1.23755293E+01  1.23755293E+01 -2.47510585E+01
  0.00000000E+00  1.23755293E+01  1.23755293E+01 -2.47510585E+01  0.00000000E+00
  1.23755293E+01  1.23755293E+01 -2.47510585E+01  0.00000000E+00  1.23755293E+01
  1.23755293E+01 -2.47510585E+01  0.00000000E+00  1.23755293E+01  1.23755293E+01
 -2.47510585E+01  0.00000000E+00  1.23755293E+01  1.23755293E+01 -2.47510585E+01
  0.00000000E+00  1.23755293E+01  1.23755293E+01 -2.47510585E+01  0.00000000E+00
  1.23755293E+01  1.23755293E+01 -2.47510585E+01  0.00000000E+00  1.23755293E+01
  1.23755293E+01 -2.47510585E+01  0.00000000E+00  1.23755293E+01  1.23755293E+01
 -2.47510585E+01  0.00000000E+00  1.23755293E+01  1.23755293E+01 -2.47510585E+01
  0.00000000E+00  1.23755293E+01  1.23755293E+01 -2.47510585E+01  0.00000000E+00
  1.23755293E+01  1.23755293E+01 -2.47510585E+01  0.00000000E+00  1.23755293E+01
  1.23755293E+01 -2.47510585E+01  0.00000000E+00  1.23755293E+01  1.23755293E+01
 -2.47510585E+01  0.00000000E+00  1.23755293E+01  1.23755293E+01 -2.47510585E+01
  0.00000000E+00  1.23755293E+01  1.23755293E+01 -2.47510585E+01  0.00000000E+00
  1.23755293E+01  1.23755293E+01 -2.47510585E+01  0.00000000E+00  1.23755293E+01
  1.23755293E+01 -2.47510585E+01  0.00000000E+00  1.23755293E+01  1.23755293E+01
 -2.47510585E+01  0.00000000E+00  1.23755293E+01  1.23755293E+01 -2.47510585E+01
  0.00000000E+00  1.23755293E+01  1.23755293E+01 -2.47510585E+01  0.00000000E+00
  1.23755293E+01  1.23755293E+01 -2.47510585E+01  0.00000000E+00  1.23755293E+01
  1.23755293E+01 -2.47510585E+01  0.00000000E+00  1.23755293E+01  1.23755293E+01
 -2.47510585E+01  0.00000000E+00  1.23755293E+01  1.23755293E+01 -2.47510585E+01
  0.00000000E+00  1.23755293E+01  1.23755293E+01 -2.47510585E+01  0.00000000E+00
  1.23755293E+01  1.23755293E+01 -2.47510585E+01  0.00000000E+00  1.23755293E+01
  1.23755293E+01 -2.47510585E+01  0.00000000E+00  1.23755293E+01  1.23755293E+01
 -2.47510585E+01  0.00000000E+00  1.23755293E+01  1.23755293E+01 -2.47510585E+01
  0.00000000E+00  1.23755293E+01  1.23755293E+01 -2.47510585E+01  0.00000000E+00
  1.23755293E+01  1.23755293E+01 -2.47510585E+01  0.00000000E+00  1.23755293E+01
  1.23755293E+01 -2.47510585E+01  0.00000000E+00  1.23755293E+01  1.23755293E+01
 -2.47510585E+01  0.00000000E+00  1.23755293E+01  1.23755293E+01 -2.47510585E+01
  0.00000000E+00  1.23755293E+01  1.23755293E+01 -2.47510585E+01  0.00000000E+00
  1.23755293E+01  1.23755293E+01 -2.47510585E+01  0.00000000E+00  1.23755293E+01
  1.23755293E+01 -2.47510585E+01  0.00000000E+00  1.23755293E+01  1.23755293E+01
 -2.47510585E+01  0.00000000E+00  1.23755293E+01  1.23755293E+01 -2.47510585E+01
  0.00000000E+00  1.23755293E+01  1.23755293E+01 -2.47510585E+01  0.00000000E+00
  1.23755293E+01  1.23755293E+01 -2.47510585E+01  0.00000000E+00  1.23755293E+01
  1.23755293E+01 -2.47510585E+01  0.00000000E+00  1.23755293E+01  1.23755293E+01
 -2.47510585E+01  0.00000000E+00  1.23755293E+01  1.23755293E+01 -2.47510585E+01
  0.00000000E+00  1.23755293E+01  1.23755293E+01 -2.47510585E+01  0.00000000E+00
  1.23755293E+01  1.23755293E+01 -2.47510585E+01  0.00000000E+00  1.23755293E+01
  1.23755293E+01 -2.47510585E+01  0.00000000E+00  1.23755293E+01  1.23755293E+01
 -2.47510585E+01  0.00000000E+00  1.23755293E+01  1.23755293E+01 -2.47510585E+01
  0.00000000E+00  1.23755293E+01  1.23755293E+01 -2.47510585E+01  0.00000000E+00
  1.23755293E+01  1.23755293E+01 -2.47510585E+01  0.00000000E+00  1.23755293E+01
  1.23755293E+01 -2.47510585E+01  0.00000000E+00  1.23755293E+01  1.23755293E+01
 -2.47510585E+01  0.00000000E+00  1.23755293E+01  1.23755293E+01 -2.47510585E+01
  0.00000000E+00  1.23755293E+01  1.23755293E+01 -2.47510585E+01  0.00000000E+00
  1.23755293E+01  1.23755293E+01 -2.47510585E+01  0.00000000E+00  1.23755293E+01
  1.23755293E+01 -2.47510585E+01  0.00000000E+00  1.23755293E+01  1.23755293E+01
 -2.47510585E+01  0.00000000E+00  1.23755293E+01  1.23755293E+01 -2.47510585E+01
  0.00000000E+00  1.23755293E+01  1.23755293E+01 -2.47510585E+01  0.00000000E+00
  1.23755293E+01  1.23755293E+01 -2.47510585E+01  0.00000000E+00  1.23755293E+01
  1.23755293E+01 -2.47510585E+01  0.00000000E+00  1.23755293E+01  1.23755293E+01
 -2.47510585E+01  0.00000000E+00  1.23755293E+01  1.23755293E+01 -2.47510585E+01
  0.00000000E+00  1.23755293E+01  1.23755293E+01 -2.47510585E+01  0.00000000E+00
  1.23755293E+01  1.23755293E+01 -2.47510585E+01  0.00000000E+00  1.23755293E+01
  1.23755293E+01 -2.47510585E+01  0.00000000E+00  1.23755293E+01  1.23755293E+01
 -2.47510585E+01  0.00000000E+00  1.23755293E+01  1.23755293E+01 -2.47510585E+01
  0.00000000E+00  1.23755293E+01  1.23755293E+01 -2.47510585E+01  0.00000000E+00
  1.23755293E+01  1.23755293E+01 -2.47510585E+01  0.00000000E+00  1.23755293E+01
  1.23755293E+01 -2.47510585E+01  0.00000000E+00  1.23755293E+01  1.23755293E+01
 -2.47510585E+01  0.00000000E+00  1.23755293E+01  1.23755293E+01 -2.47510585E+01
  0.00000000E+00  1.23755293E+01  1.23755293E+01 -2.47510585E+01  0.00000000E+00
  1.23755293E+01  1.23755293E+01 -2.47510585E+01  0.00000000E+00  1.23755293E+01
  1.23755293E+01 -2.47510585E+01  0.00000000E+00  1.23755293E+01  1.23755293E+01
 -2.47510585E+01  0.00000000E+00  1.23755293E+01  1.23755293E+01 -2.47510585E+01
  0.00000000E+00  1.23755293E+01  1.23755293E+01 -2.47510585E+01  0.00000000E+00
  1.23755293E+01  1.23755293E+01 -2.47510585E+01  0.00000000E+00  1.23755293E+01
  1.23755293E+01 -2.47510585E+01  0.00000000E+00  1.23755293E+01  1.23755293E+01
 -2.47510585E+01  0.00000000E+00  1.23755293E+01  1.23755293E+01 -2.47510585E+01
  0.00000000E+00  1.23755293E+01  1.23755293E+01 -2.47510585E+01  0.00000000E+00
  1.23755293E+01  1.23755293E+01 -2.47510585E+01  0.00000000E+00  1.23755293E+01
  1.23755293E+01 -2.47510585E+01  0.00000000E+00  1.23755293E+01  1.23755293E+01
 -2.47510585E+01  0.00000000E+00  1.23755293E+01  1.23755293E+01 -2.47510585E+01
  0.00000000E+00  1.23755293E+01  1.23755293E+01 -2.47510585E+01  0.00000000E+00
  1.23755293E+01  1.23755293E+01 -2.47510585E+01  0.00000000E+00  1.23755293E+01
  1.23755293E+01 -2.47510585E+01  0.00000000E+00  1.23755293E+01  1.23755293E+01
 -2.47510585E+01  0.00000000E+00  1.23755293E+01  1.23755293E+01 -2.47510585E+01
  0.00000000E+00  1.23755293E+01  1.23755293E+01 -2.47510585E+01  0.00000000E+00
  1.23755293E+01  1.23755293E+01 -2.47510585E+01  0.00000000E+00  1.23755293E+01
  1.23755293E+01 -2.47510585E+01  0.00000000E+00  1.23755293E+01  1.23755293E+01
 -2.47510585E+01  0.00000000E+00  1.23755293E+01  1.23755293E+01 -2.47510585E+01
  0.00000000E+00  1.23755293E+01  1.23755293E+01 -2.47510585E+01  0.00000000E+00
  1.23755293E+01  1.23755293E+01 -2.47510585E+01  0.00000000E+00  1.23755293E+01
  1.23755293E+01 -2.47510585E+01  0.00000000E+00  1.23755293E+01  1.23755293E+01
 -2.47510585E+01  0.00000000E+00  1.23755293E+01  1.23755293E+01 -2.47510585E+01
  0.00000000E+00  1.23755293E+01  1.23755293E+01 -2.47510585E+01  0.00000000E+00
  1.23755293E+01  1.23755293E+01 -2.47510585E+01  0.00000000E+00  1.23755293E+01
  1.23755293E+01 -2.47510585E+01  0.00000000E+00  1.23755293E+01  1.23755293E+01
 -2.47510585E+01  0.00000000E+00  1.23755293E+01  1.23755293E+01 -2.47510585E+01
  0.00000000E+00  1.23755293E+01  1.23755293E+01 -2.47510585E+01  0.00000000E+00
  1.23755293E+01  1.23755293E+01 -2.47510585E+01  0.00000000E+00  1.23755293E+01
  1.23755293E+01 -2.47510585E+01  0.00000000E+00  1.23755293E+01  1.23755293E+01
 -2.47510585E+01  0.00000000E+00  1.23755293E+01  1.23755293E+01 -2.47510585E+01
  0.00000000E+00  1.23755293E+01  1.23755293E+01 -2.47510585E+01  0.00000000E+00
  1.23755293E+01  1.23755293E+01 -2.47510585E+01  0.00000000E+00  1.23755293E+01
  1.23755293E+01 -2.47510585E+01  0.00000000E+00  1.23755293E+01  1.23755293E+01
 -2.47510585E+01  0.00000000E+00  1.23755293E+01  1.23755293E+01 -2.47510585E+01
  0.00000000E+00  1.23755293E+01  1.23755293E+01 -2.47510585E+01  0.00000000E+00
  1.23755293E+01  1.23755293E+01 -2.47510585E+01  0.00000000E+00  1.23755293E+01
  1.23755293E+01 -2.47510585E+01  0.00000000E+00  1.23755293E+01  1.23755293E+01
 -2.47510585E+01  0.00000000E+00  1.23755293E+01  1.23755293E+01 -2.47510585E+01
  0.00000000E+00  1.23755293E+01  1.23755293E+01 -2.47510585E+01  0.00000000E+00
  1.23755293E+01  1.23755293E+01 -2.47510585E+01  0.00000000E+00  1.23755293E+01
  1.23755293E+01 -2.47510585E+01  0.00000000E+00  1.23755293E+01  1.23755293E+01
 -2.47510585E+01  0.00000000E+00  1.23755293E+01  1.23755293E+01 -2.47510585E+01
  0.00000000E+00  1.23755293E+01  1.23755293E+01 -2.47510585E+01  0.00000000E+00
  1.23755293E+01  1.23755293E+01 -2.47510585E+01  0.00000000E+00  1.23755293E+01
  1.23755293E+01 -2.47510585E+01  0.00000000E+00  1.23755293E+01  1.23755293E+01
 -2.47510585E+01  0.00000000E+00  1.23755293E+01  1.23755293E+01 -2.47510585E+01
  0.00000000E+00  1.23755293E+01  1.23755293E+01 -2.47510585E+01  0.00000000E+00
  1.23755293E+01  1.23755293E+01 -2.47510585E+01  0.00000000E+00  1.23755293E+01
  1.23755293E+01 -2.47510585E+01  0.00000000E+00  1.23755293E+01  1.23755293E+01
 -2.47510585E+01  0.00000000E+00  1.23755293E+01  1.23755293E+01 -2.47510585E+01
  0.00000000E+00  1.23755293E+01  1.23755293E+01 -2.47510585E+01  0.00000000E+00
  1.23755293E+01  1.23755293E+01 -2.47510585E+01  0.00000000E+00  1.23755293E+01
  1.23755293E+01 -2.47510585E+01  0.00000000E+00  1.23755293E+01  1.23755293E+01
 -2.47510585E+01  0.00000000E+00  1.23755293E+01  1.23755293E+01 -2.47510585E+01
  0.00000000E+00  1.23755293E+01  1.23755293E+01 -2.47510585E+01  0.00000000E+00
  1.23755293E+01  1.23755293E+01 -2.47510585E+01  0.00000000E+00  1.23755293E+01
  1.23755293E+01 -2.47510585E+01  0.00000000E+00  1.23755293E+01  1.23755293E+01
 -2.47510585E+01  0.00000000E+00  1.23755293E+01  1.23755293E+01 -2.47510585E+01
  0.00000000E+00  1.23755293E+01  1.23755293E+01 -2.47510585E+01  0.00000000E+00
  1.23755293E+01  1.23755293E+01 -2.47510585E+01  0.00000000E+00  1.23755293E+01
  1.23755293E+01 -2.47510585E+01  0.00000000E+00  1.23755293E+01  1.23755293E+01
 -2.47510585E+01  0.00000000E+00  1.23755293E+01  1.23755293E+01 -2.47510585E+01
  0.00000000E+00  1.23755293E+01  1.23755293E+01 -2.47510585E+01  0.00000000E+00
  1.23755293E+01  1.23755293E+01 -2.47510585E+01  0.00000000E+00  1.23755293E+01
  1.23755293E+01 -2.47510585E+01  0.00000000E+00  1.23755293E+01  1.23755293E+01
 -2.47510585E+01  0.00000000E+00  1.23755293E+01  1.23755293E+01 -2.47510585E+01
  0.00000000E+00  1.23755293E+01  1.23755293E+01 -2.47510585E+01  0.00000000E+00
  1.23755293E+01  1.23755293E+01 -2.47510585E+01  0.00000000E+00  1.23755293E+01
  1.23755293E+01 -2.47510585E+01  0.00000000E+00  1.23755293E+01  1.23755293E+01
 -2.47510585E+01  0.00000000E+00  1.23755293E+01  1.23755293E+01 -2.47510585E+01
  0.00000000E+00  1.23755293E+01  1.23755293E+01 -2.47510585E+01  0.00000000E+00
  1.23755293E+01  1.23755293E+01 -2.47510585E+01  0.00000000E+00  1.23755293E+01
  1.23755293E+01 -2.47510585E+01  0.00000000E+00  1.23755293E+01  1.23755293E+01
 -2.47510585E+01  0.00000000E+00  1.23755293E+01  1.23755293E+01 -2.47510585E+01
  0.00000000E+00  1.23755293E+01  1.23755293E+01 -2.47510585E+01  0.00000000E+00
  1.23755293E+01  1.23755293E+01 -2.47510585E+01  0.00000000E+00  1.23755293E+01
  1.23755293E+01 -2.47510585E+01  0.00000000E+00  1.23755293E+01  1.23755293E+01
 -2.47510585E+01  0.00000000E+00  1.23755293E+01  1.23755293E+01 -2.47510585E+01
  0.00000000E+00  1.23755293E+01  1.23755293E+01 -2.47510585E+01  0.00000000E+00
  1.23755293E+01  1.23755293E+01 -2.47510585E+01  0.00000000E+00  1.23755293E+01
  1.23755293E+01 -2.47510585E+01  0.00000000E+00  1.23755293E+01  1.23755293E+01
 -2.47510585E+01  0.00000000E+00  1.23755293E+01  1.23755293E+01 -2.47510585E+01
  0.00000000E+00  1.23755293E+01  1.23755293E+01 -2.47510585E+01  0.00000000E+00
  1.23755293E+01  1.23755293E+01 -2.47510585E+01  0.00000000E+00  1.23755293E+01
  1.23755293E+01 -2.47510585E+01  0.00000000E+00  1.23755293E+01  1.23755293E+01
 -2.47510585E+01  0.00000000E+00  1.23755293E+01  1.23755293E+01 -2.47510585E+01
  0.00000000E+00  1.23755293E+01  1.23755293E+01 -2.47510585E+01  0.00000000E+00
  1.23755293E+01  1.23755293E+01 -2.47510585E+01  0.00000000E+00  1.23755293E+01
  1.23755293E+01 -2.47510585E+01  0.00000000E+00  1.23755293E+01  1.23755293E+01
 -2.47510585E+01  0.00000000E+00  1.23755293E+01  1.23755293E+01 -2.47510585E+01
  0.00000000E+00  1.23755293E+01  1.23755293E+01 -2.47510585E+01  0.00000000E+00
  1.23755293E+01  1.23755293E+01 -2.47510585E+01  0.00000000E+00  1.23755293E+01
  1.23755293E+01 -2.47510585E+01  0.00000000E+00  1.23755293E+01  1.23755293E+01
 -2.47510585E+01  0.00000000E+00  1.23755293E+01  1.23755293E+01 -2.47510585E+01
  0.00000000E+00  1.23755293E+01  1.23755293E+01 -2.47510585E+01  0.00000000E+00
  1.23755293E+01  1.23755293E+01 -2.47510585E+01  0.00000000E+00  1.23755293E+01
  1.23755293E+01 -2.47510585E+01  0.00000000E+00  1.23755293E+01  1.23755293E+01
 -2.47510585E+01  0.00000000E+00  1.23755293E+01  1.23755293E+01 -2.47510585E+01
  0.00000000E+00  1.23755293E+01  1.23755293E+01 -2.47510585E+01  0.00000000E+00
  1.23755293E+01  1.23755293E+01 -2.47510585E+01  0.00000000E+00  1.23755293E+01
  1.23755293E+01 -2.47510585E+01  0.00000000E+00  1.23755293E+01  1.23755293E+01
 -2.47510585E+01  0.00000000E+00  1.23755293E+01  1.23755293E+01 -2.47510585E+01
  0.00000000E+00  1.23755293E+01  1.23755293E+01 -2.47510585E+01  0.00000000E+00
  1.23755293E+01  1.23755293E+01 -2.47510585E+01  0.00000000E+00  1.23755293E+01
  1.23755293E+01 -2.47510585E+01  0.00000000E+00  1.23755293E+01  1.23755293E+01
 -2.47510585E+01  0.00000000E+00  1.23755293E+01  1.23755293E+01 -2.47510585E+01
  0.00000000E+00  1.23755293E+01  1.23755293E+01 -2.47510585E+01  0.00000000E+00
  1.23755293E+01  1.23755293E+01 -2.47510585E+01  0.00000000E+00  1.23755293E+01
  1.23755293E+01 -2.47510585E+01  0.00000000E+00  1.23755293E+01  1.23755293E+01
 -2.47510585E+01  0.00000000E+00  1.23755293E+01  1.23755293E+01 -2.47510585E+01
  0.00000000E+00  1.23755293E+01  1.23755293E+01 -2.47510585E+01  0.00000000E+00
  1.23755293E+01  1.23755293E+01 -2.47510585E+01  0.00000000E+00  1.23755293E+01
  1.23755293E+01 -2.47510585E+01  0.00000000E+00  1.23755293E+01  1.23755293E+01
 -2.47510585E+01  0.00000000E+00  1.23755293E+01  1.23755293E+01 -2.47510585E+01
  0.00000000E+00  1.23755293E+01  1.23755293E+01 -2.47510585E+01  0.00000000E+00
  1.23755293E+01  1.23755293E+01 -2.47510585E+01  0.00000000E+00  1.23755293E+01
  1.23755293E+01 -2.47510585E+01  0.00000000E+00  1.23755293E+01  1.23755293E+01
 -2.47510585E+01  0.00000000E+00  1.23755293E+01  1.23755293E+01 -2.47510585E+01
  0.00000000E+00  1.23755293E+01  1.23755293E+01 -2.47510585E+01  0.00000000E+00
  1.23755293E+01  1.23755293E+01 -2.47510585E+01  0.00000000E+00  1.23755293E+01
  1.23755293E+01 -2.47510585E+01  0.00000000E+00  1.23755293E+01  1.23755293E+01
 -2.47510585E+01  0.00000000E+00  1.23755293E+01  1.23755293E+01 -2.47510585E+01
  0.00000000E+00  1.23755293E+01  1.23755293E+01 -2.47510585E+01  0.00000000E+00
  1.23755293E+01  1.23755293E+01 -2.47510585E+01  0.00000000E+00  1.23755293E+01
  1.23755293E+01 -2.47510585E+01  0.00000000E+00  1.23755293E+01  1.23755293E+01
 -2.47510585E+01  0.00000000E+00  1.23755293E+01  1.23755293E+01 -2.47510585E+01
  0.00000000E+00  1.23755293E+01  1.23755293E+01 -2.47510585E+01  0.00000000E+00
  1.23755293E+01  1.23755293E+01 -2.47510585E+01  0.00000000E+00  1.23755293E+01
  1.23755293E+01 -2.47510585E+01  0.00000000E+00  1.23755293E+01  1.23755293E+01
 -2.47510585E+01  0.00000000E+00  1.23755293E+01  1.23755293E+01 -2.47510585E+01
  0.00000000E+00  1.23755293E+01  1.23755293E+01 -2.47510585E+01  0.00000000E+00
  1.23755293E+01  1.23755293E+01 -2.47510585E+01  0.00000000E+00  1.23755293E+01
  1.23755293E+01 -2.47510585E+01  0.00000000E+00  1.23755293E+01  1.23755293E+01
 -2.47510585E+01  0.00000000E+00  1.23755293E+01  1.23755293E+01 -2.47510585E+01
  0.00000000E+00  1.23755293E+01  1.23755293E+01 -2.47510585E+01  0.00000000E+00
  1.23755293E+01  1.23755293E+01 -2.47510585E+01  0.00000000E+00  1.23755293E+01
  1.23755293E+01 -2.47510585E+01  0.00000000E+00  1.23755293E+01  1.23755293E+01
 -2.47510585E+01  0.00000000E+00  1.23755293E+01  1.23755293E+01 -2.47510585E+01
  0.00000000E+00  1.23755293E+01  1.23755293E+01 -2.47510585E+01  0.00000000E+00
  1.23755293E+01  1.23755293E+01 -2.47510585E+01  0.00000000E+00  1.23755293E+01
  1.23755293E+01 -2.47510585E+01  0.00000000E+00  1.23755293E+01  1.23755293E+01
 -2.47510585E+01  0.00000000E+00  1.23755293E+01  1.23755293E+01 -2.47510585E+01
  0.00000000E+00  1.23755293E+01  1.23755293E+01 -2.47510585E+01  0.00000000E+00
  1.23755293E+01  1.23755293E+01 -2.47510585E+01  0.00000000E+00  1.23755293E+01
  1.23755293E+01 -2.47510585E+01  0.00000000E+00  1.23755293E+01  1.23755293E+01
 -2.47510585E+01  0.00000000E+00  1.23755293E+01  1.23755293E+01 -2.47510585E+01
  0.00000000E+00  1.23755293E+01  1.23755293E+01 -2.47510585E+01  0.00000000E+00
  1.23755293E+01  1.23755293E+01 -2.47510585E+01  0.00000000E+00  1.23755293E+01
  1.23755293E+01 -2.47510585E+01  0.00000000E+00  1.23755293E+01  1.23755293E+01
 -2.47510585E+01  0.00000000E+00  1.23755293E+01  1.23755293E+01 -2.47510585E+01
  0.00000000E+00  1.23755293E+01  1.23755293E+01 -2.47510585E+01  0.00000000E+00
  1.23755293E+01  1.23755293E+01 -2.47510585E+01  0.00000000E+00  1.23755293E+01
  1.23755293E+01 -2.47510585E+01  0.00000000E+00  1.23755293E+01  1.23755293E+01
 -2.47510585E+01  0.00000000E+00  1.23755293E+01  1.23755293E+01 -2.47510585E+01
  0.00000000E+00  1.23755293E+01  1.23755293E+01 -2.47510585E+01  0.00000000E+00
  1.23755293E+01  1.23755293E+01 -2.47510585E+01  0.00000000E+00  1.23755293E+01
  1.23755293E+01 -2.47510585E+01  0.00000000E+00  1.23755293E+01  1.23755293E+01
 -2.47510585E+01  0.00000000E+00  1.23755293E+01  1.23755293E+01 -2.47510585E+01
  0.00000000E+00  1.23755293E+01  1.23755293E+01 -2.47510585E+01  0.00000000E+00
  1.23755293E+01  1.23755293E+01 -2.47510585E+01  0.00000000E+00  1.23755293E+01
  1.23755293E+01 -2.47510585E+01  0.00000000E+00  1.23755293E+01  1.23755293E+01
 -2.47510585E+01  0.00000000E+00  1.23755293E+01  1.23755293E+01 -2.47510585E+01
  0.00000000E+00  1.23755293E+01  1.23755293E+01 -2.47510585E+01  0.00000000E+00
  1.23755293E+01  1.23755293E+01 -2.47510585E+01  0.00000000E+00  1.23755293E+01
  1.23755293E+01 -2.47510585E+01  0.00000000E+00  1.23755293E+01  1.23755293E+01
 -2.47510585E+01  0.00000000E+00  1.23755293E+01  1.23755293E+01 -2.47510585E+01
  0.00000000E+00  1.23755293E+01  1.23755293E+01 -2.47510585E+01  0.00000000E+00
  1.23755293E+01  1.23755293E+01 -2.47510585E+01  0.00000000E+00  1.23755293E+01
  1.23755293E+01 -2.47510585E+01  0.00000000E+00  1.23755293E+01  1.23755293E+01
 -2.47510585E+01  0.00000000E+00  1.23755293E+01  1.23755293E+01 -2.47510585E+01
  0.00000000E+00  1.23755293E+01  1.23755293E+01 -2.47510585E+01  0.00000000E+00
  1.23755293E+01  1.23755293E+01 -2.47510585E+01  0.00000000E+00  1.23755293E+01
  1.23755293E+01 -2.47510585E+01  0.00000000E+00  1.23755293E+01  1.23755293E+01
 -2.47510585E+01  0.00000000E+00  1.23755293E+01  1.23755293E+01 -2.47510585E+01
  0.00000000E+00  1.23755293E+01  1.23755293E+01 -2.47510585E+01  0.00000000E+00
  1.23755293E+01  1.23755293E+01 -2.47510585E+01  0.00000000E+00  1.23755293E+01
  1.23755293E+01 -2.47510585E+01  0.00000000E+00  1.23755293E+01  1.23755293E+01
 -2.47510585E+01  0.00000000E+00  1.23755293E+01  1.23755293E+01 -2.47510585E+01
  0.00000000E+00  1.23755293E+01  1.23755293E+01 -2.47510585E+01  0.00000000E+00
  1.23755293E+01  1.23755293E+01 -2.47510585E+01  0.00000000E+00  1.23755293E+01
  1.23755293E+01 -2.47510585E+01  0.00000000E+00  1.23755293E+01  1.23755293E+01
 -2.47510585E+01  0.00000000E+00  1.23755293E+01  1.23755293E+01 -2.47510585E+01
  0.00000000E+00  1.23755293E+01  1.23755293E+01 -2.47510585E+01  0.00000000E+00
  1.23755293E+01  1.23755293E+01 -2.47510585E+01  0.00000000E+00  1.23755293E+01
  1.23755293E+01 -2.47510585E+01  0.00000000E+00  1.23755293E+01  1.23755293E+01
 -2.47510585E+01  0.00000000E+00  1.23755293E+01  1.23755293E+01 -2.47510585E+01
  0.00000000E+00  1.23755293E+01  1.23755293E+01 -2.47510585E+01  0.00000000E+00
  1.23755293E+01  1.23755293E+01 -2.47510585E+01  0.00000000E+00  1.23755293E+01
  1.23755293E+01 -2.47510585E+01  0.00000000E+00  1.23755293E+01  1.23755293E+01
 -2.47510585E+01  0.00000000E+00  1.23755293E+01  1.23755293E+01 -2.47510585E+01
  0.00000000E+00  1.23755293E+01  1.23755293E+01 -2.47510585E+01  0.00000000E+00
  1.23755293E+01  1.23755293E+01 -2.47510585E+01  0.00000000E+00  1.23755293E+01
  1.23755293E+01 -2.47510585E+01  0.00000000E+00  1.23755293E+01  1.23755293E+01
 -2.47510585E+01  0.00000000E+00  1.23755293E+01  1.23755293E+01 -2.47510585E+01
  0.00000000E+00  1.23755293E+01  1.23755293E+01 -2.47510585E+01  0.00000000E+00
  1.23755293E+01  1.23755293E+01 -2.47510585E+01  0.00000000E+00  1.23755293E+01
  1.23755293E+01 -2.47510585E+01  0.00000000E+00  1.23755293E+01  1.23755293E+01
 -2.47510585E+01  0.00000000E+00  1.23755293E+01  1.23755293E+01 -2.47510585E+01
  0.00000000E+00  1.23755293E+01  1.23755293E+01 -2.47510585E+01  0.00000000E+00
  1.23755293E+01  1.23755293E+01 -2.47510585E+01  0.00000000E+00  1.23755293E+01
  1.23755293E+01 -2.47510585E+01  0.00000000E+00  1.23755293E+01  1.23755293E+01
 -2.47510585E+01  0.00000000E+00  1.23755293E+01  1.23755293E+01 -2.47510585E+01
  0.00000000E+00  1.23755293E+01  1.23755293E+01 -2.47510585E+01  0.00000000E+00
  1.23755293E+01  1.23755293E+01 -2.47510585E+01  0.00000000E+00  1.23755293E+01
  1.23755293E+01 -2.47510585E+01  0.00000000E+00  1.23755293E+01  1.23755293E+01
 -2.47510585E+01  0.00000000E+00  1.23755293E+01  1.23755293E+01 -2.47510585E+01
  0.00000000E+00  1.23755293E+01  1.23755293E+01 -2.47510585E+01  0.00000000E+00
  1.23755293E+01  1.23755293E+01 -2.47510585E+01  0.00000000E+00  1.23755293E+01
  1.23755293E+01 -2.47510585E+01  0.00000000E+00  1.23755293E+01  1.23755293E+01
 -2.47510585E+01  0.00000000E+00  1.23755293E+01  1.23755293E+01 -2.47510585E+01
  0.00000000E+00  1.23755293E+01  1.23755293E+01 -2.47510585E+01  0.00000000E+00
  1.23755293E+01  1.23755293E+01 -2.47510585E+01  0.00000000E+00  1.23755293E+01
  1.23755293E+01 -2.47510585E+01  0.00000000E+00  1.23755293E+01  1.23755293E+01
 -2.47510585E+01  0.00000000E+00  1.23755293E+01  1.23755293E+01 -2.47510585E+01
  0.00000000E+00  1.23755293E+01  1.23755293E+01 -2.47510585E+01  0.00000000E+00
  1.23755293E+01  1.23755293E+01 -2.47510585E+01  0.00000000E+00  1.23755293E+01
  1.23755293E+01 -2.47510585E+01  0.00000000E+00  1.23755293E+01  1.23755293E+01
 -2.47510585E+01  0.00000000E+00  1.23755293E+01  1.23755293E+01 -2.47510585E+01
  0.00000000E+00  1.23755293E+01  1.23755293E+01 -2.47510585E+01  0.00000000E+00
  1.23755293E+01  1.23755293E+01 -2.47510585E+01  0.00000000E+00  1.23755293E+01
  1.23755293E+01 -2.47510585E+01  0.00000000E+00  1.23755293E+01  1.23755293E+01
 -2.47510585E+01  0.00000000E+00  1.23755293E+01  1.23755293E+01 -2.47510585E+01
  0.00000000E+00  1.23755293E+01  1.23755293E+01 -2.47510585E+01  0.00000000E+00
  1.23755293E+01  1.23755293E+01 -2.47510585E+01  0.00000000E+00  1.23755293E+01
  1.23755293E+01 -2.47510585E+01  0.00000000E+00  1.23755293E+01  1.23755293E+01
 -2.47510585E+01  0.00000000E+00  1.23755293E+01  1.23755293E+01 -2.47510585E+01
  0.00000000E+00  1.23755293E+01  1.23755293E+01 -2.47510585E+01  0.00000000E+00
  1.23755293E+01  1.23755293E+01 -2.47510585E+01  0.00000000E+00  1.23755293E+01
  1.23755293E+01 -2.47510585E+01  0.00000000E+00  1.23755293E+01  1.23755293E+01
 -2.47510585E+01  0.00000000E+00  1.23755293E+01  1.23755293E+01 -2.47510585E+01
  0.00000000E+00  1.23755293E+01  1.23755293E+01 -2.47510585E+01  0.00000000E+00
  1.23755293E+01  1.23755293E+01 -2.47510585E+01  0.00000000E+00  1.23755293E+01
  1.23755293E+01 -2.47510585E+01  0.00000000E+00  1.23755293E+01  1.23755293E+01
 -2.47510585E+01  0.00000000E+00  1.23755293E+01  1.23755293E+01 -2.47510585E+01
  0.00000000E+00  1.23755293E+01  1.23755293E+01 -2.47510585E+01  0.00000000E+00
  1.23755293E+01  1.23755293E+01 -2.47510585E+01  0.00000000E+00  1.23755293E+01
  1.23755293E+01 -2.47510585E+01  0.00000000E+00  1.23755293E+01  1.23755293E+01
 -2.47510585E+01  0.00000000E+00  1.23755293E+01  1.23755293E+01 -2.47510585E+01
  0.00000000E+00  1.23755293E+01  1.23755293E+01 -2.47510585E+01  0.00000000E+00
  1.23755293E+01  1.23755293E+01 -2.47510585E+01  0.00000000E+00  1.23755293E+01
  1.23755293E+01 -2.47510585E+01  0.00000000E+00  1.23755293E+01  1.23755293E+01
 -2.47510585E+01  0.00000000E+00  1.23755293E+01  1.23755293E+01 -2.47510585E+01
  0.00000000E+00  1.23755293E+01  1.23755293E+01 -2.47510585E+01  0.00000000E+00
  1.23755293E+01  1.23755293E+01 -2.47510585E+01  0.00000000E+00  1.23755293E+01
  1.23755293E+01 -2.47510585E+01  0.00000000E+00  1.23755293E+01  1.23755293E+01
 -2.47510585E+01  0.00000000E+00  1.23755293E+01  1.23755293E+01 -2.47510585E+01
  0.00000000E+00  1.23755293E+01  1.23755293E+01 -2.47510585E+01  0.00000000E+00
  1.23755293E+01  1.23755293E+01 -2.47510585E+01  0.00000000E+00  1.23755293E+01
  1.23755293E+01 -2.47510585E+01  0.00000000E+00  1.23755293E+01  1.23755293E+01
 -2.47510585E+01  0.00000000E+00  1.23755293E+01  1.23755293E+01 -2.47510585E+01
  0.00000000E+00  1.23755293E+01  1.23755293E+01 -2.47510585E+01  0.00000000E+00
  1.23755293E+01  1.23755293E+01 -2.47510585E+01  0.00000000E+00  1.23755293E+01
  1.23755293E+01 -2.47510585E+01  0.00000000E+00  1.23755293E+01  1.23755293E+01
 -2.47510585E+01  0.00000000E+00  1.23755293E+01  1.23755293E+01 -2.47510585E+01
  0.00000000E+00  1.23755293E+01  1.23755293E+01 -2.47510585E+01  0.00000000E+00
  1.23755293E+01  1.23755293E+01 -2.47510585E+01  0.00000000E+00  1.23755293E+01
  1.23755293E+01 -2.47510585E+01  0.00000000E+00  1.23755293E+01  1.23755293E+01
 -2.47510585E+01  0.00000000E+00  1.23755293E+01  1.23755293E+01 -2.47510585E+01
  0.00000000E+00  1.23755293E+01  1.23755293E+01 -2.47510585E+01  0.00000000E+00
  1.23755293E+01  1.23755293E+01 -2.47510585E+01  0.00000000E+00  1.23755293E+01
  1.23755293E+01 -2.47510585E+01  0.00000000E+00  1.23755293E+01  1.23755293E+01
 -2.47510585E+01  0.00000000E+00  1.23755293E+01  1.23755293E+01 -2.47510585E+01
  0.00000000E+00  1.23755293E+01  1.23755293E+01 -2.47510585E+01  0.00000000E+00
  1.23755293E+01  1.23755293E+01 -2.47510585E+01  0.00000000E+00  1.23755293E+01
  1.23755293E+01 -2.47510585E+01  0.00000000E+00  1.23755293E+01  1.23755293E+01
 -2.47510585E+01  0.00000000E+00  1.23755293E+01  1.23755293E+01 -2.47510585E+01
  0.00000000E+00  1.23755293E+01  1.23755293E+01 -2.47510585E+01  0.00000000E+00
  1.23755293E+01  1.23755293E+01 -2.47510585E+01  0.00000000E+00  1.23755293E+01
  1.23755293E+01 -2.47510585E+01  0.00000000E+00  1.23755293E+01  1.23755293E+01
 -2.47510585E+01  0.00000000E+00  1.23755293E+01  1.23755293E+01 -2.47510585E+01
  0.00000000E+00  1.23755293E+01  1.23755293E+01 -2.47510585E+01  0.00000000E+00
  1.23755293E+01  1.23755293E+01 -2.47510585E+01  0.00000000E+00  1.23755293E+01
  1.23755293E+01 -2.47510585E+01  0.00000000E+00  1.23755293E+01  1.23755293E+01
 -2.47510585E+01  0.00000000E+00  1.23755293E+01  1.23755293E+01 -2.47510585E+01
  0.00000000E+00  1.23755293E+01  1.23755293E+01 -2.47510585E+01  0.00000000E+00
  1.23755293E+01  1.23755293E+01 -2.47510585E+01  0.00000000E+00  1.23755293E+01
  1.23755293E+01 -2.47510585E+01  0.00000000E+00  1.23755293E+01  1.23755293E+01
 -2.47510585E+01  0.00000000E+00  1.23755293E+01  1.23755293E+01 -2.47510585E+01
  0.00000000E+00  1.23755293E+01  1.23755293E+01 -2.47510585E+01  0.00000000E+00
  1.23755293E+01  1.23755293E+01 -2.47510585E+01  0.00000000E+00  1.23755293E+01
  1.23755293E+01 -2.47510585E+01  0.00000000E+00  1.23755293E+01  1.23755293E+01
 -2.47510585E+01  0.00000000E+00  1.23755293E+01  1.23755293E+01 -2.47510585E+01
  0.00000000E+00  1.23755293E+01  1.23755293E+01 -2.47510585E+01  0.00000000E+00
  1.23755293E+01  1.23755293E+01 -2.47510585E+01  0.00000000E+00  1.23755293E+01
  1.23755293E+01 -2.47510585E+01  0.00000000E+00  1.23755293E+01  1.23755293E+01
 -2.47510585E+01  0.00000000E+00  1.23755293E+01  1.23755293E+01 -2.47510585E+01
  0.00000000E+00  1.23755293E+01  1.23755293E+01 -2.47510585E+01  0.00000000E+00
  1.23755293E+01  1.23755293E+01 -2.47510585E+01  0.00000000E+00  1.23755293E+01
  1.23755293E+01 -2.47510585E+01  0.00000000E+00  1.23755293E+01  1.23755293E+01
 -2.47510585E+01  0.00000000E+00  1.23755293E+01  1.23755293E+01 -2.47510585E+01
  0.00000000E+00  1.23755293E+01  1.23755293E+01 -2.47510585E+01  0.00000000E+00
  1.23755293E+01  1.23755293E+01 -2.47510585E+01  0.00000000E+00  1.23755293E+01
  1.23755293E+01 -2.47510585E+01  0.00000000E+00  1.23755293E+01  1.23755293E+01
 -2.47510585E+01  0.00000000E+00  1.23755293E+01  1.23755293E+01 -2.47510585E+01
  0.00000000E+00  1.23755293E+01  1.23755293E+01 -2.47510585E+01  0.00000000E+00
  1.23755293E+01  1.23755293E+01 -2.47510585E+01  0.00000000E+00  1.23755293E+01
  1.23755293E+01 -2.47510585E+01  0.00000000E+00  1.23755293E+01  1.23755293E+01
 -2.47510585E+01  0.00000000E+00  1.23755293E+01  1.23755293E+01 -2.47510585E+01
  0.00000000E+00  1.23755293E+01  1.23755293E+01 -2.47510585E+01  0.00000000E+00
  1.23755293E+01  1.23755293E+01 -2.47510585E+01  0.00000000E+00  1.23755293E+01
  1.23755293E+01 -2.47510585E+01  0.00000000E+00  1.23755293E+01  1.23755293E+01
 -2.47510585E+01  0.00000000E+00  1.23755293E+01  1.23755293E+01 -2.47510585E+01
  0.00000000E+00  1.23755293E+01  1.23755293E+01 -2.47510585E+01  0.00000000E+00
  1.23755293E+01  1.23755293E+01 -2.47510585E+01  0.00000000E+00  1.23755293E+01
  1.23755293E+01 -2.47510585E+01  0.00000000E+00  1.23755293E+01  1.23755293E+01
 -2.47510585E+01  0.00000000E+00  1.23755293E+01  1.23755293E+01 -2.47510585E+01
  0.00000000E+00  1.23755293E+01  1.23755293E+01 -2.47510585E+01  0.00000000E+00
  1.23755293E+01  1.23755293E+01 -2.47510585E+01  0.00000000E+00  1.23755293E+01
  1.23755293E+01 -2.47510585E+01  0.00000000E+00  1.23755293E+01  1.23755293E+01
 -2.47510585E+01  0.00000000E+00  1.23755293E+01  1.23755293E+01 -2.47510585E+01
  0.00000000E+00  1.23755293E+01  1.23755293E+01 -2.47510585E+01  0.00000000E+00
  1.23755293E+01  1.23755293E+01 -2.47510585E+01  0.00000000E+00  1.23755293E+01
  1.23755293E+01 -2.47510585E+01  0.00000000E+00  1.23755293E+01  1.23755293E+01
 -2.47510585E+01  0.00000000E+00  1.23755293E+01  1.23755293E+01 -2.47510585E+01
  0.00000000E+00  1.23755293E+01  1.23755293E+01 -2.47510585E+01  0.00000000E+00
  1.23755293E+01  1.23755293E+01 -2.47510585E+01  0.00000000E+00  1.23755293E+01
  1.23755293E+01 -2.47510585E+01  0.00000000E+00  1.23755293E+01  1.23755293E+01
 -2.47510585E+01  0.00000000E+00  1.23755293E+01  1.23755293E+01 -2.47510585E+01
  0.00000000E+00  1.23755293E+01  1.23755293E+01 -2.47510585E+01  0.00000000E+00
  1.23755293E+01  1.23755293E+01 -2.47510585E+01  0.00000000E+00  1.23755293E+01
  1.23755293E+01 -2.47510585E+01  0.00000000E+00  1.23755293E+01  1.23755293E+01
 -2.47510585E+01  0.00000000E+00  1.23755293E+01  1.23755293E+01 -2.47510585E+01
  0.00000000E+00  1.23755293E+01  1.23755293E+01 -2.47510585E+01  0.00000000E+00
  1.23755293E+01  1.23755293E+01 -2.47510585E+01  0.00000000E+00  1.23755293E+01
  1.23755293E+01 -2.47510585E+01  0.00000000E+00  1.23755293E+01  1.23755293E+01
 -2.47510585E+01  0.00000000E+00  1.23755293E+01  1.23755293E+01 -2.47510585E+01
  0.00000000E+00  1.23755293E+01  1.23755293E+01 -2.47510585E+01  0.00000000E+00
  1.23755293E+01  1.23755293E+01 -2.47510585E+01  0.00000000E+00  1.23755293E+01
  1.23755293E+01 -2.47510585E+01  0.00000000E+00  1.23755293E+01  1.23755293E+01
 -2.47510585E+01  0.00000000E+00  1.23755293E+01  1.23755293E+01 -2.47510585E+01
  0.00000000E+00  1.23755293E+01  1.23755293E+01 -2.47510585E+01  0.00000000E+00
  1.23755293E+01  1.23755293E+01 -2.47510585E+01  0.00000000E+00  1.23755293E+01
  1.23755293E+01 -2.47510585E+01  0.00000000E+00  1.23755293E+01  1.23755293E+01
 -2.47510585E+01  0.00000000E+00  1.23755293E+01  1.23755293E+01 -2.47510585E+01
  0.00000000E+00  1.23755293E+01  1.23755293E+01 -2.47510585E+01  0.00000000E+00
  1.23755293E+01  1.23755293E+01 -2.47510585E+01  0.00000000E+00  1.23755293E+01
  1.23755293E+01 -2.47510585E+01  0.00000000E+00  1.23755293E+01  1.23755293E+01
 -2.47510585E+01  0.00000000E+00  1.23755293E+01  1.23755293E+01 -2.47510585E+01
  0.00000000E+00  1.23755293E+01  1.23755293E+01 -2.47510585E+01  0.00000000E+00
  1.23755293E+01  1.23755293E+01 -2.47510585E+01  0.00000000E+00  1.23755293E+01
  1.23755293E+01 -2.47510585E+01  0.00000000E+00  1.23755293E+01  1.23755293E+01
 -2.47510585E+01  0.00000000E+00  1.23755293E+01  1.23755293E+01 -2.47510585E+01
  0.00000000E+00  1.23755293E+01  1.23755293E+01 -2.47510585E+01  0.00000000E+00
  1.23755293E+01  1.23755293E+01 -2.47510585E+01  0.00000000E+00  1.23755293E+01
  1.23755293E+01 -2.47510585E+01  0.00000000E+00  1.23755293E+01  1.23755293E+01
 -2.47510585E+01  0.00000000E+00  1.23755293E+01  1.23755293E+01 -2.47510585E+01
  0.00000000E+00  1.23755293E+01  1.23755293E+01 -2.47510585E+01  0.00000000E+00
  1.23755293E+01  1.23755293E+01 -2.47510585E+01  0.00000000E+00  1.23755293E+01
  1.23755293E+01 -2.47510585E+01  0.00000000E+00  1.23755293E+01  1.23755293E+01
 -2.47510585E+01  0.00000000E+00  1.23755293E+01  1.23755293E+01 -2.47510585E+01
  0.00000000E+00  1.23755293E+01  1.23755293E+01 -2.47510585E+01  0.00000000E+00
  1.23755293E+01  1.23755293E+01 -2.47510585E+01  0.00000000E+00  1.23755293E+01
  1.23755293E+01 -2.47510585E+01  0.00000000E+00  1.23755293E+01  1.23755293E+01
 -2.47510585E+01  0.00000000E+00  1.23755293E+01  1.23755293E+01 -2.47510585E+01
  0.00000000E+00  1.23755293E+01  1.23755293E+01 -2.47510585E+01  0.00000000E+00
  1.23755293E+01  1.23755293E+01 -2.47510585E+01  0.00000000E+00  1.23755293E+01
  1.23755293E+01 -2.47510585E+01  0.00000000E+00  1.23755293E+01  1.23755293E+01
 -2.47510585E+01  0.00000000E+00  1.23755293E+01  1.23755293E+01 -2.47510585E+01
  0.00000000E+00  1.23755293E+01  1.23755293E+01 -2.47510585E+01  0.00000000E+00
  1.23755293E+01  1.23755293E+01 -2.47510585E+01  0.00000000E+00  1.23755293E+01
  1.23755293E+01 -2.47510585E+01  0.00000000E+00  1.23755293E+01  1.23755293E+01
 -2.47510585E+01  0.00000000E+00  1.23755293E+01  1.23755293E+01 -2.47510585E+01
  0.00000000E+00  1.23755293E+01  1.23755293E+01 -2.47510585E+01  0.00000000E+00
  1.23755293E+01  1.23755293E+01 -2.47510585E+01  0.00000000E+00  1.23755293E+01
  1.23755293E+01 -2.47510585E+01  0.00000000E+00  1.23755293E+01  1.23755293E+01
 -2.47510585E+01  0.00000000E+00  1.23755293E+01  1.23755293E+01 -2.47510585E+01
  0.00000000E+00  1.23755293E+01  1.23755293E+01 -2.47510585E+01  0.00000000E+00
  1.23755293E+01  1.23755293E+01 -2.47510585E+01  0.00000000E+00  1.23755293E+01
  1.23755293E+01 -2.47510585E+01  0.00000000E+00  1.23755293E+01  1.23755293E+01
 -2.47510585E+01  0.00000000E+00  1.23755293E+01  1.23755293E+01 -2.47510585E+01
  0.00000000E+00  1.23755293E+01  1.23755293E+01 -2.47510585E+01  0.00000000E+00
  1.23755293E+01  1.23755293E+01 -2.47510585E+01  0.00000000E+00  1.23755293E+01
  1.23755293E+01 -2.47510585E+01  0.00000000E+00  1.23755293E+01  1.23755293E+01
 -2.47510585E+01  0.00000000E+00  1.23755293E+01  1.23755293E+01 -2.47510585E+01
  0.00000000E+00  1.23755293E+01  1.23755293E+01 -2.47510585E+01  0.00000000E+00
  1.23755293E+01  1.23755293E+01 -2.47510585E+01  0.00000000E+00  1.23755293E+01
  1.23755293E+01 -2.47510585E+01  0.00000000E+00  1.23755293E+01  1.23755293E+01
 -2.47510585E+01  0.00000000E+00  1.23755293E+01  1.23755293E+01 -2.47510585E+01
  0.00000000E+00  1.23755293E+01  1.23755293E+01 -2.47510585E+01  0.00000000E+00
  1.23755293E+01  1.23755293E+01 -2.47510585E+01  0.00000000E+00  1.23755293E+01
  1.23755293E+01 -2.47510585E+01  0.00000000E+00  1.23755293E+01  1.23755293E+01
 -2.47510585E+01  0.00000000E+00  1.23755293E+01  1.23755293E+01 -2.47510585E+01
  0.00000000E+00  1.23755293E+01  1.23755293E+01 -2.47510585E+01  0.00000000E+00
  1.23755293E+01  1.23755293E+01 -2.47510585E+01  0.00000000E+00  1.23755293E+01
  1.23755293E+01 -2.47510585E+01  0.00000000E+00  1.23755293E+01  1.23755293E+01
 -2.47510585E+01  0.00000000E+00  1.23755293E+01  1.23755293E+01 -2.47510585E+01
  0.00000000E+00  1.23755293E+01  1.23755293E+01 -2.47510585E+01  0.00000000E+00
  1.23755293E+01  1.23755293E+01 -2.47510585E+01  0.00000000E+00  1.23755293E+01
  1.23755293E+01 -2.47510585E+01  0.00000000E+00  1.23755293E+01  1.23755293E+01
 -2.47510585E+01  0.00000000E+00  1.23755293E+01  1.23755293E+01 -2.47510585E+01
  0.00000000E+00  1.23755293E+01  1.23755293E+01 -2.47510585E+01  0.00000000E+00
  1.23755293E+01  1.23755293E+01 -2.47510585E+01  0.00000000E+00  1.23755293E+01
  1.23755293E+01 -2.47510585E+01  0.00000000E+00  1.23755293E+01  1.23755293E+01
 -2.47510585E+01  0.00000000E+00  1.23755293E+01  1.23755293E+01 -2.47510585E+01
  0.00000000E+00  1.23755293E+01  1.23755293E+01 -2.47510585E+01  0.00000000E+00
  1.23755293E+01  1.23755293E+01 -2.47510585E+01  0.00000000E+00  1.23755293E+01
  1.23755293E+01 -2.47510585E+01  0.00000000E+00  1.23755293E+01  1.23755293E+01
 -2.47510585E+01  0.00000000E+00  1.23755293E+01  1.23755293E+01 -2.47510585E+01
  0.00000000E+00  1.23755293E+01  1.23755293E+01 -2.47510585E+01  0.00000000E+00
  1.23755293E+01  1.23755293E+01 -2.47510585E+01  0.00000000E+00  1.23755293E+01
  1.23755293E+01 -2.47510585E+01  0.00000000E+00  1.23755293E+01  1.23755293E+01
 -2.47510585E+01  0.00000000E+00  1.23755293E+01  1.23755293E+01 -2.47510585E+01
  0.00000000E+00  1.23755293E+01  1.23755293E+01 -2.47510585E+01  0.00000000E+00
  1.23755293E+01  1.23755293E+01 -2.47510585E+01  0.00000000E+00  1.23755293E+01
  1.23755293E+01 -2.47510585E+01  0.00000000E+00  1.23755293E+01  1.23755293E+01
 -2.47510585E+01  0.00000000E+00  1.23755293E+01  1.23755293E+01 -2.47510585E+01
  0.00000000E+00  1.23755293E+01  1.23755293E+01 -2.47510585E+01  0.00000000E+00
  1.23755293E+01  1.23755293E+01 -2.47510585E+01  0.00000000E+00  1.23755293E+01
  1.23755293E+01 -2.47510585E+01  0.00000000E+00  1.23755293E+01  1.23755293E+01
 -2.47510585E+01  0.00000000E+00  1.23755293E+01  1.23755293E+01 -2.47510585E+01
  0.00000000E+00  1.23755293E+01  1.23755293E+01 -2.47510585E+01  0.00000000E+00
  1.23755293E+01  1.23755293E+01 -2.47510585E+01  0.00000000E+00  1.23755293E+01
  1.23755293E+01 -2.47510585E+01  0.00000000E+00  1.23755293E+01  1.23755293E+01
 -2.47510585E+01  0.00000000E+00  1.23755293E+01  1.23755293E+01 -2.47510585E+01
  0.00000000E+00  1.23755293E+01  1.23755293E+01 -2.47510585E+01  0.00000000E+00
  1.23755293E+01  1.23755293E+01 -2.47510585E+01  0.00000000E+00  1.23755293E+01
  1.23755293E+01 -2.47510585E+01  0.00000000E+00  1.23755293E+01  1.23755293E+01
 -2.47510585E+01  0.00000000E+00  1.23755293E+01  1.23755293E+01 -2.47510585E+01
  0.00000000E+00  1.23755293E+01  1.23755293E+01 -2.47510585E+01  0.00000000E+00
  1.23755293E+01  1.23755293E+01 -2.47510585E+01  0.00000000E+00  1.23755293E+01
  1.23755293E+01 -2.47510585E+01  0.00000000E+00  1.23755293E+01  1.23755293E+01
 -2.47510585E+01  0.00000000E+00  1.23755293E+01  1.23755293E+01 -2.47510585E+01
  0.00000000E+00  1.23755293E+01  1.23755293E+01 -2.47510585E+01  0.00000000E+00
  1.23755293E+01  1.23755293E+01 -2.47510585E+01  0.00000000E+00  1.23755293E+01
  1.23755293E+01 -2.47510585E+01  0.00000000E+00  1.23755293E+01  1.23755293E+01
 -2.47510585E+01  0.00000000E+00  1.23755293E+01  1.23755293E+01 -2.47510585E+01
  0.00000000E+00  1.23755293E+01  1.23755293E+01 -2.47510585E+01  0.00000000E+00
  1.23755293E+01  1.23755293E+01 -2.47510585E+01  0.00000000E+00  1.23755293E+01
  1.23755293E+01 -2.47510585E+01  0.00000000E+00  1.23755293E+01  1.23755293E+01
 -2.47510585E+01  0.00000000E+00  1.23755293E+01  1.23755293E+01 -2.47510585E+01
  0.00000000E+00  1.23755293E+01  1.23755293E+01 -2.47510585E+01  0.00000000E+00
  1.23755293E+01  1.23755293E+01 -2.47510585E+01  0.00000000E+00  1.23755293E+01
  1.23755293E+01 -2.47510585E+01  0.00000000E+00  1.23755293E+01  1.23755293E+01
 -2.47510585E+01  0.00000000E+00  1.23755293E+01  1.23755293E+01 -2.47510585E+01
  0.00000000E+00  1.23755293E+01  1.23755293E+01 -2.47510585E+01  0.00000000E+00
  1.23755293E+01  1.23755293E+01 -2.47510585E+01  0.00000000E+00  1.23755293E+01
  1.23755293E+01 -2.47510585E+01  0.00000000E+00  1.23755293E+01  1.23755293E+01
 -2.47510585E+01  0.00000000E+00  1.23755293E+01  1.23755293E+01 -2.47510585E+01
  0.00000000E+00  1.23755293E+01  1.23755293E+01 -2.47510585E+01  0.00000000E+00
  1.23755293E+01  1.23755293E+01 -2.47510585E+01  0.00000000E+00  1.23755293E+01
  1.23755293E+01 -2.47510585E+01  0.00000000E+00  1.23755293E+01  1.23755293E+01
 -2.47510585E+01  0.00000000E+00  1.23755293E+01  1.23755293E+01 -2.47510585E+01
  0.00000000E+00  1.23755293E+01  1.23755293E+01 -2.47510585E+01  0.00000000E+00
  1.23755293E+01  1.23755293E+01 -2.47510585E+01  0.00000000E+00  1.23755293E+01
  1.23755293E+01 -2.47510585E+01  0.00000000E+00  1.23755293E+01  1.23755293E+01
 -2.47510585E+01  0.00000000E+00  1.23755293E+01  1.23755293E+01 -2.47510585E+01
  0.00000000E+00  1.23755293E+01  1.23755293E+01 -2.47510585E+01  0.00000000E+00
  1.23755293E+01  1.23755293E+01 -2.47510585E+01  0.00000000E+00  1.23755293E+01
  1.23755293E+01 -2.47510585E+01  0.00000000E+00  1.23755293E+01  1.23755293E+01
 -2.47510585E+01  0.00000000E+00  1.23755293E+01  1.23755293E+01 -2.47510585E+01
  0.00000000E+00  1.23755293E+01  1.23755293E+01 -2.47510585E+01  0.00000000E+00
  1.23755293E+01  1.23755293E+01 -2.47510585E+01  0.00000000E+00  1.23755293E+01
  1.23755293E+01 -2.47510585E+01  0.00000000E+00  1.23755293E+01  1.23755293E+01
 -2.47510585E+01  0.00000000E+00  1.23755293E+01  1.23755293E+01 -2.47510585E+01
  0.00000000E+00  1.23755293E+01  1.23755293E+01 -2.47510585E+01  0.00000000E+00
  1.23755293E+01  1.23755293E+01 -2.47510585E+01  0.00000000E+00  1.23755293E+01
  1.23755293E+01 -2.47510585E+01  0.00000000E+00  1.23755293E+01  1.23755293E+01
 -2.47510585E+01  0.00000000E+00  1.23755293E+01  1.23755293E+01 -2.47510585E+01
  0.00000000E+00  1.23755293E+01  1.23755293E+01 -2.47510585E+01  0.00000000E+00
  1.23755293E+01  1.23755293E+01 -2.47510585E+01  0.00000000E+00  1.23755293E+01
  1.23755293E+01 -2.47510585E+01  0.00000000E+00  1.23755293E+01  1.23755293E+01
 -2.47510585E+01  0.00000000E+00  1.23755293E+01  1.23755293E+01 -2.47510585E+01
  0.00000000E+00  1.23755293E+01  1.23755293E+01 -2.47510585E+01  0.00000000E+00
  1.23755293E+01  1.23755293E+01 -2.47510585E+01  0.00000000E+00  1.23755293E+01
  1.23755293E+01 -2.47510585E+01  0.00000000E+00  1.23755293E+01  1.23755293E+01
 -2.47510585E+01  0.00000000E+00  1.23755293E+01  1.23755293E+01 -2.47510585E+01
  0.00000000E+00  1.23755293E+01  1.23755293E+01 -2.47510585E+01  0.00000000E+00
  1.23755293E+01  1.23755293E+01 -2.47510585E+01  0.00000000E+00  1.23755293E+01
  1.23755293E+01 -2.47510585E+01  0.00000000E+00  1.23755293E+01  1.23755293E+01
 -2.47510585E+01  0.00000000E+00  1.23755293E+01  1.23755293E+01 -2.47510585E+01
  0.00000000E+00  1.23755293E+01  1.23755293E+01 -2.47510585E+01  0.00000000E+00
  1.23755293E+01  1.23755293E+01 -2.47510585E+01  0.00000000E+00  1.23755293E+01
  1.23755293E+01 -2.47510585E+01  0.00000000E+00  1.23755293E+01  1.23755293E+01
 -2.47510585E+01  0.00000000E+00  1.23755293E+01  1.23755293E+01 -2.47510585E+01
  0.00000000E+00  1.23755293E+01  1.23755293E+01 -2.47510585E+01  0.00000000E+00
  1.23755293E+01  1.23755293E+01 -2.47510585E+01  0.00000000E+00  1.23755293E+01
  1.23755293E+01 -2.47510585E+01  0.00000000E+00  1.23755293E+01  1.23755293E+01
 -2.47510585E+01  0.00000000E+00  1.23755293E+01  1.23755293E+01 -2.47510585E+01
  0.00000000E+00  1.23755293E+01  1.23755293E+01 -2.47510585E+01  0.00000000E+00
  1.23755293E+01  1.23755293E+01 -2.47510585E+01  0.00000000E+00  1.23755293E+01
  1.23755293E+01 -2.47510585E+01  0.00000000E+00  1.23755293E+01  1.23755293E+01
 -2.47510585E+01  0.00000000E+00  1.23755293E+01  1.23755293E+01 -2.47510585E+01
  0.00000000E+00  1.23755293E+01  1.23755293E+01 -2.47510585E+01  0.00000000E+00
  1.23755293E+01  1.23755293E+01 -2.47510585E+01  0.00000000E+00  1.23755293E+01
  1.23755293E+01 -2.47510585E+01  0.00000000E+00  1.23755293E+01  1.23755293E+01
 -2.47510585E+01  0.00000000E+00  1.23755293E+01  1.23755293E+01 -2.47510585E+01
  0.00000000E+00  1.23755293E+01  1.23755293E+01 -2.47510585E+01  0.00000000E+00
  1.23755293E+01  1.23755293E+01 -2.47510585E+01  0.00000000E+00  1.23755293E+01
  1.23755293E+01 -2.47510585E+01  0.00000000E+00  1.23755293E+01  1.23755293E+01
 -2.47510585E+01  0.00000000E+00  1.23755293E+01  1.23755293E+01 -2.47510585E+01
  0.00000000E+00  1.23755293E+01  1.23755293E+01 -2.47510585E+01  0.00000000E+00
  1.23755293E+01  1.23755293E+01 -2.47510585E+01  0.00000000E+00  1.23755293E+01
  1.23755293E+01 -2.47510585E+01  0.00000000E+00  1.23755293E+01  1.23755293E+01
 -2.47510585E+01  0.00000000E+00  1.23755293E+01  1.23755293E+01 -2.47510585E+01
  0.00000000E+00  1.23755293E+01  1.23755293E+01 -2.47510585E+01  0.00000000E+00
  1.23755293E+01  1.23755293E+01 -2.47510585E+01  0.00000000E+00  1.23755293E+01
  1.23755293E+01 -2.47510585E+01  0.00000000E+00  1.23755293E+01  1.23755293E+01
 -2.47510585E+01  0.00000000E+00  1.23755293E+01  1.23755293E+01 -2.47510585E+01
  0.00000000E+00  1.23755293E+01  1.23755293E+01 -2.47510585E+01  0.00000000E+00
  1.23755293E+01  1.23755293E+01 -2.47510585E+01  0.00000000E+00  1.23755293E+01
  1.23755293E+01 -2.47510585E+01  0.00000000E+00  1.23755293E+01  1.23755293E+01
 -2.47510585E+01  0.00000000E+00  1.23755293E+01  1.23755293E+01 -2.47510585E+01
  0.00000000E+00  1.23755293E+01  1.23755293E+01 -2.47510585E+01  0.00000000E+00
  1.23755293E+01  1.23755293E+01 -2.47510585E+01  0.00000000E+00  1.23755293E+01
  1.23755293E+01 -2.47510585E+01  0.00000000E+00  1.23755293E+01  1.23755293E+01
 -2.47510585E+01  0.00000000E+00  1.23755293E+01  1.23755293E+01 -2.47510585E+01
  0.00000000E+00  1.23755293E+01  1.23755293E+01 -2.47510585E+01  0.00000000E+00
  1.23755293E+01  1.23755293E+01 -2.47510585E+01  0.00000000E+00  1.23755293E+01
  1.23755293E+01 -2.47510585E+01  0.00000000E+00  1.23755293E+01  1.23755293E+01
 -2.47510585E+01  0.00000000E+00  1.23755293E+01  1.23755293E+01 -2.47510585E+01
  0.00000000E+00  1.23755293E+01  1.23755293E+01 -2.47510585E+01  0.00000000E+00
  1.23755293E+01  1.23755293E+01 -2.47510585E+01  0.00000000E+00  1.23755293E+01
  1.23755293E+01 -2.47510585E+01  0.00000000E+00  1.23755293E+01  1.23755293E+01
 -2.47510585E+01  0.00000000E+00  1.23755293E+01  1.23755293E+01 -2.47510585E+01
  0.00000000E+00  1.23755293E+01  1.23755293E+01 -2.47510585E+01  0.00000000E+00
  1.23755293E+01  1.23755293E+01 -2.47510585E+01  0.00000000E+00  1.23755293E+01
  1.23755293E+01 -2.47510585E+01  0.00000000E+00  1.23755293E+01  1.23755293E+01
 -2.47510585E+01  0.00000000E+00  1.23755293E+01  1.23755293E+01 -2.47510585E+01
  0.00000000E+00  1.23755293E+01  1.23755293E+01 -2.47510585E+01  0.00000000E+00
  1.23755293E+01  1.23755293E+01 -2.47510585E+01  0.00000000E+00  1.23755293E+01
  1.23755293E+01 -2.47510585E+01  0.00000000E+00  1.23755293E+01  1.23755293E+01
 -2.47510585E+01  0.00000000E+00  1.23755293E+01  1.23755293E+01 -2.47510585E+01
  0.00000000E+00  1.23755293E+01  1.23755293E+01 -2.47510585E+01  0.00000000E+00
  1.23755293E+01  1.23755293E+01 -2.47510585E+01  0.00000000E+00  1.23755293E+01
  1.23755293E+01 -2.47510585E+01  0.00000000E+00  1.23755293E+01  1.23755293E+01
 -2.47510585E+01  0.00000000E+00  1.23755293E+01  1.23755293E+01 -2.47510585E+01
  0.00000000E+00  1.23755293E+01  1.23755293E+01 -2.47510585E+01  0.00000000E+00
  1.23755293E+01  1.23755293E+01 -2.47510585E+01  0.00000000E+00  1.23755293E+01
  1.23755293E+01 -2.47510585E+01  0.00000000E+00  1.23755293E+01  1.23755293E+01
 -2.47510585E+01  0.00000000E+00  1.23755293E+01  1.23755293E+01 -2.47510585E+01
  0.00000000E+00  1.23755293E+01  1.23755293E+01 -2.47510585E+01  0.00000000E+00
  1.23755293E+01  1.23755293E+01 -2.47510585E+01  0.00000000E+00  1.23755293E+01
  1.23755293E+01 -2.47510585E+01  0.00000000E+00  1.23755293E+01  1.23755293E+01
 -2.47510585E+01  0.00000000E+00  1.23755293E+01  1.23755293E+01 -2.47510585E+01
  0.00000000E+00  1.23755293E+01  1.23755293E+01 -2.47510585E+01  0.00000000E+00
  1.23755293E+01  1.23755293E+01 -2.47510585E+01  0.00000000E+00  1.23755293E+01
  1.23755293E+01 -2.47510585E+01  0.00000000E+00  1.23755293E+01  1.23755293E+01
 -2.47510585E+01  0.00000000E+00  1.23755293E+01  1.23755293E+01 -2.47510585E+01
  0.00000000E+00  1.23755293E+01  1.23755293E+01 -2.47510585E+01  0.00000000E+00
  1.23755293E+01  1.23755293E+01 -2.47510585E+01  0.00000000E+00  1.23755293E+01
  1.23755293E+01 -2.47510585E+01  0.00000000E+00  1.23755293E+01  1.23755293E+01
 -2.47510585E+01  0.00000000E+00  1.23755293E+01  1.23755293E+01 -2.47510585E+01
  0.00000000E+00  1.23755293E+01  1.23755293E+01 -2.47510585E+01  0.00000000E+00
  1.23755293E+01  1.23755293E+01 -2.47510585E+01  0.00000000E+00  1.23755293E+01
  1.23755293E+01 -2.47510585E+01  0.00000000E+00  1.23755293E+01  1.23755293E+01
 -2.47510585E+01  0.00000000E+00  1.23755293E+01  1.23755293E+01 -2.47510585E+01
  0.00000000E+00  1.23755293E+01  1.23755293E+01 -2.47510585E+01  0.00000000E+00
  1.23755293E+01  1.23755293E+01 -2.47510585E+01  0.00000000E+00  1.23755293E+01
  1.23755293E+01 -2.47510585E+01  0.00000000E+00  1.23755293E+01  1.23755293E+01
 -2.47510585E+01  0.00000000E+00  1.23755293E+01  1.23755293E+01 -2.47510585E+01
  0.00000000E+00  1.23755293E+01  1.23755293E+01 -2.47510585E+01  0.00000000E+00
  1.23755293E+01  1.23755293E+01 -2.47510585E+01  0.00000000E+00  1.23755293E+01
  1.23755293E+01 -2.47510585E+01  0.00000000E+00  1.23755293E+01  1.23755293E+01
 -2.47510585E+01  0.00000000E+00  1.23755293E+01  1.23755293E+01 -2.47510585E+01
  0.00000000E+00  1.23755293E+01  1.23755293E+01 -2.47510585E+01  0.00000000E+00
  1.23755293E+01  1.23755293E+01 -2.47510585E+01  0.00000000E+00  1.23755293E+01
  1.23755293E+01 -2.47510585E+01  0.00000000E+00  1.23755293E+01  1.23755293E+01
 -2.47510585E+01  0.00000000E+00  1.23755293E+01  1.23755293E+01 -2.47510585E+01
  0.00000000E+00  1.23755293E+01  1.23755293E+01 -2.47510585E+01  0.00000000E+00
  1.23755293E+01  1.23755293E+01 -2.47510585E+01  0.00000000E+00  1.23755293E+01
  1.23755293E+01 -2.47510585E+01  0.00000000E+00  1.23755293E+01  1.23755293E+01
 -2.47510585E+01  0.00000000E+00  1.23755293E+01  1.23755293E+01 -2.47510585E+01
  0.00000000E+00  1.23755293E+01  1.23755293E+01 -2.47510585E+01  0.00000000E+00
  1.23755293E+01  1.23755293E+01 -2.47510585E+01  0.00000000E+00  1.23755293E+01
  1.23755293E+01 -2.47510585E+01  0.00000000E+00  1.23755293E+01  1.23755293E+01
 -2.47510585E+01  0.00000000E+00  1.23755293E+01  1.23755293E+01 -2.47510585E+01
  0.00000000E+00  1.23755293E+01  1.23755293E+01 -2.47510585E+01  0.00000000E+00
  1.23755293E+01  1.23755293E+01 -2.47510585E+01  0.00000000E+00  1.23755293E+01
  1.23755293E+01 -2.47510585E+01  0.00000000E+00  1.23755293E+01  1.23755293E+01
 -2.47510585E+01  0.00000000E+00  1.23755293E+01  1.23755293E+01 -2.47510585E+01
  0.00000000E+00  1.23755293E+01  1.23755293E+01 -2.47510585E+01  0.00000000E+00
  1.23755293E+01  1.23755293E+01 -2.47510585E+01  0.00000000E+00  1.23755293E+01
  1.23755293E+01 -2.47510585E+01  0.00000000E+00  1.23755293E+01  1.23755293E+01
 -2.47510585E+01  0.00000000E+00  1.23755293E+01  1.23755293E+01 -2.47510585E+01
  0.00000000E+00  1.23755293E+01  1.23755293E+01 -2.47510585E+01  0.00000000E+00
  1.23755293E+01  1.23755293E+01 -2.47510585E+01  0.00000000E+00  1.23755293E+01
  1.23755293E+01 -2.47510585E+01  0.00000000E+00  1.23755293E+01  1.23755293E+01
 -2.47510585E+01  0.00000000E+00  1.23755293E+01  1.23755293E+01 -2.47510585E+01
  0.00000000E+00  1.23755293E+01  1.23755293E+01 -2.47510585E+01  0.00000000E+00
  1.23755293E+01  1.23755293E+01 -2.47510585E+01  0.00000000E+00  1.23755293E+01
  1.23755293E+01 -2.47510585E+01  0.00000000E+00  1.23755293E+01  1.23755293E+01
 -2.47510585E+01  0.00000000E+00  1.23755293E+01  1.23755293E+01 -2.47510585E+01
  0.00000000E+00  1.23755293E+01  1.23755293E+01 -2.47510585E+01  0.00000000E+00
  1.23755293E+01  1.23755293E+01 -2.47510585E+01  0.00000000E+00  1.23755293E+01
  1.23755293E+01 -2.47510585E+01  0.00000000E+00  1.23755293E+01  1.23755293E+01
 -2.47510585E+01  0.00000000E+00  1.23755293E+01  1.23755293E+01 -2.47510585E+01
  0.00000000E+00  1.23755293E+01  1.23755293E+01 -2.47510585E+01  0.00000000E+00
  1.23755293E+01  1.23755293E+01 -2.47510585E+01  0.00000000E+00  1.23755293E+01
  1.23755293E+01 -2.47510585E+01  0.00000000E+00  1.23755293E+01  1.23755293E+01
 -2.47510585E+01  0.00000000E+00  1.23755293E+01  1.23755293E+01 -2.47510585E+01
  0.00000000E+00  1.23755293E+01  1.23755293E+01 -2.47510585E+01  0.00000000E+00
  1.23755293E+01  1.23755293E+01 -2.47510585E+01  0.00000000E+00  1.23755293E+01
  1.23755293E+01 -2.47510585E+01  0.00000000E+00  1.23755293E+01  1.23755293E+01
 -2.47510585E+01  0.00000000E+00  1.23755293E+01  1.23755293E+01 -2.47510585E+01
  0.00000000E+00  1.23755293E+01  1.23755293E+01 -2.47510585E+01  0.00000000E+00
  1.23755293E+01  1.23755293E+01 -2.47510585E+01  0.00000000E+00  1.23755293E+01
  1.23755293E+01 -2.47510585E+01  0.00000000E+00  1.23755293E+01  1.23755293E+01
 -2.47510585E+01  0.00000000E+00  1.23755293E+01  1.23755293E+01 -2.47510585E+01
  0.00000000E+00  1.23755293E+01  1.23755293E+01 -2.47510585E+01  0.00000000E+00
  1.23755293E+01  1.23755293E+01 -2.47510585E+01  0.00000000E+00  1.23755293E+01
  1.23755293E+01 -2.47510585E+01  0.00000000E+00  1.23755293E+01  1.23755293E+01
 -2.47510585E+01  0.00000000E+00  1.23755293E+01  1.23755293E+01 -2.47510585E+01
  0.00000000E+00  1.23755293E+01  1.23755293E+01 -2.47510585E+01  0.00000000E+00
  1.23755293E+01  1.23755293E+01 -2.47510585E+01  0.00000000E+00  1.23755293E+01
  1.23755293E+01 -2.47510585E+01  0.00000000E+00  1.23755293E+01  1.23755293E+01
 -2.47510585E+01  0.00000000E+00  1.23755293E+01  1.23755293E+01 -2.47510585E+01
  0.00000000E+00  1.23755293E+01  1.23755293E+01 -2.47510585E+01  0.00000000E+00
  1.23755293E+01  1.23755293E+01 -2.47510585E+01  0.00000000E+00  1.23755293E+01
  1.23755293E+01 -2.47510585E+01  0.00000000E+00  1.23755293E+01  1.23755293E+01
 -2.47510585E+01  0.00000000E+00  1.23755293E+01  1.23755293E+01 -2.47510585E+01
  0.00000000E+00  1.23755293E+01  1.23755293E+01 -2.47510585E+01  0.00000000E+00
  1.23755293E+01  1.23755293E+01 -2.47510585E+01  0.00000000E+00  1.23755293E+01
  1.23755293E+01 -2.47510585E+01  0.00000000E+00  1.23755293E+01  1.23755293E+01
 -2.47510585E+01  0.00000000E+00  1.23755293E+01  1.23755293E+01 -2.47510585E+01
  0.00000000E+00  1.23755293E+01  1.23755293E+01 -2.47510585E+01  0.00000000E+00
  1.23755293E+01  1.23755293E+01 -2.47510585E+01  0.00000000E+00  1.23755293E+01
  1.23755293E+01 -2.47510585E+01  0.00000000E+00  1.23755293E+01  1.23755293E+01
 -2.47510585E+01  0.00000000E+00  1.23755293E+01  1.23755293E+01 -2.47510585E+01
  0.00000000E+00  1.23755293E+01  1.23755293E+01 -2.47510585E+01  0.00000000E+00
  1.23755293E+01  1.23755293E+01 -2.47510585E+01  0.00000000E+00  1.23755293E+01
  1.23755293E+01 -2.47510585E+01  0.00000000E+00  1.23755293E+01  1.23755293E+01
 -2.47510585E+01  0.00000000E+00  1.23755293E+01  1.23755293E+01 -2.47510585E+01
  0.00000000E+00  1.23755293E+01  1.23755293E+01 -2.47510585E+01  0.00000000E+00
  1.23755293E+01  1.23755293E+01 -2.47510585E+01  0.00000000E+00  1.23755293E+01
  1.23755293E+01 -2.47510585E+01  0.00000000E+00  1.23755293E+01  1.23755293E+01
 -2.47510585E+01  0.00000000E+00  1.23755293E+01  1.23755293E+01 -2.47510585E+01
  0.00000000E+00  1.23755293E+01  1.23755293E+01 -2.47510585E+01  0.00000000E+00
  1.23755293E+01  1.23755293E+01 -2.47510585E+01  0.00000000E+00  1.23755293E+01
  1.23755293E+01 -2.47510585E+01  0.00000000E+00  1.23755293E+01  1.23755293E+01
 -2.47510585E+01  0.00000000E+00  1.23755293E+01  1.23755293E+01 -2.47510585E+01
  0.00000000E+00  1.23755293E+01  1.23755293E+01 -2.47510585E+01  0.00000000E+00
  1.23755293E+01  1.23755293E+01 -2.47510585E+01  0.00000000E+00  1.23755293E+01
  1.23755293E+01 -2.47510585E+01  0.00000000E+00  1.23755293E+01  1.23755293E+01
 -2.47510585E+01  0.00000000E+00  1.23755293E+01  1.23755293E+01 -2.47510585E+01
  0.00000000E+00  1.23755293E+01  1.23755293E+01 -2.47510585E+01  0.00000000E+00
  1.23755293E+01  1.23755293E+01 -2.47510585E+01  0.00000000E+00  1.23755293E+01
  1.23755293E+01 -2.47510585E+01  0.00000000E+00  1.23755293E+01  1.23755293E+01
 -2.47510585E+01  0.00000000E+00  1.23755293E+01  1.23755293E+01 -2.47510585E+01
  0.00000000E+00  1.23755293E+01  1.23755293E+01 -2.47510585E+01  0.00000000E+00
  1.23755293E+01  1.23755293E+01 -2.47510585E+01  0.00000000E+00  1.23755293E+01
  1.23755293E+01 -2.47510585E+01  0.00000000E+00  1.23755293E+01  1.23755293E+01
 -2.47510585E+01  0.00000000E+00  1.23755293E+01  1.23755293E+01 -2.47510585E+01
  0.00000000E+00  1.23755293E+01  1.23755293E+01 -2.47510585E+01  0.00000000E+00
  1.23755293E+01  1.23755293E+01 -2.47510585E+01  0.00000000E+00  1.23755293E+01
  1.23755293E+01 -2.47510585E+01  0.00000000E+00  1.23755293E+01  1.23755293E+01
 -2.47510585E+01  0.00000000E+00  1.23755293E+01  1.23755293E+01 -2.47510585E+01
  0.00000000E+00  1.23755293E+01  1.23755293E+01 -2.47510585E+01  0.00000000E+00
  1.23755293E+01  1.23755293E+01 -2.47510585E+01  0.00000000E+00  1.23755293E+01
  1.23755293E+01 -2.47510585E+01  0.00000000E+00  1.23755293E+01  1.23755293E+01
 -2.47510585E+01  0.00000000E+00  1.23755293E+01  1.23755293E+01 -2.47510585E+01
  0.00000000E+00  1.23755293E+01  1.23755293E+01 -2.47510585E+01  0.00000000E+00
  1.23755293E+01  1.23755293E+01 -2.47510585E+01  0.00000000E+00  1.23755293E+01
  1.23755293E+01 -2.47510585E+01  0.00000000E+00  1.23755293E+01  1.23755293E+01
 -2.47510585E+01  0.00000000E+00  1.23755293E+01  1.23755293E+01 -2.47510585E+01
  0.00000000E+00  1.23755293E+01  1.23755293E+01 -2.47510585E+01  0.00000000E+00
  1.23755293E+01  1.23755293E+01 -2.47510585E+01  0.00000000E+00  1.23755293E+01
  1.23755293E+01 -2.47510585E+01  0.00000000E+00  1.23755293E+01  1.23755293E+01
 -2.47510585E+01  0.00000000E+00  1.23755293E+01  1.23755293E+01 -2.47510585E+01
  0.00000000E+00  1.23755293E+01  1.23755293E+01 -2.47510585E+01  0.00000000E+00
  1.23755293E+01  1.23755293E+01 -2.47510585E+01  0.00000000E+00  1.23755293E+01
  1.23755293E+01 -2.47510585E+01  0.00000000E+00  1.23755293E+01  1.23755293E+01
 -2.47510585E+01  0.00000000E+00  1.23755293E+01  1.23755293E+01 -2.47510585E+01
  0.00000000E+00  1.23755293E+01  1.23755293E+01 -2.47510585E+01  0.00000000E+00
  1.23755293E+01  1.23755293E+01 -2.47510585E+01  0.00000000E+00  1.23755293E+01
  1.23755293E+01 -2.47510585E+01  0.00000000E+00  1.23755293E+01  1.23755293E+01
 -2.47510585E+01  0.00000000E+00  1.23755293E+01  1.23755293E+01 -2.47510585E+01
  0.00000000E+00  1.23755293E+01  1.23755293E+01 -2.47510585E+01  0.00000000E+00
  1.23755293E+01  1.23755293E+01 -2.47510585E+01  0.00000000E+00  1.23755293E+01
  1.23755293E+01 -2.47510585E+01  0.00000000E+00  1.23755293E+01  1.23755293E+01
 -2.47510585E+01  0.00000000E+00  1.23755293E+01  1.23755293E+01 -2.47510585E+01
  0.00000000E+00  1.23755293E+01  1.23755293E+01 -2.47510585E+01  0.00000000E+00
  1.23755293E+01  1.23755293E+01 -2.47510585E+01  0.00000000E+00  1.23755293E+01
  1.23755293E+01 -2.47510585E+01  0.00000000E+00  1.23755293E+01  1.23755293E+01
 -2.47510585E+01  0.00000000E+00  1.23755293E+01  1.23755293E+01 -2.47510585E+01
  0.00000000E+00  1.23755293E+01  1.23755293E+01 -2.47510585E+01  0.00000000E+00
  1.23755293E+01  1.23755293E+01 -2.47510585E+01  0.00000000E+00  1.23755293E+01
  1.23755293E+01 -2.47510585E+01  0.00000000E+00  1.23755293E+01  1.23755293E+01
 -2.47510585E+01  0.00000000E+00  1.23755293E+01  1.23755293E+01 -2.47510585E+01
  0.00000000E+00  1.23755293E+01  1.23755293E+01 -2.47510585E+01  0.00000000E+00
  1.23755293E+01  1.23755293E+01 -2.47510585E+01  0.00000000E+00  1.23755293E+01
  1.23755293E+01 -2.47510585E+01  0.00000000E+00  1.23755293E+01  1.23755293E+01
 -2.47510585E+01  0.00000000E+00  1.23755293E+01  1.23755293E+01 -2.47510585E+01
  0.00000000E+00  1.23755293E+01  1.23755293E+01 -2.47510585E+01  0.00000000E+00
  1.23755293E+01  1.23755293E+01 -2.47510585E+01  0.00000000E+00  1.23755293E+01
  1.23755293E+01 -2.47510585E+01  0.00000000E+00  1.23755293E+01  1.23755293E+01
 -2.47510585E+01  0.00000000E+00  1.23755293E+01  1.23755293E+01 -2.47510585E+01
  0.00000000E+00  1.23755293E+01  1.23755293E+01 -2.47510585E+01  0.00000000E+00
  1.23755293E+01  1.23755293E+01 -2.47510585E+01  0.00000000E+00  1.23755293E+01
  1.23755293E+01 -2.47510585E+01  0.00000000E+00  1.23755293E+01  1.23755293E+01
 -2.47510585E+01  0.00000000E+00  1.23755293E+01  1.23755293E+01 -2.47510585E+01
  0.00000000E+00  1.23755293E+01  1.23755293E+01 -2.47510585E+01  0.00000000E+00
  1.23755293E+01  1.23755293E+01 -2.47510585E+01  0.00000000E+00  1.23755293E+01
  1.23755293E+01 -2.47510585E+01  0.00000000E+00  1.23755293E+01  1.23755293E+01
 -2.47510585E+01  0.00000000E+00  1.23755293E+01  1.23755293E+01 -2.47510585E+01
  0.00000000E+00  1.23755293E+01  1.23755293E+01 -2.47510585E+01  0.00000000E+00
  1.23755293E+01  1.23755293E+01 -2.47510585E+01  0.00000000E+00  1.23755293E+01
  1.23755293E+01 -2.47510585E+01  0.00000000E+00  1.23755293E+01  1.23755293E+01
 -2.47510585E+01  0.00000000E+00  1.23755293E+01  1.23755293E+01 -2.47510585E+01
  0.00000000E+00  1.23755293E+01  1.23755293E+01 -2.47510585E+01  0.00000000E+00
  1.23755293E+01  1.23755293E+01 -2.47510585E+01  0.00000000E+00  1.23755293E+01
  1.23755293E+01 -2.47510585E+01  0.00000000E+00  1.23755293E+01  1.23755293E+01
 -2.47510585E+01  0.00000000E+00  1.23755293E+01  1.23755293E+01 -2.47510585E+01
  0.00000000E+00  1.23755293E+01  1.23755293E+01 -2.47510585E+01  0.00000000E+00
  1.23755293E+01  1.23755293E+01 -2.47510585E+01  0.00000000E+00  1.23755293E+01
  1.23755293E+01 -2.47510585E+01  0.00000000E+00  1.23755293E+01  1.23755293E+01
 -2.47510585E+01  0.00000000E+00  1.23755293E+01  1.23755293E+01 -2.47510585E+01
  0.00000000E+00  1.23755293E+01  1.23755293E+01 -2.47510585E+01  0.00000000E+00
  1.23755293E+01  1.23755293E+01 -2.47510585E+01  0.00000000E+00  1.23755293E+01
  1.23755293E+01 -2.47510585E+01  0.00000000E+00  1.23755293E+01  1.23755293E+01
 -2.47510585E+01  0.00000000E+00  1.23755293E+01  1.23755293E+01 -2.47510585E+01
  0.00000000E+00  1.23755293E+01  1.23755293E+01 -2.47510585E+01  0.00000000E+00
  1.23755293E+01  1.23755293E+01 -2.47510585E+01  0.00000000E+00  1.23755293E+01
  1.23755293E+01 -2.47510585E+01  0.00000000E+00  1.23755293E+01  1.23755293E+01
 -2.47510585E+01  0.00000000E+00  1.23755293E+01  1.23755293E+01 -2.47510585E+01
  0.00000000E+00  1.23755293E+01  1.23755293E+01 -2.47510585E+01  0.00000000E+00
  1.23755293E+01  1.23755293E+01 -2.47510585E+01  0.00000000E+00  1.23755293E+01
  1.23755293E+01 -2.47510585E+01  0.00000000E+00  1.23755293E+01  1.23755293E+01
 -2.47510585E+01  0.00000000E+00  1.23755293E+01  1.23755293E+01 -2.47510585E+01
  0.00000000E+00  1.23755293E+01  1.23755293E+01 -2.47510585E+01  0.00000000E+00
  1.23755293E+01  1.23755293E+01 -2.47510585E+01  0.00000000E+00  1.23755293E+01
  1.23755293E+01 -2.47510585E+01  0.00000000E+00  1.23755293E+01  1.23755293E+01
 -2.47510585E+01  0.00000000E+00  1.23755293E+01  1.23755293E+01 -2.47510585E+01
  0.00000000E+00  1.23755293E+01  1.23755293E+01 -2.47510585E+01  0.00000000E+00
  1.23755293E+01  1.23755293E+01 -2.47510585E+01  0.00000000E+00  1.23755293E+01
  1.23755293E+01 -2.47510585E+01  0.00000000E+00  1.23755293E+01  1.23755293E+01
 -2.47510585E+01  0.00000000E+00  1.23755293E+01  1.23755293E+01 -2.47510585E+01
  0.00000000E+00  1.23755293E+01  1.23755293E+01 -2.47510585E+01  0.00000000E+00
  1.23755293E+01  1.23755293E+01 -2.47510585E+01  0.00000000E+00  1.23755293E+01
  1.23755293E+01 -2.47510585E+01  0.00000000E+00  1.23755293E+01  1.23755293E+01
 -2.47510585E+01  0.00000000E+00  1.23755293E+01  1.23755293E+01 -2.47510585E+01
  0.00000000E+00  1.23755293E+01  1.23755293E+01 -2.47510585E+01  0.00000000E+00
  1.23755293E+01  1.23755293E+01 -2.47510585E+01  0.00000000E+00  1.23755293E+01
  1.23755293E+01 -2.47510585E+01  0.00000000E+00  1.23755293E+01  1.23755293E+01
 -2.47510585E+01  0.00000000E+00  1.23755293E+01  1.23755293E+01 -2.47510585E+01
  0.00000000E+00  1.23755293E+01  1.23755293E+01 -2.47510585E+01  0.00000000E+00
  1.23755293E+01  1.23755293E+01 -2.47510585E+01  0.00000000E+00  1.23755293E+01
  1.23755293E+01 -2.47510585E+01  0.00000000E+00  1.23755293E+01  1.23755293E+01
 -2.47510585E+01  0.00000000E+00  1.23755293E+01  1.23755293E+01 -2.47510585E+01
  0.00000000E+00  1.23755293E+01  1.23755293E+01 -2.47510585E+01  0.00000000E+00
  1.23755293E+01  1.23755293E+01 -2.47510585E+01  0.00000000E+00  1.23755293E+01
  1.23755293E+01 -2.47510585E+01  0.00000000E+00  1.23755293E+01  1.23755293E+01
 -2.47510585E+01  0.00000000E+00  1.23755293E+01  1.23755293E+01 -2.47510585E+01
  0.00000000E+00  1.23755293E+01  1.23755293E+01 -2.47510585E+01  0.00000000E+00
  1.23755293E+01  1.23755293E+01 -2.47510585E+01  0.00000000E+00  1.23755293E+01
  1.23755293E+01 -2.47510585E+01  0.00000000E+00  1.23755293E+01  1.23755293E+01
 -2.47510585E+01  0.00000000E+00  1.23755293E+01  1.23755293E+01 -2.47510585E+01
  0.00000000E+00  1.23755293E+01  1.23755293E+01 -2.47510585E+01  0.00000000E+00
  1.23755293E+01  1.23755293E+01 -2.47510585E+01  0.00000000E+00  1.23755293E+01
  1.23755293E+01 -2.47510585E+01  0.00000000E+00  1.23755293E+01  1.23755293E+01
 -2.47510585E+01  0.00000000E+00  1.23755293E+01  1.23755293E+01 -2.47510585E+01
  0.00000000E+00  1.23755293E+01  1.23755293E+01 -2.47510585E+01  0.00000000E+00
  1.23755293E+01  1.23755293E+01 -2.47510585E+01  0.00000000E+00  1.23755293E+01
  1.23755293E+01 -2.47510585E+01  0.00000000E+00  1.23755293E+01  1.23755293E+01
 -2.47510585E+01  0.00000000E+00  1.23755293E+01  1.23755293E+01 -2.47510585E+01
  0.00000000E+00  1.23755293E+01  1.23755293E+01 -2.47510585E+01  0.00000000E+00
  1.23755293E+01  1.23755293E+01 -2.47510585E+01  0.00000000E+00  1.23755293E+01
  1.23755293E+01 -2.47510585E+01  0.00000000E+00  1.23755293E+01  1.23755293E+01
 -2.47510585E+01  0.00000000E+00  1.23755293E+01  1.23755293E+01 -2.47510585E+01
  0.00000000E+00  1.23755293E+01  1.23755293E+01 -2.47510585E+01  0.00000000E+00
  1.23755293E+01  1.23755293E+01 -2.47510585E+01  0.00000000E+00  1.23755293E+01
  1.23755293E+01 -2.47510585E+01  0.00000000E+00  1.23755293E+01  1.23755293E+01
 -2.47510585E+01  0.00000000E+00  1.23755293E+01  1.23755293E+01 -2.47510585E+01
  0.00000000E+00  1.23755293E+01  1.23755293E+01 -2.47510585E+01  0.00000000E+00
  1.23755293E+01  1.23755293E+01 -2.47510585E+01  0.00000000E+00  1.23755293E+01
  1.23755293E+01 -2.47510585E+01  0.00000000E+00  1.23755293E+01  1.23755293E+01
 -2.47510585E+01  0.00000000E+00  1.23755293E+01  1.23755293E+01 -2.47510585E+01
  0.00000000E+00  1.23755293E+01  1.23755293E+01 -2.47510585E+01  0.00000000E+00
  1.23755293E+01  1.23755293E+01 -2.47510585E+01  0.00000000E+00  1.23755293E+01
  1.23755293E+01 -2.47510585E+01  0.00000000E+00  1.23755293E+01  1.23755293E+01
 -2.47510585E+01  0.00000000E+00  1.23755293E+01  1.23755293E+01 -2.47510585E+01
  0.00000000E+00  1.23755293E+01  1.23755293E+01 -2.47510585E+01  0.00000000E+00
  1.23755293E+01  1.23755293E+01 -2.47510585E+01  0.00000000E+00  1.23755293E+01
  1.23755293E+01 -2.47510585E+01  0.00000000E+00  1.23755293E+01  1.23755293E+01
 -2.47510585E+01  0.00000000E+00  1.23755293E+01  1.23755293E+01 -2.47510585E+01
  0.00000000E+00  1.23755293E+01  1.23755293E+01 -2.47510585E+01  0.00000000E+00
  1.23755293E+01  1.23755293E+01 -2.47510585E+01  0.00000000E+00  1.23755293E+01
  1.23755293E+01 -2.47510585E+01  0.00000000E+00  1.23755293E+01  1.23755293E+01
 -2.47510585E+01  0.00000000E+00  1.23755293E+01  1.23755293E+01 -2.47510585E+01
  0.00000000E+00  1.23755293E+01  1.23755293E+01 -2.47510585E+01  0.00000000E+00
  1.23755293E+01  1.23755293E+01 -2.47510585E+01  0.00000000E+00  1.23755293E+01
  1.23755293E+01 -2.47510585E+01  0.00000000E+00  1.23755293E+01  1.23755293E+01
 -2.47510585E+01  0.00000000E+00  1.23755293E+01  1.23755293E+01 -2.47510585E+01
  0.00000000E+00  1.23755293E+01  1.23755293E+01 -2.47510585E+01  0.00000000E+00
  1.23755293E+01  1.23755293E+01 -2.47510585E+01  0.00000000E+00  1.23755293E+01
  1.23755293E+01 -2.47510585E+01  0.00000000E+00  1.23755293E+01  1.23755293E+01
 -2.47510585E+01  0.00000000E+00  1.23755293E+01  1.23755293E+01 -2.47510585E+01
  0.00000000E+00  1.23755293E+01  1.23755293E+01 -2.47510585E+01  0.00000000E+00
  1.23755293E+01  1.23755293E+01 -2.47510585E+01  0.00000000E+00  1.23755293E+01
  1.23755293E+01 -2.47510585E+01  0.00000000E+00  1.23755293E+01  1.23755293E+01
 -2.47510585E+01  0.00000000E+00  1.23755293E+01  1.23755293E+01 -2.47510585E+01
  0.00000000E+00  1.23755293E+01  1.23755293E+01 -2.47510585E+01  0.00000000E+00
  1.23755293E+01  1.23755293E+01 -2.47510585E+01  0.00000000E+00  1.23755293E+01
  1.23755293E+01 -2.47510585E+01  0.00000000E+00  1.23755293E+01  1.23755293E+01
 -2.47510585E+01  0.00000000E+00  1.23755293E+01  1.23755293E+01 -2.47510585E+01
  0.00000000E+00  1.23755293E+01  1.23755293E+01 -2.47510585E+01  0.00000000E+00
  1.23755293E+01  1.23755293E+01 -2.47510585E+01  0.00000000E+00  1.23755293E+01
  1.23755293E+01 -2.47510585E+01  0.00000000E+00  1.23755293E+01  1.23755293E+01
 -2.47510585E+01  0.00000000E+00  1.23755293E+01  1.23755293E+01 -2.47510585E+01
  0.00000000E+00  1.23755293E+01  1.23755293E+01 -2.47510585E+01  0.00000000E+00
  1.23755293E+01  1.23755293E+01 -2.47510585E+01  0.00000000E+00  1.23755293E+01
  1.23755293E+01 -2.47510585E+01  0.00000000E+00  1.23755293E+01  1.23755293E+01
 -2.47510585E+01  0.00000000E+00  1.23755293E+01  1.23755293E+01 -2.47510585E+01
  0.00000000E+00  1.23755293E+01  1.23755293E+01 -2.47510585E+01  0.00000000E+00
  1.23755293E+01  1.23755293E+01 -2.47510585E+01  0.00000000E+00  1.23755293E+01
  1.23755293E+01 -2.47510585E+01  0.00000000E+00  1.23755293E+01  1.23755293E+01
 -2.47510585E+01  0.00000000E+00  1.23755293E+01  1.23755293E+01 -2.47510585E+01
  0.00000000E+00  1.23755293E+01  1.23755293E+01 -2.47510585E+01  0.00000000E+00
  1.23755293E+01  1.23755293E+01 -2.47510585E+01  0.00000000E+00  1.23755293E+01
  1.23755293E+01 -2.47510585E+01  0.00000000E+00  1.23755293E+01  1.23755293E+01
 -2.47510585E+01  0.00000000E+00  1.23755293E+01  1.23755293E+01 -2.47510585E+01
  0.00000000E+00  1.23755293E+01  1.23755293E+01 -2.47510585E+01  0.00000000E+00
  1.23755293E+01  1.23755293E+01 -2.47510585E+01  0.00000000E+00  1.23755293E+01
  1.23755293E+01 -2.47510585E+01  0.00000000E+00  1.23755293E+01  1.23755293E+01
 -2.47510585E+01  0.00000000E+00  1.23755293E+01  1.23755293E+01 -2.47510585E+01
  0.00000000E+00  1.23755293E+01  1.23755293E+01 -2.47510585E+01  0.00000000E+00
  1.23755293E+01  1.23755293E+01 -2.47510585E+01  0.00000000E+00  1.23755293E+01
  1.23755293E+01 -2.47510585E+01  0.00000000E+00  1.23755293E+01  1.23755293E+01
 -2.47510585E+01  0.00000000E+00  1.23755293E+01  1.23755293E+01 -2.47510585E+01
  0.00000000E+00  1.23755293E+01  1.23755293E+01 -2.47510585E+01  0.00000000E+00
  1.23755293E+01  1.23755293E+01 -2.47510585E+01  0.00000000E+00  1.23755293E+01
  1.23755293E+01 -2.47510585E+01  0.00000000E+00  1.23755293E+01  1.23755293E+01
 -2.47510585E+01  0.00000000E+00  1.23755293E+01  1.23755293E+01 -2.47510585E+01
  0.00000000E+00  1.23755293E+01  1.23755293E+01 -2.47510585E+01  0.00000000E+00
  1.23755293E+01  1.23755293E+01 -2.47510585E+01  0.00000000E+00  1.23755293E+01
  1.23755293E+01 -2.47510585E+01  0.00000000E+00  1.23755293E+01  1.23755293E+01
 -2.47510585E+01  0.00000000E+00  1.23755293E+01  1.23755293E+01 -2.47510585E+01
  0.00000000E+00  1.23755293E+01  1.23755293E+01 -2.47510585E+01  0.00000000E+00
  1.23755293E+01  1.23755293E+01 -2.47510585E+01  0.00000000E+00  1.23755293E+01
  1.23755293E+01 -2.47510585E+01  0.00000000E+00  1.23755293E+01  1.23755293E+01
 -2.47510585E+01  0.00000000E+00  1.23755293E+01  1.23755293E+01 -2.47510585E+01
  0.00000000E+00  1.23755293E+01  1.23755293E+01 -2.47510585E+01  0.00000000E+00
  1.23755293E+01  1.23755293E+01 -2.47510585E+01  0.00000000E+00  1.23755293E+01
  1.23755293E+01 -2.47510585E+01  0.00000000E+00  1.23755293E+01  1.23755293E+01
 -2.47510585E+01  0.00000000E+00  1.23755293E+01  1.23755293E+01 -2.47510585E+01
  0.00000000E+00  1.23755293E+01  1.23755293E+01 -2.47510585E+01  0.00000000E+00
  1.23755293E+01  1.23755293E+01 -2.47510585E+01  0.00000000E+00  1.23755293E+01
  1.23755293E+01 -2.47510585E+01  0.00000000E+00  1.23755293E+01  1.23755293E+01
 -2.47510585E+01  0.00000000E+00  1.23755293E+01  1.23755293E+01 -2.47510585E+01
  0.00000000E+00  1.23755293E+01  1.23755293E+01 -2.47510585E+01  0.00000000E+00
  1.23755293E+01  1.23755293E+01 -2.47510585E+01  0.00000000E+00  1.23755293E+01
  1.23755293E+01 -2.47510585E+01  0.00000000E+00  1.23755293E+01  1.23755293E+01
 -2.47510585E+01  0.00000000E+00  1.23755293E+01  1.23755293E+01 -2.47510585E+01
  0.00000000E+00  1.23755293E+01  1.23755293E+01 -2.47510585E+01  0.00000000E+00
  1.23755293E+01  1.23755293E+01 -2.47510585E+01  0.00000000E+00  1.23755293E+01
  1.23755293E+01 -2.47510585E+01  0.00000000E+00  1.23755293E+01  1.23755293E+01
 -2.47510585E+01  0.00000000E+00  1.23755293E+01  1.23755293E+01 -2.47510585E+01
  0.00000000E+00  1.23755293E+01  1.23755293E+01 -2.47510585E+01  0.00000000E+00
  1.23755293E+01  1.23755293E+01 -2.47510585E+01  0.00000000E+00  1.23755293E+01
  1.23755293E+01 -2.47510585E+01  0.00000000E+00  1.23755293E+01  1.23755293E+01
 -2.47510585E+01  0.00000000E+00  1.23755293E+01  1.23755293E+01 -2.47510585E+01
  0.00000000E+00  1.23755293E+01  1.23755293E+01 -2.47510585E+01  0.00000000E+00
  1.23755293E+01  1.23755293E+01 -2.47510585E+01  0.00000000E+00  1.23755293E+01
  1.23755293E+01 -2.47510585E+01  0.00000000E+00  1.23755293E+01  1.23755293E+01
 -2.47510585E+01  0.00000000E+00  1.23755293E+01  1.23755293E+01 -2.47510585E+01
  0.00000000E+00  1.23755293E+01  1.23755293E+01 -2.47510585E+01  0.00000000E+00
  1.23755293E+01  1.23755293E+01 -2.47510585E+01  0.00000000E+00  1.23755293E+01
  1.23755293E+01 -2.47510585E+01  0.00000000E+00  1.23755293E+01  1.23755293E+01
 -2.47510585E+01  0.00000000E+00  1.23755293E+01  1.23755293E+01 -2.47510585E+01
  0.00000000E+00  1.23755293E+01  1.23755293E+01 -2.47510585E+01  0.00000000E+00
  1.23755293E+01  1.23755293E+01 -2.47510585E+01  0.00000000E+00  1.23755293E+01
  1.23755293E+01 -2.47510585E+01  0.00000000E+00  1.23755293E+01  1.23755293E+01
 -2.47510585E+01  0.00000000E+00  1.23755293E+01  1.23755293E+01 -2.47510585E+01
  0.00000000E+00  1.23755293E+01  1.23755293E+01 -2.47510585E+01  0.00000000E+00
  1.23755293E+01  1.23755293E+01 -2.47510585E+01  0.00000000E+00  1.23755293E+01
  1.23755293E+01 -2.47510585E+01  0.00000000E+00  1.23755293E+01  1.23755293E+01
 -2.47510585E+01  0.00000000E+00  1.23755293E+01  1.23755293E+01 -2.47510585E+01
  0.00000000E+00  1.23755293E+01  1.23755293E+01 -2.47510585E+01  0.00000000E+00
  1.23755293E+01  1.23755293E+01 -2.47510585E+01  0.00000000E+00  1.23755293E+01
  1.23755293E+01 -2.47510585E+01  0.00000000E+00  1.23755293E+01  1.23755293E+01
 -2.47510585E+01  0.00000000E+00  1.23755293E+01  1.23755293E+01 -2.47510585E+01
  0.00000000E+00  1.23755293E+01  1.23755293E+01 -2.47510585E+01  0.00000000E+00
  1.23755293E+01  1.23755293E+01 -2.47510585E+01  0.00000000E+00  1.23755293E+01
  1.23755293E+01 -2.47510585E+01  0.00000000E+00  1.23755293E+01  1.23755293E+01
 -2.47510585E+01  0.00000000E+00  1.23755293E+01  1.23755293E+01 -2.47510585E+01
  0.00000000E+00  1.23755293E+01  1.23755293E+01 -2.47510585E+01  0.00000000E+00
  1.23755293E+01  1.23755293E+01 -2.47510585E+01  0.00000000E+00  1.23755293E+01
  1.23755293E+01 -2.47510585E+01  0.00000000E+00  1.23755293E+01  1.23755293E+01
 -2.47510585E+01  0.00000000E+00  1.23755293E+01  1.23755293E+01 -2.47510585E+01
  0.00000000E+00  1.23755293E+01  1.23755293E+01 -2.47510585E+01  0.00000000E+00
  1.23755293E+01  1.23755293E+01 -2.47510585E+01  0.00000000E+00  1.23755293E+01
  1.23755293E+01 -2.47510585E+01  0.00000000E+00  1.23755293E+01  1.23755293E+01
 -2.47510585E+01  0.00000000E+00  1.23755293E+01  1.23755293E+01 -2.47510585E+01
  0.00000000E+00  1.23755293E+01  1.23755293E+01 -2.47510585E+01  0.00000000E+00
  1.23755293E+01  1.23755293E+01 -2.47510585E+01  0.00000000E+00  1.23755293E+01
  1.23755293E+01 -2.47510585E+01  0.00000000E+00  1.23755293E+01  1.23755293E+01
 -2.47510585E+01  0.00000000E+00  1.23755293E+01  1.23755293E+01 -2.47510585E+01
  0.00000000E+00  1.23755293E+01  1.23755293E+01 -2.47510585E+01  0.00000000E+00
  1.23755293E+01  1.23755293E+01 -2.47510585E+01  0.00000000E+00  1.23755293E+01
  1.23755293E+01 -2.47510585E+01  0.00000000E+00  1.23755293E+01  1.23755293E+01
 -2.47510585E+01  0.00000000E+00  1.23755293E+01  1.23755293E+01 -2.47510585E+01
  0.00000000E+00  1.23755293E+01  1.23755293E+01 -2.47510585E+01  0.00000000E+00
  1.23755293E+01  1.23755293E+01 -2.47510585E+01  0.00000000E+00  1.23755293E+01
  1.23755293E+01 -2.47510585E+01  0.00000000E+00  1.23755293E+01  1.23755293E+01
 -2.47510585E+01  0.00000000E+00  1.23755293E+01  1.23755293E+01 -2.47510585E+01
  0.00000000E+00  1.23755293E+01  1.23755293E+01 -2.47510585E+01  0.00000000E+00
  1.23755293E+01  1.23755293E+01 -2.47510585E+01  0.00000000E+00  1.23755293E+01
  1.23755293E+01 -2.47510585E+01  0.00000000E+00  1.23755293E+01  1.23755293E+01
 -2.47510585E+01  0.00000000E+00  1.23755293E+01  1.23755293E+01 -2.47510585E+01
  0.00000000E+00  1.23755293E+01  1.23755293E+01 -2.47510585E+01  0.00000000E+00
  1.23755293E+01  1.23755293E+01 -2.47510585E+01  0.00000000E+00  1.23755293E+01
  1.23755293E+01 -2.47510585E+01  0.00000000E+00  1.23755293E+01  1.23755293E+01
 -2.47510585E+01  0.00000000E+00  1.23755293E+01  1.23755293E+01 -2.47510585E+01
  0.00000000E+00  1.23755293E+01  1.23755293E+01 -2.47510585E+01  0.00000000E+00
  1.23755293E+01  1.23755293E+01 -2.47510585E+01  0.00000000E+00  1.23755293E+01
  1.23755293E+01 -2.47510585E+01  0.00000000E+00  1.23755293E+01  1.23755293E+01
 -2.47510585E+01  0.00000000E+00  1.23755293E+01  1.23755293E+01 -2.47510585E+01
  0.00000000E+00  1.23755293E+01  1.23755293E+01 -2.47510585E+01  0.00000000E+00
  1.23755293E+01  1.23755293E+01 -2.47510585E+01  0.00000000E+00  1.23755293E+01
  1.23755293E+01 -2.47510585E+01  0.00000000E+00  1.23755293E+01  1.23755293E+01
 -2.47510585E+01  0.00000000E+00  1.23755293E+01  1.23755293E+01 -2.47510585E+01
  0.00000000E+00  1.23755293E+01  1.23755293E+01 -2.47510585E+01  0.00000000E+00
  1.23755293E+01  1.23755293E+01 -2.47510585E+01  0.00000000E+00  1.23755293E+01
  1.23755293E+01 -2.47510585E+01  0.00000000E+00  1.23755293E+01  1.23755293E+01
 -2.47510585E+01  0.00000000E+00  1.23755293E+01  1.23755293E+01 -2.47510585E+01
  0.00000000E+00  1.23755293E+01  1.23755293E+01 -2.47510585E+01  0.00000000E+00
  1.23755293E+01  1.23755293E+01 -2.47510585E+01  0.00000000E+00  1.23755293E+01
  1.23755293E+01 -2.47510585E+01  0.00000000E+00  1.23755293E+01  1.23755293E+01
 -2.47510585E+01  0.00000000E+00  1.23755293E+01  1.23755293E+01 -2.47510585E+01
  0.00000000E+00  1.23755293E+01  1.23755293E+01 -2.47510585E+01  0.00000000E+00
  1.23755293E+01  1.23755293E+01 -2.47510585E+01  0.00000000E+00  1.23755293E+01
  1.23755293E+01 -2.47510585E+01  0.00000000E+00  1.23755293E+01  1.23755293E+01
 -2.47510585E+01  0.00000000E+00  1.23755293E+01  1.23755293E+01 -2.47510585E+01
  0.00000000E+00  1.23755293E+01  1.23755293E+01 -2.47510585E+01  0.00000000E+00
  1.23755293E+01  1.23755293E+01 -2.47510585E+01  0.00000000E+00  1.23755293E+01
  1.23755293E+01 -2.47510585E+01  0.00000000E+00  1.23755293E+01  1.23755293E+01
 -2.47510585E+01  0.00000000E+00  1.23755293E+01  1.23755293E+01 -2.47510585E+01
  0.00000000E+00  1.23755293E+01  1.23755293E+01 -2.47510585E+01  0.00000000E+00
  1.23755293E+01  1.23755293E+01 -2.47510585E+01  0.00000000E+00  1.23755293E+01
  1.23755293E+01 -2.47510585E+01  0.00000000E+00  1.23755293E+01  1.23755293E+01
 -2.47510585E+01  0.00000000E+00  1.23755293E+01  1.23755293E+01 -2.47510585E+01
  0.00000000E+00  1.23755293E+01  1.23755293E+01 -2.47510585E+01  0.00000000E+00
  1.23755293E+01  1.23755293E+01 -2.47510585E+01  0.00000000E+00  1.23755293E+01
  1.23755293E+01 -2.47510585E+01  0.00000000E+00  1.23755293E+01  1.23755293E+01
 -2.47510585E+01  0.00000000E+00  1.23755293E+01  1.23755293E+01 -2.47510585E+01
  0.00000000E+00  1.23755293E+01  1.23755293E+01 -2.47510585E+01  0.00000000E+00
  1.23755293E+01  1.23755293E+01 -2.47510585E+01  0.00000000E+00  1.23755293E+01
  1.23755293E+01 -2.47510585E+01  0.00000000E+00  1.23755293E+01  1.23755293E+01
 -2.47510585E+01  0.00000000E+00  1.23755293E+01  1.23755293E+01 -2.47510585E+01
  0.00000000E+00  1.23755293E+01  1.23755293E+01 -2.47510585E+01  0.00000000E+00
  1.23755293E+01  1.23755293E+01 -2.47510585E+01  0.00000000E+00  1.23755293E+01
  1.23755293E+01 -2.47510585E+01  0.00000000E+00  1.23755293E+01  1.23755293E+01
 -2.47510585E+01  0.00000000E+00  1.23755293E+01  1.23755293E+01 -2.47510585E+01
  0.00000000E+00  1.23755293E+01  1.23755293E+01 -2.47510585E+01  0.00000000E+00
  1.23755293E+01  1.23755293E+01 -2.47510585E+01  0.00000000E+00  1.23755293E+01
  1.23755293E+01 -2.47510585E+01  0.00000000E+00  1.23755293E+01  1.23755293E+01
 -2.47510585E+01  0.00000000E+00  1.23755293E+01  1.23755293E+01 -2.47510585E+01
  0.00000000E+00  1.23755293E+01  1.23755293E+01 -2.47510585E+01  0.00000000E+00
  1.23755293E+01  1.23755293E+01 -2.47510585E+01  0.00000000E+00  1.23755293E+01
  1.23755293E+01 -2.47510585E+01  0.00000000E+00  1.23755293E+01  1.23755293E+01
 -2.47510585E+01  0.00000000E+00  1.23755293E+01  1.23755293E+01 -2.47510585E+01
  0.00000000E+00  1.23755293E+01  1.23755293E+01 -2.47510585E+01  0.00000000E+00
  1.23755293E+01  1.23755293E+01 -2.47510585E+01  0.00000000E+00  1.23755293E+01
  1.23755293E+01 -2.47510585E+01  0.00000000E+00  1.23755293E+01  1.23755293E+01
 -2.47510585E+01  0.00000000E+00  1.23755293E+01  1.23755293E+01 -2.47510585E+01
  0.00000000E+00  1.23755293E+01  1.23755293E+01 -2.47510585E+01  0.00000000E+00
  1.23755293E+01  1.23755293E+01 -2.47510585E+01  0.00000000E+00  1.23755293E+01
  1.23755293E+01 -2.47510585E+01  0.00000000E+00  1.23755293E+01  1.23755293E+01
 -2.47510585E+01  0.00000000E+00  1.23755293E+01  1.23755293E+01 -2.47510585E+01
  0.00000000E+00  1.23755293E+01  1.23755293E+01 -2.47510585E+01  0.00000000E+00
  1.23755293E+01  1.23755293E+01 -2.47510585E+01  0.00000000E+00  1.23755293E+01
  1.23755293E+01 -2.47510585E+01  0.00000000E+00  1.23755293E+01  1.23755293E+01
 -2.47510585E+01  0.00000000E+00  1.23755293E+01  1.23755293E+01 -2.47510585E+01
  0.00000000E+00  1.23755293E+01  1.23755293E+01 -2.47510585E+01  0.00000000E+00
  1.23755293E+01  1.23755293E+01 -2.47510585E+01  0.00000000E+00  1.23755293E+01
  1.23755293E+01 -2.47510585E+01  0.00000000E+00  1.23755293E+01  1.23755293E+01
 -2.47510585E+01  0.00000000E+00  1.23755293E+01  1.23755293E+01 -2.47510585E+01
  0.00000000E+00  1.23755293E+01  1.23755293E+01 -2.47510585E+01  0.00000000E+00
  1.23755293E+01  1.23755293E+01 -2.47510585E+01  0.00000000E+00  1.23755293E+01
  1.23755293E+01 -2.47510585E+01  0.00000000E+00  1.23755293E+01  1.23755293E+01
 -2.47510585E+01  0.00000000E+00  1.23755293E+01  1.23755293E+01 -2.47510585E+01
  0.00000000E+00  1.23755293E+01  1.23755293E+01 -2.47510585E+01  0.00000000E+00
  1.23755293E+01  1.23755293E+01 -2.47510585E+01  0.00000000E+00  1.23755293E+01
  1.23755293E+01 -2.47510585E+01  0.00000000E+00  1.23755293E+01  1.23755293E+01
 -2.47510585E+01  0.00000000E+00  1.23755293E+01  1.23755293E+01 -2.47510585E+01
  0.00000000E+00  1.23755293E+01  1.23755293E+01 -2.47510585E+01  0.00000000E+00
  1.23755293E+01  1.23755293E+01 -2.47510585E+01  0.00000000E+00  1.23755293E+01
  1.23755293E+01 -2.47510585E+01  0.00000000E+00  1.23755293E+01  1.23755293E+01
 -2.47510585E+01  0.00000000E+00  1.23755293E+01  1.23755293E+01 -2.47510585E+01
  0.00000000E+00  1.23755293E+01  1.23755293E+01 -2.47510585E+01  0.00000000E+00
  1.23755293E+01  1.23755293E+01 -2.47510585E+01  0.00000000E+00  1.23755293E+01
  1.23755293E+01 -2.47510585E+01  0.00000000E+00  1.23755293E+01  1.23755293E+01
 -2.47510585E+01  0.00000000E+00  1.23755293E+01  1.23755293E+01 -2.47510585E+01
  0.00000000E+00  1.23755293E+01  1.23755293E+01 -2.47510585E+01  0.00000000E+00
  1.23755293E+01  1.23755293E+01 -2.47510585E+01  0.00000000E+00  1.23755293E+01
  1.23755293E+01 -2.47510585E+01  0.00000000E+00  1.23755293E+01  1.23755293E+01
 -2.47510585E+01  0.00000000E+00  1.23755293E+01  1.23755293E+01 -2.47510585E+01
  0.00000000E+00  1.23755293E+01  1.23755293E+01 -2.47510585E+01  0.00000000E+00
  1.23755293E+01  1.23755293E+01 -2.47510585E+01  0.00000000E+00  1.23755293E+01
  1.23755293E+01 -2.47510585E+01  0.00000000E+00  1.23755293E+01  1.23755293E+01
 -2.47510585E+01  0.00000000E+00  1.23755293E+01  1.23755293E+01 -2.47510585E+01
  0.00000000E+00  1.23755293E+01  1.23755293E+01 -2.47510585E+01  0.00000000E+00
  1.23755293E+01  1.23755293E+01 -2.47510585E+01  0.00000000E+00  1.23755293E+01
  1.23755293E+01 -2.47510585E+01  0.00000000E+00  1.23755293E+01  1.23755293E+01
 -2.47510585E+01  0.00000000E+00  1.23755293E+01  1.23755293E+01 -2.47510585E+01
  0.00000000E+00  1.23755293E+01  1.23755293E+01 -2.47510585E+01  0.00000000E+00
  1.23755293E+01  1.23755293E+01 -2.47510585E+01  0.00000000E+00  1.23755293E+01
  1.23755293E+01 -2.47510585E+01  0.00000000E+00  1.23755293E+01  1.23755293E+01
 -2.47510585E+01  0.00000000E+00  1.23755293E+01  1.23755293E+01 -2.47510585E+01
  0.00000000E+00  1.23755293E+01  1.23755293E+01 -2.47510585E+01  0.00000000E+00
  1.23755293E+01  1.23755293E+01 -2.47510585E+01  0.00000000E+00  1.23755293E+01
  1.23755293E+01 -2.47510585E+01  0.00000000E+00  1.23755293E+01  1.23755293E+01
 -2.47510585E+01  0.00000000E+00  1.23755293E+01  1.23755293E+01 -2.47510585E+01
  0.00000000E+00  1.23755293E+01  1.23755293E+01 -2.47510585E+01  0.00000000E+00
  1.23755293E+01  1.23755293E+01 -2.47510585E+01  0.00000000E+00  1.23755293E+01
  1.23755293E+01 -2.47510585E+01  0.00000000E+00  1.23755293E+01  1.23755293E+01
 -2.47510585E+01  0.00000000E+00  1.23755293E+01  1.23755293E+01 -2.47510585E+01
  0.00000000E+00  1.23755293E+01  1.23755293E+01 -2.47510585E+01  0.00000000E+00
  1.23755293E+01  1.23755293E+01 -2.47510585E+01  0.00000000E+00  1.23755293E+01
  1.23755293E+01 -2.47510585E+01  0.00000000E+00  1.23755293E+01  1.23755293E+01
 -2.47510585E+01  0.00000000E+00  1.23755293E+01  1.23755293E+01 -2.47510585E+01
  0.00000000E+00  1.23755293E+01  1.23755293E+01 -2.47510585E+01  0.00000000E+00
  1.23755293E+01  1.23755293E+01 -2.47510585E+01  0.00000000E+00  1.23755293E+01
  1.23755293E+01 -2.47510585E+01  0.00000000E+00  1.23755293E+01  1.23755293E+01
 -2.47510585E+01  0.00000000E+00  1.23755293E+01  1.23755293E+01 -2.47510585E+01
  0.00000000E+00  1.23755293E+01  1.23755293E+01 -2.47510585E+01  0.00000000E+00
  1.23755293E+01  1.23755293E+01 -2.47510585E+01  0.00000000E+00  1.23755293E+01
  1.23755293E+01 -2.47510585E+01  0.00000000E+00  1.23755293E+01  1.23755293E+01
 -2.47510585E+01  0.00000000E+00  1.23755293E+01  1.23755293E+01 -2.47510585E+01
  0.00000000E+00  1.23755293E+01  1.23755293E+01 -2.47510585E+01  0.00000000E+00
  1.23755293E+01  1.23755293E+01 -2.47510585E+01  0.00000000E+00  1.23755293E+01
  1.23755293E+01 -2.47510585E+01  0.00000000E+00  1.23755293E+01  1.23755293E+01
 -2.47510585E+01  0.00000000E+00  1.23755293E+01  1.23755293E+01 -2.47510585E+01
  0.00000000E+00  1.23755293E+01  1.23755293E+01 -2.47510585E+01  0.00000000E+00
  1.23755293E+01  1.23755293E+01 -2.47510585E+01  0.00000000E+00  1.23755293E+01
  1.23755293E+01 -2.47510585E+01  0.00000000E+00  1.23755293E+01  1.23755293E+01
 -2.47510585E+01  0.00000000E+00  1.23755293E+01  1.23755293E+01 -2.47510585E+01
  0.00000000E+00  1.23755293E+01  1.23755293E+01 -2.47510585E+01  0.00000000E+00
  1.23755293E+01  1.23755293E+01 -2.47510585E+01  0.00000000E+00  1.23755293E+01
  1.23755293E+01 -2.47510585E+01  0.00000000E+00  1.23755293E+01  1.23755293E+01
 -2.47510585E+01  0.00000000E+00  1.23755293E+01  1.23755293E+01 -2.47510585E+01
  0.00000000E+00  1.23755293E+01  1.23755293E+01 -2.47510585E+01  0.00000000E+00
  1.23755293E+01  1.23755293E+01 -2.47510585E+01  0.00000000E+00  1.23755293E+01
  1.23755293E+01 -2.47510585E+01  0.00000000E+00  1.23755293E+01  1.23755293E+01
 -2.47510585E+01  0.00000000E+00  1.23755293E+01  1.23755293E+01 -2.47510585E+01
  0.00000000E+00  1.23755293E+01  1.23755293E+01 -2.47510585E+01  0.00000000E+00
  1.23755293E+01  1.23755293E+01 -2.47510585E+01  0.00000000E+00  1.23755293E+01
  1.23755293E+01 -2.47510585E+01  0.00000000E+00  1.23755293E+01  1.23755293E+01
 -2.47510585E+01  0.00000000E+00  1.23755293E+01  1.23755293E+01 -2.47510585E+01
  0.00000000E+00  1.23755293E+01  1.23755293E+01 -2.47510585E+01  0.00000000E+00
  1.23755293E+01  1.23755293E+01 -2.47510585E+01  0.00000000E+00  1.23755293E+01
  1.23755293E+01 -2.47510585E+01  0.00000000E+00  1.23755293E+01  1.23755293E+01
 -2.47510585E+01  0.00000000E+00  1.23755293E+01  1.23755293E+01 -2.47510585E+01
  0.00000000E+00  1.23755293E+01  1.23755293E+01 -2.47510585E+01  0.00000000E+00
  1.23755293E+01  1.23755293E+01 -2.47510585E+01  0.00000000E+00  1.23755293E+01
  1.23755293E+01 -2.47510585E+01  0.00000000E+00  1.23755293E+01  1.23755293E+01
 -2.47510585E+01  0.00000000E+00  1.23755293E+01  1.23755293E+01 -2.47510585E+01
  0.00000000E+00  1.23755293E+01  1.23755293E+01 -2.47510585E+01  0.00000000E+00
  1.23755293E+01  1.23755293E+01 -2.47510585E+01  0.00000000E+00  1.23755293E+01
  1.23755293E+01 -2.47510585E+01  0.00000000E+00  1.23755293E+01  1.23755293E+01
 -2.47510585E+01  0.00000000E+00  1.23755293E+01  1.23755293E+01 -2.47510585E+01
  0.00000000E+00  1.23755293E+01  1.23755293E+01 -2.47510585E+01  0.00000000E+00
  1.23755293E+01  1.23755293E+01 -2.47510585E+01  0.00000000E+00  1.23755293E+01
  1.23755293E+01 -2.47510585E+01  0.00000000E+00  1.23755293E+01  1.23755293E+01
 -2.47510585E+01  0.00000000E+00  1.23755293E+01  1.23755293E+01 -2.47510585E+01
  0.00000000E+00  1.23755293E+01  1.23755293E+01 -2.47510585E+01  0.00000000E+00
  1.23755293E+01  1.23755293E+01 -2.47510585E+01  0.00000000E+00  1.23755293E+01
  1.23755293E+01 -2.47510585E+01  0.00000000E+00  1.23755293E+01  1.23755293E+01
 -2.47510585E+01  0.00000000E+00  1.23755293E+01  1.23755293E+01 -2.47510585E+01
  0.00000000E+00  1.23755293E+01  1.23755293E+01 -2.47510585E+01  0.00000000E+00
  1.23755293E+01  1.23755293E+01 -2.47510585E+01  0.00000000E+00  1.23755293E+01
  1.23755293E+01 -2.47510585E+01  0.00000000E+00  1.23755293E+01  1.23755293E+01
 -2.47510585E+01  0.00000000E+00  1.23755293E+01  1.23755293E+01 -2.47510585E+01
  0.00000000E+00  1.23755293E+01  1.23755293E+01 -2.47510585E+01  0.00000000E+00
  1.23755293E+01  1.23755293E+01 -2.47510585E+01  0.00000000E+00  1.23755293E+01
  1.23755293E+01 -2.47510585E+01  0.00000000E+00  1.23755293E+01  1.23755293E+01
 -2.47510585E+01  0.00000000E+00  1.23755293E+01  1.23755293E+01 -2.47510585E+01
  0.00000000E+00  1.23755293E+01  1.23755293E+01 -2.47510585E+01  0.00000000E+00
  1.23755293E+01  1.23755293E+01 -2.47510585E+01  0.00000000E+00  1.23755293E+01
  1.23755293E+01 -2.47510585E+01  0.00000000E+00  1.23755293E+01  1.23755293E+01
 -2.47510585E+01  0.00000000E+00  1.23755293E+01  1.23755293E+01 -2.47510585E+01
  0.00000000E+00  1.23755293E+01  1.23755293E+01 -2.47510585E+01  0.00000000E+00
  1.23755293E+01  1.23755293E+01 -2.47510585E+01  0.00000000E+00  1.23755293E+01
  1.23755293E+01 -2.47510585E+01  0.00000000E+00  1.23755293E+01  1.23755293E+01
 -2.47510585E+01  0.00000000E+00  1.23755293E+01  1.23755293E+01 -2.47510585E+01
  0.00000000E+00  1.23755293E+01  1.23755293E+01 -2.47510585E+01  0.00000000E+00
  1.23755293E+01  1.23755293E+01 -2.47510585E+01  0.00000000E+00  1.23755293E+01
  1.23755293E+01 -2.47510585E+01  0.00000000E+00  1.23755293E+01  1.23755293E+01
 -2.47510585E+01  0.00000000E+00  1.23755293E+01  1.23755293E+01 -2.47510585E+01
  0.00000000E+00  1.23755293E+01  1.23755293E+01 -2.47510585E+01  0.00000000E+00
  1.23755293E+01  1.23755293E+01 -2.47510585E+01  0.00000000E+00  1.23755293E+01
  1.23755293E+01 -2.47510585E+01  0.00000000E+00  1.23755293E+01  1.23755293E+01
 -2.47510585E+01  0.00000000E+00  1.23755293E+01  1.23755293E+01 -2.47510585E+01
  0.00000000E+00  1.23755293E+01  1.23755293E+01 -2.47510585E+01  0.00000000E+00
  1.23755293E+01  1.23755293E+01 -2.47510585E+01  0.00000000E+00  1.23755293E+01
  1.23755293E+01 -2.47510585E+01  0.00000000E+00  1.23755293E+01  1.23755293E+01
 -2.47510585E+01  0.00000000E+00  1.23755293E+01  1.23755293E+01 -2.47510585E+01
  0.00000000E+00  1.23755293E+01  1.23755293E+01 -2.47510585E+01  0.00000000E+00
  1.23755293E+01  1.23755293E+01 -2.47510585E+01  0.00000000E+00  1.23755293E+01
  1.23755293E+01 -2.47510585E+01  0.00000000E+00  1.23755293E+01  1.23755293E+01
 -2.47510585E+01  0.00000000E+00  1.23755293E+01  1.23755293E+01 -2.47510585E+01
  0.00000000E+00  1.23755293E+01  1.23755293E+01 -2.47510585E+01  0.00000000E+00
  1.23755293E+01  1.23755293E+01 -2.47510585E+01  0.00000000E+00  1.23755293E+01
  1.23755293E+01 -2.47510585E+01  0.00000000E+00  1.23755293E+01  1.23755293E+01
 -2.47510585E+01  0.00000000E+00  1.23755293E+01  1.23755293E+01 -2.47510585E+01
  0.00000000E+00  1.23755293E+01  1.23755293E+01 -2.47510585E+01  0.00000000E+00
  1.23755293E+01  1.23755293E+01 -2.47510585E+01  0.00000000E+00  1.23755293E+01
  1.23755293E+01 -2.47510585E+01  0.00000000E+00  1.23755293E+01  1.23755293E+01
 -2.47510585E+01  0.00000000E+00  1.23755293E+01  1.23755293E+01 -2.47510585E+01
  0.00000000E+00  1.23755293E+01  1.23755293E+01 -2.47510585E+01  0.00000000E+00
  1.23755293E+01  1.23755293E+01 -2.47510585E+01  0.00000000E+00  1.23755293E+01
  1.23755293E+01 -2.47510585E+01  0.00000000E+00  1.23755293E+01  1.23755293E+01
 -2.47510585E+01  0.00000000E+00  1.23755293E+01  1.23755293E+01 -2.47510585E+01
  0.00000000E+00  1.23755293E+01  1.23755293E+01 -2.47510585E+01  0.00000000E+00
  1.23755293E+01  1.23755293E+01 -2.47510585E+01  0.00000000E+00  1.23755293E+01
  1.23755293E+01 -2.47510585E+01  0.00000000E+00  1.23755293E+01  1.23755293E+01
 -2.47510585E+01  0.00000000E+00  1.23755293E+01  1.23755293E+01 -2.47510585E+01
  0.00000000E+00  1.23755293E+01  1.23755293E+01 -2.47510585E+01  0.00000000E+00
  1.23755293E+01  1.23755293E+01 -2.47510585E+01  0.00000000E+00  1.23755293E+01
  1.23755293E+01 -2.47510585E+01  0.00000000E+00  1.23755293E+01  1.23755293E+01
 -2.47510585E+01  0.00000000E+00  1.23755293E+01  1.23755293E+01 -2.47510585E+01
  0.00000000E+00  1.23755293E+01  1.23755293E+01 -2.47510585E+01  0.00000000E+00
  1.23755293E+01  1.23755293E+01 -2.47510585E+01  0.00000000E+00  1.23755293E+01
  1.23755293E+01 -2.47510585E+01  0.00000000E+00  1.23755293E+01  1.23755293E+01
 -2.47510585E+01  0.00000000E+00  1.23755293E+01  1.23755293E+01 -2.47510585E+01
  0.00000000E+00  1.23755293E+01  1.23755293E+01 -2.47510585E+01  0.00000000E+00
  1.23755293E+01  1.23755293E+01 -2.47510585E+01  0.00000000E+00  1.23755293E+01
  1.23755293E+01 -2.47510585E+01  0.00000000E+00  1.23755293E+01  1.23755293E+01
 -2.47510585E+01  0.00000000E+00  1.23755293E+01  1.23755293E+01 -2.47510585E+01
  0.00000000E+00  1.23755293E+01  1.23755293E+01 -2.47510585E+01  0.00000000E+00
  1.23755293E+01  1.23755293E+01 -2.47510585E+01  0.00000000E+00  1.23755293E+01
  1.23755293E+01 -2.47510585E+01  0.00000000E+00  1.23755293E+01  1.23755293E+01
 -2.47510585E+01  0.00000000E+00  1.23755293E+01  1.23755293E+01 -2.47510585E+01
  0.00000000E+00  1.23755293E+01  1.23755293E+01 -2.47510585E+01  0.00000000E+00
  1.23755293E+01  1.23755293E+01 -2.47510585E+01  0.00000000E+00  1.23755293E+01
  1.23755293E+01 -2.47510585E+01  0.00000000E+00  1.23755293E+01  1.23755293E+01
 -2.47510585E+01  0.00000000E+00  1.23755293E+01  1.23755293E+01 -2.47510585E+01
  0.00000000E+00  1.23755293E+01  1.23755293E+01 -2.47510585E+01  0.00000000E+00
  1.23755293E+01  1.23755293E+01 -2.47510585E+01  0.00000000E+00  1.23755293E+01
  1.23755293E+01 -2.47510585E+01  0.00000000E+00  1.23755293E+01  1.23755293E+01
 -2.47510585E+01  0.00000000E+00  1.23755293E+01  1.23755293E+01 -2.47510585E+01
  0.00000000E+00  1.23755293E+01  1.23755293E+01 -2.47510585E+01  0.00000000E+00
  1.23755293E+01  1.23755293E+01 -2.47510585E+01  0.00000000E+00  1.23755293E+01
  1.23755293E+01 -2.47510585E+01  0.00000000E+00  1.23755293E+01  1.23755293E+01
 -2.47510585E+01  0.00000000E+00  1.23755293E+01  1.23755293E+01 -2.47510585E+01
  0.00000000E+00  1.23755293E+01  1.23755293E+01 -2.47510585E+01  0.00000000E+00
  1.23755293E+01  1.23755293E+01 -2.47510585E+01  0.00000000E+00  1.23755293E+01
  1.23755293E+01 -2.47510585E+01  0.00000000E+00  1.23755293E+01  1.23755293E+01
 -2.47510585E+01  0.00000000E+00  1.23755293E+01  1.23755293E+01 -2.47510585E+01
  0.00000000E+00  1.23755293E+01  1.23755293E+01 -2.47510585E+01  0.00000000E+00
  1.23755293E+01  1.23755293E+01 -2.47510585E+01  0.00000000E+00  1.23755293E+01
  1.23755293E+01 -2.47510585E+01  0.00000000E+00  1.23755293E+01  1.23755293E+01
 -2.47510585E+01  0.00000000E+00  1.23755293E+01  1.23755293E+01 -2.47510585E+01
  0.00000000E+00  1.23755293E+01  1.23755293E+01 -2.47510585E+01  0.00000000E+00
  1.23755293E+01  1.23755293E+01 -2.47510585E+01  0.00000000E+00  1.23755293E+01
  1.23755293E+01 -2.47510585E+01  0.00000000E+00  1.23755293E+01  1.23755293E+01
 -2.47510585E+01  0.00000000E+00  1.23755293E+01  1.23755293E+01 -2.47510585E+01
  0.00000000E+00  1.23755293E+01  1.23755293E+01 -2.47510585E+01  0.00000000E+00
  1.23755293E+01  1.23755293E+01 -2.47510585E+01  0.00000000E+00  1.23755293E+01
  1.23755293E+01 -2.47510585E+01  0.00000000E+00  1.23755293E+01  1.23755293E+01
 -2.47510585E+01  0.00000000E+00  1.23755293E+01  1.23755293E+01 -2.47510585E+01
  0.00000000E+00  1.23755293E+01  1.23755293E+01 -2.47510585E+01  0.00000000E+00
  1.23755293E+01  1.23755293E+01 -2.47510585E+01  0.00000000E+00  1.23755293E+01
  1.23755293E+01 -2.47510585E+01  0.00000000E+00  1.23755293E+01  1.23755293E+01
 -2.47510585E+01  0.00000000E+00  1.23755293E+01  1.23755293E+01 -2.47510585E+01
  0.00000000E+00  1.23755293E+01  1.23755293E+01 -2.47510585E+01  0.00000000E+00
  1.23755293E+01  1.23755293E+01 -2.47510585E+01  0.00000000E+00  1.23755293E+01
  1.23755293E+01 -2.47510585E+01  0.00000000E+00  1.23755293E+01  1.23755293E+01
 -2.47510585E+01  0.00000000E+00  1.23755293E+01  1.23755293E+01 -2.47510585E+01
  0.00000000E+00  1.23755293E+01  1.23755293E+01 -2.47510585E+01  0.00000000E+00
  1.23755293E+01  1.23755293E+01 -2.47510585E+01  0.00000000E+00  1.23755293E+01
  1.23755293E+01 -2.47510585E+01  0.00000000E+00  1.23755293E+01  1.23755293E+01
 -2.47510585E+01  0.00000000E+00  1.23755293E+01  1.23755293E+01 -2.47510585E+01
  0.00000000E+00  1.23755293E+01  1.23755293E+01 -2.47510585E+01  0.00000000E+00
  1.23755293E+01  1.23755293E+01 -2.47510585E+01  0.00000000E+00  1.23755293E+01
  1.23755293E+01 -2.47510585E+01  0.00000000E+00  1.23755293E+01  1.23755293E+01
 -2.47510585E+01  0.00000000E+00  1.23755293E+01  1.23755293E+01 -2.47510585E+01
  0.00000000E+00  1.23755293E+01  1.23755293E+01 -2.47510585E+01  0.00000000E+00
  1.23755293E+01  1.23755293E+01 -2.47510585E+01  0.00000000E+00  1.23755293E+01
  1.23755293E+01 -2.47510585E+01  0.00000000E+00  1.23755293E+01  1.23755293E+01
 -2.47510585E+01  0.00000000E+00  1.23755293E+01  1.23755293E+01 -2.47510585E+01
  0.00000000E+00  1.23755293E+01  1.23755293E+01 -2.47510585E+01  0.00000000E+00
  1.23755293E+01  1.23755293E+01 -2.47510585E+01  0.00000000E+00  1.23755293E+01
  1.23755293E+01 -2.47510585E+01  0.00000000E+00  1.23755293E+01  1.23755293E+01
 -2.47510585E+01  0.00000000E+00  1.23755293E+01  1.23755293E+01 -2.47510585E+01
  0.00000000E+00  1.23755293E+01  1.23755293E+01 -2.47510585E+01  0.00000000E+00
  1.23755293E+01  1.23755293E+01 -2.47510585E+01  0.00000000E+00  1.23755293E+01
  1.23755293E+01 -2.47510585E+01  0.00000000E+00  1.23755293E+01  1.23755293E+01
 -2.47510585E+01  0.00000000E+00  1.23755293E+01  1.23755293E+01 -2.47510585E+01
  0.00000000E+00  1.23755293E+01  1.23755293E+01 -2.47510585E+01  0.00000000E+00
  1.23755293E+01  1.23755293E+01 -2.47510585E+01  0.00000000E+00  1.23755293E+01
  1.23755293E+01 -2.47510585E+01  0.00000000E+00  1.23755293E+01  1.23755293E+01
 -2.47510585E+01  0.00000000E+00  1.23755293E+01  1.23755293E+01 -2.47510585E+01
  0.00000000E+00  1.23755293E+01  1.23755293E+01 -2.47510585E+01  0.00000000E+00
  1.23755293E+01  1.23755293E+01 -2.47510585E+01  0.00000000E+00  1.23755293E+01
  1.23755293E+01 -2.47510585E+01  0.00000000E+00  1.23755293E+01  1.23755293E+01
 -2.47510585E+01  0.00000000E+00  1.23755293E+01  1.23755293E+01 -2.47510585E+01
  0.00000000E+00  1.23755293E+01  1.23755293E+01 -2.47510585E+01  0.00000000E+00
  1.23755293E+01  1.23755293E+01 -2.47510585E+01  0.00000000E+00  1.23755293E+01
  1.23755293E+01 -2.47510585E+01  0.00000000E+00  1.23755293E+01  1.23755293E+01
 -2.47510585E+01  0.00000000E+00  1.23755293E+01  1.23755293E+01 -2.47510585E+01
  0.00000000E+00  1.23755293E+01  1.23755293E+01 -2.47510585E+01  0.00000000E+00
  1.23755293E+01  1.23755293E+01 -2.47510585E+01  0.00000000E+00  1.23755293E+01
  1.23755293E+01 -2.47510585E+01  0.00000000E+00  1.23755293E+01  1.23755293E+01
 -2.47510585E+01  0.00000000E+00  1.23755293E+01  1.23755293E+01 -2.47510585E+01
  0.00000000E+00  1.23755293E+01  1.23755293E+01 -2.47510585E+01  0.00000000E+00
  1.23755293E+01  1.23755293E+01 -2.47510585E+01  0.00000000E+00  1.23755293E+01
  1.23755293E+01 -2.47510585E+01  0.00000000E+00  1.23755293E+01  1.23755293E+01
 -2.47510585E+01  0.00000000E+00  1.23755293E+01  1.23755293E+01 -2.47510585E+01
  0.00000000E+00  1.23755293E+01  1.23755293E+01 -2.47510585E+01  0.00000000E+00
  1.23755293E+01  1.23755293E+01 -2.47510585E+01  0.00000000E+00  1.23755293E+01
  1.23755293E+01 -2.47510585E+01  0.00000000E+00  1.23755293E+01  1.23755293E+01
 -2.47510585E+01  0.00000000E+00  1.23755293E+01  1.23755293E+01 -2.47510585E+01
  0.00000000E+00  1.23755293E+01  1.23755293E+01 -2.47510585E+01  0.00000000E+00
  1.23755293E+01  1.23755293E+01 -2.47510585E+01  0.00000000E+00  1.23755293E+01
  1.23755293E+01 -2.47510585E+01  0.00000000E+00  1.23755293E+01  1.23755293E+01
 -2.47510585E+01  0.00000000E+00  1.23755293E+01  1.23755293E+01 -2.47510585E+01
  0.00000000E+00  1.23755293E+01  1.23755293E+01 -2.47510585E+01  0.00000000E+00
  1.23755293E+01  1.23755293E+01 -2.47510585E+01  0.00000000E+00  1.23755293E+01
  1.23755293E+01 -2.47510585E+01  0.00000000E+00  1.23755293E+01  1.23755293E+01
 -2.47510585E+01  0.00000000E+00  1.23755293E+01  1.23755293E+01 -2.47510585E+01
  0.00000000E+00  1.23755293E+01  1.23755293E+01 -2.47510585E+01  0.00000000E+00
  1.23755293E+01  1.23755293E+01 -2.47510585E+01  0.00000000E+00  1.23755293E+01
  1.23755293E+01 -2.47510585E+01  0.00000000E+00  1.23755293E+01  1.23755293E+01
 -2.47510585E+01  0.00000000E+00  1.23755293E+01  1.23755293E+01 -2.47510585E+01
  0.00000000E+00  1.23755293E+01  1.23755293E+01 -2.47510585E+01  0.00000000E+00
  1.23755293E+01  1.23755293E+01 -2.47510585E+01  0.00000000E+00  1.23755293E+01
  1.23755293E+01 -2.47510585E+01  0.00000000E+00  1.23755293E+01  1.23755293E+01
 -2.47510585E+01  0.00000000E+00  1.23755293E+01  1.23755293E+01 -2.47510585E+01
  0.00000000E+00  1.23755293E+01  1.23755293E+01 -2.47510585E+01  0.00000000E+00
  1.23755293E+01  1.23755293E+01 -2.47510585E+01  0.00000000E+00  1.23755293E+01
  1.23755293E+01 -2.47510585E+01  0.00000000E+00  1.23755293E+01  1.23755293E+01
 -2.47510585E+01  0.00000000E+00  1.23755293E+01  1.23755293E+01 -2.47510585E+01
  0.00000000E+00  1.23755293E+01  1.23755293E+01 -2.47510585E+01  0.00000000E+00
  1.23755293E+01  1.23755293E+01 -2.47510585E+01  0.00000000E+00  1.23755293E+01
  1.23755293E+01 -2.47510585E+01  0.00000000E+00  1.23755293E+01  1.23755293E+01
 -2.47510585E+01  0.00000000E+00  1.23755293E+01  1.23755293E+01 -2.47510585E+01
  0.00000000E+00  1.23755293E+01  1.23755293E+01 -2.47510585E+01  0.00000000E+00
  1.23755293E+01  1.23755293E+01 -2.47510585E+01  0.00000000E+00  1.23755293E+01
  1.23755293E+01 -2.47510585E+01  0.00000000E+00  1.23755293E+01  1.23755293E+01
 -2.47510585E+01  0.00000000E+00  1.23755293E+01  1.23755293E+01 -2.47510585E+01
  0.00000000E+00  1.23755293E+01  1.23755293E+01 -2.47510585E+01  0.00000000E+00
  1.23755293E+01  1.23755293E+01 -2.47510585E+01  0.00000000E+00  1.23755293E+01
  1.23755293E+01 -2.47510585E+01  0.00000000E+00  1.23755293E+01  1.23755293E+01
 -2.47510585E+01  0.00000000E+00  1.23755293E+01  1.23755293E+01 -2.47510585E+01
  0.00000000E+00  1.23755293E+01  1.23755293E+01 -2.47510585E+01  0.00000000E+00
  1.23755293E+01  1.23755293E+01 -2.47510585E+01  0.00000000E+00  1.23755293E+01
  1.23755293E+01 -2.47510585E+01  0.00000000E+00  1.23755293E+01  1.23755293E+01
 -2.47510585E+01  0.00000000E+00  1.23755293E+01  1.23755293E+01 -2.47510585E+01
  0.00000000E+00  1.23755293E+01  1.23755293E+01 -2.47510585E+01  0.00000000E+00
  1.23755293E+01  1.23755293E+01 -2.47510585E+01  0.00000000E+00  1.23755293E+01
  1.23755293E+01 -2.47510585E+01  0.00000000E+00  1.23755293E+01  1.23755293E+01
 -2.47510585E+01  0.00000000E+00  1.23755293E+01  1.23755293E+01 -2.47510585E+01
  0.00000000E+00  1.23755293E+01  1.23755293E+01 -2.47510585E+01  0.00000000E+00
  1.23755293E+01  1.23755293E+01 -2.47510585E+01  0.00000000E+00  1.23755293E+01
  1.23755293E+01 -2.47510585E+01  0.00000000E+00  1.23755293E+01  1.23755293E+01
 -2.47510585E+01  0.00000000E+00  1.23755293E+01  1.23755293E+01 -2.47510585E+01
  0.00000000E+00  1.23755293E+01  1.23755293E+01 -2.47510585E+01  0.00000000E+00
  1.23755293E+01  1.23755293E+01 -2.47510585E+01  0.00000000E+00  1.23755293E+01
  1.23755293E+01 -2.47510585E+01  0.00000000E+00  1.23755293E+01  1.23755293E+01
 -2.47510585E+01  0.00000000E+00  1.23755293E+01  1.23755293E+01 -2.47510585E+01
  0.00000000E+00  1.23755293E+01  1.23755293E+01 -2.47510585E+01  0.00000000E+00
  1.23755293E+01  1.23755293E+01 -2.47510585E+01  0.00000000E+00  1.23755293E+01
  1.23755293E+01 -2.47510585E+01  0.00000000E+00  1.23755293E+01  1.23755293E+01
 -2.47510585E+01  0.00000000E+00  1.23755293E+01  1.23755293E+01 -2.47510585E+01
  0.00000000E+00  1.23755293E+01  1.23755293E+01 -2.47510585E+01  0.00000000E+00
  1.23755293E+01  1.23755293E+01 -2.47510585E+01  0.00000000E+00  1.23755293E+01
  1.23755293E+01 -2.47510585E+01  0.00000000E+00  1.23755293E+01  1.23755293E+01
 -2.47510585E+01  0.00000000E+00  1.23755293E+01  1.23755293E+01 -2.47510585E+01
  0.00000000E+00  1.23755293E+01  1.23755293E+01 -2.47510585E+01  0.00000000E+00
  1.23755293E+01  1.23755293E+01 -2.47510585E+01  0.00000000E+00  1.23755293E+01
  1.23755293E+01 -2.47510585E+01  0.00000000E+00  1.23755293E+01  1.23755293E+01
 -2.47510585E+01  0.00000000E+00  1.23755293E+01  1.23755293E+01 -2.47510585E+01
  0.00000000E+00  1.23755293E+01  1.23755293E+01 -2.47510585E+01  0.00000000E+00
  1.23755293E+01  1.23755293E+01 -2.47510585E+01  0.00000000E+00  1.23755293E+01
  1.23755293E+01 -2.47510585E+01  0.00000000E+00  1.23755293E+01  1.23755293E+01
 -2.47510585E+01  0.00000000E+00  1.23755293E+01  1.23755293E+01 -2.47510585E+01
  0.00000000E+00  1.23755293E+01  1.23755293E+01 -2.47510585E+01  0.00000000E+00
  1.23755293E+01  1.23755293E+01 -2.47510585E+01  0.00000000E+00  1.23755293E+01
  1.23755293E+01 -2.47510585E+01  0.00000000E+00  1.23755293E+01  1.23755293E+01
 -2.47510585E+01  0.00000000E+00  1.23755293E+01  1.23755293E+01 -2.47510585E+01
  0.00000000E+00  1.23755293E+01  1.23755293E+01 -2.47510585E+01  0.00000000E+00
  1.23755293E+01  1.23755293E+01 -2.47510585E+01  0.00000000E+00  1.23755293E+01
  1.23755293E+01 -2.47510585E+01  0.00000000E+00  1.23755293E+01  1.23755293E+01
 -2.47510585E+01  0.00000000E+00  1.23755293E+01  1.23755293E+01 -2.47510585E+01
  0.00000000E+00  1.23755293E+01  1.23755293E+01 -2.47510585E+01  0.00000000E+00
  1.23755293E+01  1.23755293E+01 -2.47510585E+01  0.00000000E+00  1.23755293E+01
  1.23755293E+01 -2.47510585E+01  0.00000000E+00  1.23755293E+01  1.23755293E+01
 -2.47510585E+01  0.00000000E+00  1.23755293E+01  1.23755293E+01 -2.47510585E+01
  0.00000000E+00  1.23755293E+01  1.23755293E+01 -2.47510585E+01  0.00000000E+00
  1.23755293E+01  1.23755293E+01 -2.47510585E+01  0.00000000E+00  1.23755293E+01
  1.23755293E+01 -2.47510585E+01  0.00000000E+00  1.23755293E+01  1.23755293E+01
 -2.47510585E+01  0.00000000E+00  1.23755293E+01  1.23755293E+01 -2.47510585E+01
  0.00000000E+00  1.23755293E+01  1.23755293E+01 -2.47510585E+01  0.00000000E+00
  1.23755293E+01  1.23755293E+01 -2.47510585E+01  0.00000000E+00  1.23755293E+01
  1.23755293E+01 -2.47510585E+01  0.00000000E+00  1.23755293E+01  1.23755293E+01
 -2.47510585E+01  0.00000000E+00  1.23755293E+01  1.23755293E+01 -2.47510585E+01
  0.00000000E+00  1.23755293E+01  1.23755293E+01 -2.47510585E+01  0.00000000E+00
  1.23755293E+01  1.23755293E+01 -2.47510585E+01  0.00000000E+00  1.23755293E+01
  1.23755293E+01 -2.47510585E+01  0.00000000E+00  1.23755293E+01  1.23755293E+01
 -2.47510585E+01  0.00000000E+00  1.23755293E+01  1.23755293E+01 -2.47510585E+01
  0.00000000E+00  1.23755293E+01  1.23755293E+01 -2.47510585E+01  0.00000000E+00
  1.23755293E+01  1.23755293E+01 -2.47510585E+01  0.00000000E+00  1.23755293E+01
  1.23755293E+01 -2.47510585E+01  0.00000000E+00  1.23755293E+01  1.23755293E+01
 -2.47510585E+01  0.00000000E+00  1.23755293E+01  1.23755293E+01 -2.47510585E+01
  0.00000000E+00  1.23755293E+01  1.23755293E+01 -2.47510585E+01  0.00000000E+00
  1.23755293E+01  1.23755293E+01 -2.47510585E+01  0.00000000E+00  1.23755293E+01
  1.23755293E+01 -2.47510585E+01  0.00000000E+00  1.23755293E+01  1.23755293E+01
 -2.47510585E+01  0.00000000E+00  1.23755293E+01  1.23755293E+01 -2.47510585E+01
  0.00000000E+00  1.23755293E+01  1.23755293E+01 -2.47510585E+01  0.00000000E+00
  1.23755293E+01  1.23755293E+01 -2.47510585E+01  0.00000000E+00  1.23755293E+01
  1.23755293E+01 -2.47510585E+01  0.00000000E+00  1.23755293E+01  1.23755293E+01
 -2.47510585E+01  0.00000000E+00  1.23755293E+01  1.23755293E+01 -2.47510585E+01
  0.00000000E+00  1.23755293E+01  1.23755293E+01 -2.47510585E+01  0.00000000E+00
  1.23755293E+01  1.23755293E+01 -2.47510585E+01  0.00000000E+00  1.23755293E+01
  1.23755293E+01 -2.47510585E+01  0.00000000E+00  1.23755293E+01  1.23755293E+01
 -2.47510585E+01  0.00000000E+00  1.23755293E+01  1.23755293E+01 -2.47510585E+01
  0.00000000E+00  1.23755293E+01  1.23755293E+01 -2.47510585E+01  0.00000000E+00
  1.23755293E+01  1.23755293E+01 -2.47510585E+01  0.00000000E+00  1.23755293E+01
  1.23755293E+01 -2.47510585E+01  0.00000000E+00  1.23755293E+01  1.23755293E+01
 -2.47510585E+01  0.00000000E+00  1.23755293E+01  1.23755293E+01 -2.47510585E+01
  0.00000000E+00  1.23755293E+01  1.23755293E+01 -2.47510585E+01  0.00000000E+00
  1.23755293E+01  1.23755293E+01 -2.47510585E+01  0.00000000E+00  1.23755293E+01
  1.23755293E+01 -2.47510585E+01  0.00000000E+00  1.23755293E+01  1.23755293E+01
 -2.47510585E+01  0.00000000E+00  1.23755293E+01  1.23755293E+01 -2.47510585E+01
  0.00000000E+00  1.23755293E+01  1.23755293E+01 -2.47510585E+01  0.00000000E+00
  1.23755293E+01  1.23755293E+01 -2.47510585E+01  0.00000000E+00  1.23755293E+01
  1.23755293E+01 -2.47510585E+01  0.00000000E+00  1.23755293E+01  1.23755293E+01
 -2.47510585E+01  0.00000000E+00  1.23755293E+01  1.23755293E+01 -2.47510585E+01
  0.00000000E+00  1.23755293E+01  1.23755293E+01 -2.47510585E+01  0.00000000E+00
  1.23755293E+01  1.23755293E+01 -2.47510585E+01  0.00000000E+00  1.23755293E+01
  1.23755293E+01 -2.47510585E+01  0.00000000E+00  1.23755293E+01  1.23755293E+01
 -2.47510585E+01  0.00000000E+00  1.23755293E+01  1.23755293E+01 -2.47510585E+01
  0.00000000E+00  1.23755293E+01  1.23755293E+01 -2.47510585E+01  0.00000000E+00
  1.23755293E+01  1.23755293E+01 -2.47510585E+01  0.00000000E+00  1.23755293E+01
  1.23755293E+01 -2.47510585E+01  0.00000000E+00  1.23755293E+01  1.23755293E+01
 -2.47510585E+01  0.00000000E+00  1.23755293E+01  1.23755293E+01 -2.47510585E+01
  0.00000000E+00  1.23755293E+01  1.23755293E+01 -2.47510585E+01  0.00000000E+00
  1.23755293E+01  1.23755293E+01 -2.47510585E+01  0.00000000E+00  1.23755293E+01
  1.23755293E+01 -2.47510585E+01  0.00000000E+00  1.23755293E+01  1.23755293E+01
 -2.47510585E+01  0.00000000E+00  1.23755293E+01  1.23755293E+01 -2.47510585E+01
  0.00000000E+00  1.23755293E+01  1.23755293E+01 -2.47510585E+01  0.00000000E+00
  1.23755293E+01  1.23755293E+01 -2.47510585E+01  0.00000000E+00  1.23755293E+01
  1.23755293E+01 -2.47510585E+01  0.00000000E+00  1.23755293E+01  1.23755293E+01
 -2.47510585E+01  0.00000000E+00  1.23755293E+01  1.23755293E+01 -2.47510585E+01
  0.00000000E+00  1.23755293E+01  1.23755293E+01 -2.47510585E+01  0.00000000E+00
  1.23755293E+01  1.23755293E+01 -2.47510585E+01  0.00000000E+00  1.23755293E+01
  1.23755293E+01 -2.47510585E+01  0.00000000E+00  1.23755293E+01  1.23755293E+01
 -2.47510585E+01  0.00000000E+00  1.23755293E+01  1.23755293E+01 -2.47510585E+01
  0.00000000E+00  1.23755293E+01  1.23755293E+01 -2.47510585E+01  0.00000000E+00
  1.23755293E+01  1.23755293E+01 -2.47510585E+01  0.00000000E+00  1.23755293E+01
  1.23755293E+01 -2.47510585E+01  0.00000000E+00  1.23755293E+01  1.23755293E+01
 -2.47510585E+01  0.00000000E+00  1.23755293E+01  1.23755293E+01 -2.47510585E+01
  0.00000000E+00  1.23755293E+01  1.23755293E+01 -2.47510585E+01  0.00000000E+00
  1.23755293E+01  1.23755293E+01 -2.47510585E+01  0.00000000E+00  1.23755293E+01
  1.23755293E+01 -2.47510585E+01  0.00000000E+00  1.23755293E+01  1.23755293E+01
 -2.47510585E+01  0.00000000E+00  1.23755293E+01  1.23755293E+01 -2.47510585E+01
  0.00000000E+00  1.23755293E+01  1.23755293E+01 -2.47510585E+01  0.00000000E+00
  1.23755293E+01  1.23755293E+01 -2.47510585E+01  0.00000000E+00  1.23755293E+01
  1.23755293E+01 -2.47510585E+01  0.00000000E+00  1.23755293E+01  1.23755293E+01
 -2.47510585E+01  0.00000000E+00  1.23755293E+01  1.23755293E+01 -2.47510585E+01
  0.00000000E+00  1.23755293E+01  1.23755293E+01 -2.47510585E+01  0.00000000E+00
  1.23755293E+01  1.23755293E+01 -2.47510585E+01  0.00000000E+00  1.23755293E+01
  1.23755293E+01 -2.47510585E+01  0.00000000E+00  1.23755293E+01  1.23755293E+01
 -2.47510585E+01  0.00000000E+00  1.23755293E+01  1.23755293E+01 -2.47510585E+01
  0.00000000E+00  1.23755293E+01  1.23755293E+01 -2.47510585E+01  0.00000000E+00
  1.23755293E+01  1.23755293E+01 -2.47510585E+01  0.00000000E+00  1.23755293E+01
  1.23755293E+01 -2.47510585E+01  0.00000000E+00  1.23755293E+01  1.23755293E+01
 -2.47510585E+01  0.00000000E+00  1.23755293E+01  1.23755293E+01 -2.47510585E+01
  0.00000000E+00  1.23755293E+01  1.23755293E+01 -2.47510585E+01  0.00000000E+00
  1.23755293E+01  1.23755293E+01 -2.47510585E+01  0.00000000E+00  1.23755293E+01
  1.23755293E+01 -2.47510585E+01  0.00000000E+00  1.23755293E+01  1.23755293E+01
 -2.47510585E+01  0.00000000E+00  1.23755293E+01  1.23755293E+01 -2.47510585E+01
  0.00000000E+00  1.23755293E+01  1.23755293E+01 -2.47510585E+01  0.00000000E+00
  1.23755293E+01  1.23755293E+01 -2.47510585E+01  0.00000000E+00  1.23755293E+01
  1.23755293E+01 -2.47510585E+01  0.00000000E+00  1.23755293E+01  1.23755293E+01
 -2.47510585E+01  0.00000000E+00  1.23755293E+01  1.23755293E+01 -2.47510585E+01
  0.00000000E+00  1.23755293E+01  1.23755293E+01 -2.47510585E+01  0.00000000E+00
  1.23755293E+01  1.23755293E+01 -2.47510585E+01  0.00000000E+00  1.23755293E+01
  1.23755293E+01 -2.47510585E+01  0.00000000E+00  1.23755293E+01  1.23755293E+01
 -2.47510585E+01  0.00000000E+00  1.23755293E+01  1.23755293E+01 -2.47510585E+01
  0.00000000E+00  1.23755293E+01  1.23755293E+01 -2.47510585E+01  0.00000000E+00
  1.23755293E+01  1.23755293E+01 -2.47510585E+01  0.00000000E+00  1.23755293E+01
  1.23755293E+01 -2.47510585E+01  0.00000000E+00  1.23755293E+01  1.23755293E+01
 -2.47510585E+01  0.00000000E+00  1.23755293E+01  1.23755293E+01 -2.47510585E+01
  0.00000000E+00  1.23755293E+01  1.23755293E+01 -2.47510585E+01  0.00000000E+00
  1.23755293E+01  1.23755293E+01 -2.47510585E+01  0.00000000E+00  1.23755293E+01
  1.23755293E+01 -2.47510585E+01  0.00000000E+00  1.23755293E+01  1.23755293E+01
 -2.47510585E+01  0.00000000E+00  1.23755293E+01  1.23755293E+01 -2.47510585E+01
  0.00000000E+00  1.23755293E+01  1.23755293E+01 -2.47510585E+01  0.00000000E+00
  1.23755293E+01  1.23755293E+01 -2.47510585E+01  0.00000000E+00  1.23755293E+01
  1.23755293E+01 -2.47510585E+01  0.00000000E+00  1.23755293E+01  1.23755293E+01
 -2.47510585E+01  0.00000000E+00  1.23755293E+01  1.23755293E+01 -2.47510585E+01
  0.00000000E+00  1.23755293E+01  1.23755293E+01 -2.47510585E+01  0.00000000E+00
  1.23755293E+01  1.23755293E+01 -2.47510585E+01  0.00000000E+00  1.23755293E+01
  1.23755293E+01 -2.47510585E+01  0.00000000E+00  1.23755293E+01  1.23755293E+01
 -2.47510585E+01  0.00000000E+00  1.23755293E+01  1.23755293E+01 -2.47510585E+01
  0.00000000E+00  1.23755293E+01  1.23755293E+01 -2.47510585E+01  0.00000000E+00
  1.23755293E+01  1.23755293E+01 -2.47510585E+01  0.00000000E+00  1.23755293E+01
  1.23755293E+01 -2.47510585E+01  0.00000000E+00  1.23755293E+01  1.23755293E+01
 -2.47510585E+01  0.00000000E+00  1.23755293E+01  1.23755293E+01 -2.47510585E+01
  0.00000000E+00  1.23755293E+01  1.23755293E+01 -2.47510585E+01  0.00000000E+00
  1.23755293E+01  1.23755293E+01 -2.47510585E+01  0.00000000E+00  1.23755293E+01
  1.23755293E+01 -2.47510585E+01  0.00000000E+00  1.23755293E+01  1.23755293E+01
 -2.47510585E+01  0.00000000E+00  1.23755293E+01  1.23755293E+01 -2.47510585E+01
  0.00000000E+00  1.23755293E+01  1.23755293E+01 -2.47510585E+01  0.00000000E+00
  1.23755293E+01  1.23755293E+01 -2.47510585E+01  0.00000000E+00  1.23755293E+01
  1.23755293E+01 -2.47510585E+01  0.00000000E+00  1.23755293E+01  1.23755293E+01
 -2.47510585E+01  0.00000000E+00  1.23755293E+01  1.23755293E+01 -2.47510585E+01
  0.00000000E+00  1.23755293E+01  1.23755293E+01 -2.47510585E+01  0.00000000E+00
  1.23755293E+01  1.23755293E+01 -2.47510585E+01  0.00000000E+00  1.23755293E+01
  1.23755293E+01 -2.47510585E+01  0.00000000E+00  1.23755293E+01  1.23755293E+01
 -2.47510585E+01  0.00000000E+00  1.23755293E+01  1.23755293E+01 -2.47510585E+01
  0.00000000E+00  1.23755293E+01  1.23755293E+01 -2.47510585E+01  0.00000000E+00
  1.23755293E+01  1.23755293E+01 -2.47510585E+01  0.00000000E+00  1.23755293E+01
  1.23755293E+01 -2.47510585E+01  0.00000000E+00  1.23755293E+01  1.23755293E+01
 -2.47510585E+01  0.00000000E+00  1.23755293E+01  1.23755293E+01 -2.47510585E+01
  0.00000000E+00  1.23755293E+01  1.23755293E+01 -2.47510585E+01  0.00000000E+00
  1.23755293E+01  1.23755293E+01 -2.47510585E+01  0.00000000E+00  1.23755293E+01
  1.23755293E+01 -2.47510585E+01  0.00000000E+00  1.23755293E+01  1.23755293E+01
 -2.47510585E+01  0.00000000E+00  1.23755293E+01  1.23755293E+01 -2.47510585E+01
  0.00000000E+00  1.23755293E+01  1.23755293E+01 -2.47510585E+01  0.00000000E+00
  1.23755293E+01  1.23755293E+01 -2.47510585E+01  0.00000000E+00  1.23755293E+01
  1.23755293E+01 -2.47510585E+01  0.00000000E+00  1.23755293E+01  1.23755293E+01
 -2.47510585E+01  0.00000000E+00  1.23755293E+01  1.23755293E+01 -2.47510585E+01
  0.00000000E+00  1.23755293E+01  1.23755293E+01 -2.47510585E+01  0.00000000E+00
  1.23755293E+01  1.23755293E+01 -2.47510585E+01  0.00000000E+00  1.23755293E+01
  1.23755293E+01 -2.47510585E+01  0.00000000E+00  1.23755293E+01  1.23755293E+01
 -2.47510585E+01  0.00000000E+00  1.23755293E+01  1.23755293E+01 -2.47510585E+01
  0.00000000E+00  1.23755293E+01  1.23755293E+01 -2.47510585E+01  0.00000000E+00
  1.23755293E+01  1.23755293E+01 -2.47510585E+01  0.00000000E+00  1.23755293E+01
  1.23755293E+01 -2.47510585E+01  0.00000000E+00  1.23755293E+01  1.23755293E+01
 -2.47510585E+01  0.00000000E+00  1.23755293E+01  1.23755293E+01 -2.47510585E+01
  0.00000000E+00  1.23755293E+01  1.23755293E+01 -2.47510585E+01  0.00000000E+00
  1.23755293E+01  1.23755293E+01 -2.47510585E+01  0.00000000E+00  1.23755293E+01
  1.23755293E+01 -2.47510585E+01  0.00000000E+00  1.23755293E+01  1.23755293E+01
 -2.47510585E+01  0.00000000E+00  1.23755293E+01  1.23755293E+01 -2.47510585E+01
  0.00000000E+00  1.23755293E+01  1.23755293E+01 -2.47510585E+01  0.00000000E+00
  1.23755293E+01  1.23755293E+01 -2.47510585E+01  0.00000000E+00  1.23755293E+01
  1.23755293E+01 -2.47510585E+01  0.00000000E+00  1.23755293E+01  1.23755293E+01
 -2.47510585E+01  0.00000000E+00  1.23755293E+01  1.23755293E+01 -2.47510585E+01
  0.00000000E+00  1.23755293E+01  1.23755293E+01 -2.47510585E+01  0.00000000E+00
  1.23755293E+01  1.23755293E+01 -2.47510585E+01  0.00000000E+00  1.23755293E+01
  1.23755293E+01 -2.47510585E+01  0.00000000E+00  1.23755293E+01  1.23755293E+01
 -2.47510585E+01  0.00000000E+00  1.23755293E+01  1.23755293E+01 -2.47510585E+01
  0.00000000E+00  1.23755293E+01  1.23755293E+01 -2.47510585E+01  0.00000000E+00
  1.23755293E+01  1.23755293E+01 -2.47510585E+01  0.00000000E+00  1.23755293E+01
  1.23755293E+01 -2.47510585E+01  0.00000000E+00  1.23755293E+01  1.23755293E+01
 -2.47510585E+01  0.00000000E+00  1.23755293E+01  1.23755293E+01 -2.47510585E+01
  0.00000000E+00  1.23755293E+01  1.23755293E+01 -2.47510585E+01  0.00000000E+00
  1.23755293E+01  1.23755293E+01 -2.47510585E+01  0.00000000E+00  1.23755293E+01
  1.23755293E+01 -2.47510585E+01  0.00000000E+00  1.23755293E+01  1.23755293E+01
 -2.47510585E+01  0.00000000E+00  1.23755293E+01  1.23755293E+01 -2.47510585E+01
  0.00000000E+00  1.23755293E+01  1.23755293E+01 -2.47510585E+01  0.00000000E+00
  1.23755293E+01  1.23755293E+01 -2.47510585E+01  0.00000000E+00  1.23755293E+01
  1.23755293E+01 -2.47510585E+01  0.00000000E+00  1.23755293E+01  1.23755293E+01
 -2.47510585E+01  0.00000000E+00  1.23755293E+01  1.23755293E+01 -2.47510585E+01
  0.00000000E+00  1.23755293E+01  1.23755293E+01 -2.47510585E+01  0.00000000E+00
  1.23755293E+01  1.23755293E+01 -2.47510585E+01  0.00000000E+00  1.23755293E+01
  1.23755293E+01 -2.47510585E+01  0.00000000E+00  1.23755293E+01  1.23755293E+01
 -2.47510585E+01  0.00000000E+00  1.23755293E+01  1.23755293E+01 -2.47510585E+01
  0.00000000E+00  1.23755293E+01  1.23755293E+01 -2.47510585E+01  0.00000000E+00
  1.23755293E+01  1.23755293E+01 -2.47510585E+01  0.00000000E+00  1.23755293E+01
  1.23755293E+01 -2.47510585E+01  0.00000000E+00  1.23755293E+01  1.23755293E+01
 -2.47510585E+01  0.00000000E+00  1.23755293E+01  1.23755293E+01 -2.47510585E+01
  0.00000000E+00  1.23755293E+01  1.23755293E+01 -2.47510585E+01  0.00000000E+00
  1.23755293E+01  1.23755293E+01 -2.47510585E+01  0.00000000E+00  1.23755293E+01
  1.23755293E+01 -2.47510585E+01  0.00000000E+00  1.23755293E+01  1.23755293E+01
 -2.47510585E+01  0.00000000E+00  1.23755293E+01  1.23755293E+01 -2.47510585E+01
  0.00000000E+00  1.23755293E+01  1.23755293E+01 -2.47510585E+01  0.00000000E+00
  1.23755293E+01  1.23755293E+01 -2.47510585E+01  0.00000000E+00  1.23755293E+01
  1.23755293E+01 -2.47510585E+01  0.00000000E+00  1.23755293E+01  1.23755293E+01
 -2.47510585E+01  0.00000000E+00  1.23755293E+01  1.23755293E+01 -2.47510585E+01
  0.00000000E+00  1.23755293E+01  1.23755293E+01 -2.47510585E+01  0.00000000E+00
  1.23755293E+01  1.23755293E+01 -2.47510585E+01  0.00000000E+00  1.23755293E+01
  1.23755293E+01 -2.47510585E+01  0.00000000E+00  1.23755293E+01  1.23755293E+01
 -2.47510585E+01  0.00000000E+00  1.23755293E+01  1.23755293E+01 -2.47510585E+01
  0.00000000E+00  1.23755293E+01  1.23755293E+01 -2.47510585E+01  0.00000000E+00
  1.23755293E+01  1.23755293E+01 -2.47510585E+01  0.00000000E+00  1.23755293E+01
  1.23755293E+01 -2.47510585E+01  0.00000000E+00  1.23755293E+01  1.23755293E+01
 -2.47510585E+01  0.00000000E+00  1.23755293E+01  1.23755293E+01 -2.47510585E+01
  0.00000000E+00  1.23755293E+01  1.23755293E+01 -2.47510585E+01  0.00000000E+00
  1.23755293E+01  1.23755293E+01 -2.47510585E+01  0.00000000E+00  1.23755293E+01
  1.23755293E+01 -2.47510585E+01  0.00000000E+00  1.23755293E+01  1.23755293E+01
 -2.47510585E+01  0.00000000E+00  1.23755293E+01  1.23755293E+01 -2.47510585E+01
  0.00000000E+00  1.23755293E+01  1.23755293E+01 -2.47510585E+01  0.00000000E+00
  1.23755293E+01  1.23755293E+01 -2.47510585E+01  0.00000000E+00  1.23755293E+01
  1.23755293E+01 -2.47510585E+01  0.00000000E+00  1.23755293E+01  1.23755293E+01
 -2.47510585E+01  0.00000000E+00  1.23755293E+01  1.23755293E+01 -2.47510585E+01
  0.00000000E+00  1.23755293E+01  1.23755293E+01 -2.47510585E+01  0.00000000E+00
  1.23755293E+01  1.23755293E+01 -2.47510585E+01  0.00000000E+00  1.23755293E+01
  1.23755293E+01 -2.47510585E+01  0.00000000E+00  1.23755293E+01  1.23755293E+01
 -2.47510585E+01  0.00000000E+00  1.23755293E+01  1.23755293E+01 -2.47510585E+01
  0.00000000E+00  1.23755293E+01  1.23755293E+01 -2.47510585E+01  0.00000000E+00
  1.23755293E+01  1.23755293E+01 -2.47510585E+01  0.00000000E+00  1.23755293E+01
  1.23755293E+01 -2.47510585E+01  0.00000000E+00  1.23755293E+01  1.23755293E+01
 -2.47510585E+01  0.00000000E+00  1.23755293E+01  1.23755293E+01 -2.47510585E+01
  0.00000000E+00  1.23755293E+01  1.23755293E+01 -2.47510585E+01  0.00000000E+00
  1.23755293E+01  1.23755293E+01 -2.47510585E+01  0.00000000E+00  1.23755293E+01
  1.23755293E+01 -2.47510585E+01  0.00000000E+00  1.23755293E+01  1.23755293E+01
 -2.47510585E+01  0.00000000E+00  1.23755293E+01  1.23755293E+01 -2.47510585E+01
  0.00000000E+00  1.23755293E+01  1.23755293E+01 -2.47510585E+01  0.00000000E+00
  1.23755293E+01  1.23755293E+01 -2.47510585E+01  0.00000000E+00  1.23755293E+01
  1.23755293E+01 -2.47510585E+01  0.00000000E+00  1.23755293E+01  1.23755293E+01
 -2.47510585E+01  0.00000000E+00  1.23755293E+01  1.23755293E+01 -2.47510585E+01
  0.00000000E+00  1.23755293E+01  1.23755293E+01 -2.47510585E+01  0.00000000E+00
  1.23755293E+01  1.23755293E+01 -2.47510585E+01  0.00000000E+00  1.23755293E+01
  1.23755293E+01 -2.47510585E+01  0.00000000E+00  1.23755293E+01  1.23755293E+01
 -2.47510585E+01  0.00000000E+00  1.23755293E+01  1.23755293E+01 -2.47510585E+01
  0.00000000E+00  1.23755293E+01  1.23755293E+01 -2.47510585E+01  0.00000000E+00
  1.23755293E+01  1.23755293E+01 -2.47510585E+01  0.00000000E+00  1.23755293E+01
  1.23755293E+01 -2.47510585E+01  0.00000000E+00  1.23755293E+01  1.23755293E+01
 -2.47510585E+01  0.00000000E+00  1.23755293E+01  1.23755293E+01 -2.47510585E+01
  0.00000000E+00  1.23755293E+01  1.23755293E+01 -2.47510585E+01  0.00000000E+00
  1.23755293E+01  1.23755293E+01 -2.47510585E+01  0.00000000E+00  1.23755293E+01
  1.23755293E+01 -2.47510585E+01  0.00000000E+00  1.23755293E+01  1.23755293E+01
 -2.47510585E+01  0.00000000E+00  1.23755293E+01  1.23755293E+01 -2.47510585E+01
  0.00000000E+00  1.23755293E+01  1.23755293E+01 -2.47510585E+01  0.00000000E+00
  1.23755293E+01  1.23755293E+01 -2.47510585E+01  0.00000000E+00  1.23755293E+01
  1.23755293E+01 -2.47510585E+01  0.00000000E+00  1.23755293E+01  1.23755293E+01
 -2.47510585E+01  0.00000000E+00  1.23755293E+01  1.23755293E+01 -2.47510585E+01
  0.00000000E+00  1.23755293E+01  1.23755293E+01 -2.47510585E+01  0.00000000E+00
  1.23755293E+01  1.23755293E+01 -2.47510585E+01  0.00000000E+00  1.23755293E+01
  1.23755293E+01 -2.47510585E+01  0.00000000E+00  1.23755293E+01  1.23755293E+01
 -2.47510585E+01  0.00000000E+00  1.23755293E+01  1.23755293E+01 -2.47510585E+01
  0.00000000E+00  1.23755293E+01  1.23755293E+01 -2.47510585E+01  0.00000000E+00
  1.23755293E+01  1.23755293E+01 -2.47510585E+01  0.00000000E+00  1.23755293E+01
  1.23755293E+01 -2.47510585E+01  0.00000000E+00  1.23755293E+01  1.23755293E+01
 -2.47510585E+01  0.00000000E+00  1.23755293E+01  1.23755293E+01 -2.47510585E+01
  0.00000000E+00  1.23755293E+01  1.23755293E+01 -2.47510585E+01  0.00000000E+00
  1.23755293E+01  1.23755293E+01 -2.47510585E+01  0.00000000E+00  1.23755293E+01
  1.23755293E+01 -2.47510585E+01  0.00000000E+00  1.23755293E+01  1.23755293E+01
 -2.47510585E+01  0.00000000E+00  1.23755293E+01  1.23755293E+01 -2.47510585E+01
  0.00000000E+00  1.23755293E+01  1.23755293E+01 -2.47510585E+01  0.00000000E+00
  1.23755293E+01  1.23755293E+01 -2.47510585E+01  0.00000000E+00  1.23755293E+01
  1.23755293E+01 -2.47510585E+01  0.00000000E+00  1.23755293E+01  1.23755293E+01
 -2.47510585E+01  0.00000000E+00  1.23755293E+01  1.23755293E+01 -2.47510585E+01
  0.00000000E+00  1.23755293E+01  1.23755293E+01 -2.47510585E+01  0.00000000E+00
  1.23755293E+01  1.23755293E+01 -2.47510585E+01  0.00000000E+00  1.23755293E+01
  1.23755293E+01 -2.47510585E+01  0.00000000E+00  1.23755293E+01  1.23755293E+01
 -2.47510585E+01  0.00000000E+00  1.23755293E+01  1.23755293E+01 -2.47510585E+01
  0.00000000E+00  1.23755293E+01  1.23755293E+01 -2.47510585E+01  0.00000000E+00
  1.23755293E+01  1.23755293E+01 -2.47510585E+01  0.00000000E+00  1.23755293E+01
  1.23755293E+01 -2.47510585E+01  0.00000000E+00  1.23755293E+01  1.23755293E+01
 -2.47510585E+01  0.00000000E+00  1.23755293E+01  1.23755293E+01 -2.47510585E+01
  0.00000000E+00  1.23755293E+01  1.23755293E+01 -2.47510585E+01  0.00000000E+00
  1.23755293E+01  1.23755293E+01 -2.47510585E+01  0.00000000E+00  1.23755293E+01
  1.23755293E+01 -2.47510585E+01  0.00000000E+00  1.23755293E+01  1.23755293E+01
 -2.47510585E+01  0.00000000E+00  1.23755293E+01  1.23755293E+01 -2.47510585E+01
  0.00000000E+00  1.23755293E+01  1.23755293E+01 -2.47510585E+01  0.00000000E+00
  1.23755293E+01  1.23755293E+01 -2.47510585E+01  0.00000000E+00  1.23755293E+01
  1.23755293E+01 -2.47510585E+01  0.00000000E+00  1.23755293E+01  1.23755293E+01
 -2.47510585E+01  0.00000000E+00  1.23755293E+01  1.23755293E+01 -2.47510585E+01
  0.00000000E+00  1.23755293E+01  1.23755293E+01 -2.47510585E+01  0.00000000E+00
  1.23755293E+01  1.23755293E+01 -2.47510585E+01  0.00000000E+00  1.23755293E+01
  1.23755293E+01 -2.47510585E+01  0.00000000E+00  1.23755293E+01  1.23755293E+01
 -2.47510585E+01  0.00000000E+00  1.23755293E+01  1.23755293E+01 -2.47510585E+01
  0.00000000E+00  1.23755293E+01  1.23755293E+01 -2.47510585E+01  0.00000000E+00
  1.23755293E+01  1.23755293E+01 -2.47510585E+01  0.00000000E+00  1.23755293E+01
  1.23755293E+01 -2.47510585E+01  0.00000000E+00  1.23755293E+01  1.23755293E+01
 -2.47510585E+01  0.00000000E+00  1.23755293E+01  1.23755293E+01 -2.47510585E+01
  0.00000000E+00  1.23755293E+01  1.23755293E+01 -2.47510585E+01  0.00000000E+00
  1.23755293E+01  1.23755293E+01 -2.47510585E+01  0.00000000E+00  1.23755293E+01
  1.23755293E+01 -2.47510585E+01  0.00000000E+00  1.23755293E+01  1.23755293E+01
 -2.47510585E+01  0.00000000E+00  1.23755293E+01  1.23755293E+01 -2.47510585E+01
  0.00000000E+00  1.23755293E+01  1.23755293E+01 -2.47510585E+01  0.00000000E+00
  1.23755293E+01  1.23755293E+01 -2.47510585E+01  0.00000000E+00  1.23755293E+01
  1.23755293E+01 -2.47510585E+01  0.00000000E+00  1.23755293E+01  1.23755293E+01
 -2.47510585E+01  0.00000000E+00  1.23755293E+01  1.23755293E+01 -2.47510585E+01
  0.00000000E+00  1.23755293E+01  1.23755293E+01 -2.47510585E+01  0.00000000E+00
  1.23755293E+01  1.23755293E+01 -2.47510585E+01  0.00000000E+00  1.23755293E+01
  1.23755293E+01 -2.47510585E+01  0.00000000E+00  1.23755293E+01  1.23755293E+01
 -2.47510585E+01  0.00000000E+00  1.23755293E+01  1.23755293E+01 -2.47510585E+01
  0.00000000E+00  1.23755293E+01  1.23755293E+01 -2.47510585E+01  0.00000000E+00
  1.23755293E+01  1.23755293E+01 -2.47510585E+01  0.00000000E+00  1.23755293E+01
  1.23755293E+01 -2.47510585E+01  0.00000000E+00  1.23755293E+01  1.23755293E+01
 -2.47510585E+01  0.00000000E+00  1.23755293E+01  1.23755293E+01 -2.47510585E+01
  0.00000000E+00  1.23755293E+01  1.23755293E+01 -2.47510585E+01  0.00000000E+00
  1.23755293E+01  1.23755293E+01 -2.47510585E+01  0.00000000E+00  1.23755293E+01
  1.23755293E+01 -2.47510585E+01  0.00000000E+00  1.23755293E+01  1.23755293E+01
 -2.47510585E+01  0.00000000E+00  1.23755293E+01  1.23755293E+01 -2.47510585E+01
  0.00000000E+00  1.23755293E+01  1.23755293E+01 -2.47510585E+01  0.00000000E+00
  1.23755293E+01  1.23755293E+01 -2.47510585E+01  0.00000000E+00  1.23755293E+01
  1.23755293E+01 -2.47510585E+01  0.00000000E+00  1.23755293E+01  1.23755293E+01
 -2.47510585E+01  0.00000000E+00  1.23755293E+01  1.23755293E+01 -2.47510585E+01
  0.00000000E+00  1.23755293E+01  1.23755293E+01 -2.47510585E+01  0.00000000E+00
  1.23755293E+01  1.23755293E+01 -2.47510585E+01  0.00000000E+00  1.23755293E+01
  1.23755293E+01 -2.47510585E+01  0.00000000E+00  1.23755293E+01  1.23755293E+01
 -2.47510585E+01  0.00000000E+00  1.23755293E+01  1.23755293E+01 -2.47510585E+01
  0.00000000E+00  1.23755293E+01  1.23755293E+01 -2.47510585E+01  0.00000000E+00
  1.23755293E+01  1.23755293E+01 -2.47510585E+01  0.00000000E+00  1.23755293E+01
  1.23755293E+01 -2.47510585E+01  0.00000000E+00  1.23755293E+01  1.23755293E+01
 -2.47510585E+01  0.00000000E+00  1.23755293E+01  1.23755293E+01 -2.47510585E+01
  0.00000000E+00  1.23755293E+01  1.23755293E+01 -2.47510585E+01  0.00000000E+00
  1.23755293E+01  1.23755293E+01 -2.47510585E+01  0.00000000E+00  1.23755293E+01
  1.23755293E+01 -2.47510585E+01  0.00000000E+00  1.23755293E+01  1.23755293E+01
 -2.47510585E+01  0.00000000E+00  1.23755293E+01  1.23755293E+01 -2.47510585E+01
  0.00000000E+00  1.23755293E+01  1.23755293E+01 -2.47510585E+01  0.00000000E+00
  1.23755293E+01  1.23755293E+01 -2.47510585E+01  0.00000000E+00  1.23755293E+01
  1.23755293E+01 -2.47510585E+01  0.00000000E+00  1.23755293E+01  1.23755293E+01
 -2.47510585E+01  0.00000000E+00  1.23755293E+01  1.23755293E+01 -2.47510585E+01
  0.00000000E+00  1.23755293E+01  1.23755293E+01 -2.47510585E+01  0.00000000E+00
  1.23755293E+01  1.23755293E+01 -2.47510585E+01  0.00000000E+00  1.23755293E+01
  1.23755293E+01 -2.47510585E+01  0.00000000E+00  1.23755293E+01  1.23755293E+01
 -2.47510585E+01  0.00000000E+00  1.23755293E+01  1.23755293E+01 -2.47510585E+01
  0.00000000E+00  1.23755293E+01  1.23755293E+01 -2.47510585E+01  0.00000000E+00
  1.23755293E+01  1.23755293E+01 -2.47510585E+01  0.00000000E+00  1.23755293E+01
  1.23755293E+01 -2.47510585E+01  0.00000000E+00  1.23755293E+01  1.23755293E+01
 -2.47510585E+01  0.00000000E+00  1.23755293E+01  1.23755293E+01 -2.47510585E+01
  0.00000000E+00  1.23755293E+01  1.23755293E+01 -2.47510585E+01  0.00000000E+00
  1.23755293E+01  1.23755293E+01 -2.47510585E+01  0.00000000E+00  1.23755293E+01
  1.23755293E+01 -2.47510585E+01  0.00000000E+00  1.23755293E+01  1.23755293E+01
 -2.47510585E+01  0.00000000E+00  1.23755293E+01  1.23755293E+01 -2.47510585E+01
  0.00000000E+00  1.23755293E+01  1.23755293E+01 -2.47510585E+01  0.00000000E+00
  1.23755293E+01  1.23755293E+01 -2.47510585E+01  0.00000000E+00  1.23755293E+01
  1.23755293E+01 -2.47510585E+01  0.00000000E+00  1.23755293E+01  1.23755293E+01
 -2.47510585E+01  0.00000000E+00  1.23755293E+01  1.23755293E+01 -2.47510585E+01
  0.00000000E+00  1.23755293E+01  1.23755293E+01 -2.47510585E+01  0.00000000E+00
  1.23755293E+01  1.23755293E+01 -2.47510585E+01  0.00000000E+00  1.23755293E+01
  1.23755293E+01 -2.47510585E+01  0.00000000E+00  1.23755293E+01  1.23755293E+01
 -2.47510585E+01  0.00000000E+00  1.23755293E+01  1.23755293E+01 -2.47510585E+01
  0.00000000E+00  1.23755293E+01  1.23755293E+01 -2.47510585E+01  0.00000000E+00
  1.23755293E+01  1.23755293E+01 -2.47510585E+01  0.00000000E+00  1.23755293E+01
  1.23755293E+01 -2.47510585E+01  0.00000000E+00  1.23755293E+01  1.23755293E+01
 -2.47510585E+01  0.00000000E+00  1.23755293E+01  1.23755293E+01 -2.47510585E+01
  0.00000000E+00  1.23755293E+01  1.23755293E+01 -2.47510585E+01  0.00000000E+00
  1.23755293E+01  1.23755293E+01 -2.47510585E+01  0.00000000E+00  1.23755293E+01
  1.23755293E+01 -2.47510585E+01  0.00000000E+00  1.23755293E+01  1.23755293E+01
 -2.47510585E+01  0.00000000E+00  1.23755293E+01  1.23755293E+01 -2.47510585E+01
  0.00000000E+00  1.23755293E+01  1.23755293E+01 -2.47510585E+01  0.00000000E+00
  1.23755293E+01  1.23755293E+01 -2.47510585E+01  0.00000000E+00  1.23755293E+01
  1.23755293E+01 -2.47510585E+01  0.00000000E+00  1.23755293E+01  1.23755293E+01
 -2.47510585E+01  0.00000000E+00  1.23755293E+01  1.23755293E+01 -2.47510585E+01
  0.00000000E+00  1.23755293E+01  1.23755293E+01 -2.47510585E+01  0.00000000E+00
  1.23755293E+01  1.23755293E+01 -2.47510585E+01  0.00000000E+00  1.23755293E+01
  1.23755293E+01 -2.47510585E+01  0.00000000E+00  1.23755293E+01  1.23755293E+01
 -2.47510585E+01  0.00000000E+00  1.23755293E+01  1.23755293E+01 -2.47510585E+01
  0.00000000E+00  1.23755293E+01  1.23755293E+01 -2.47510585E+01  0.00000000E+00
  1.23755293E+01  1.23755293E+01 -2.47510585E+01  0.00000000E+00  1.23755293E+01
  1.23755293E+01 -2.47510585E+01  0.00000000E+00  1.23755293E+01  1.23755293E+01
 -2.47510585E+01  0.00000000E+00  1.23755293E+01  1.23755293E+01 -2.47510585E+01
  0.00000000E+00  1.23755293E+01  1.23755293E+01 -2.47510585E+01  0.00000000E+00
  1.23755293E+01  1.23755293E+01 -2.47510585E+01  0.00000000E+00  1.23755293E+01
  1.23755293E+01 -2.47510585E+01  0.00000000E+00  1.23755293E+01  1.23755293E+01
 -2.47510585E+01  0.00000000E+00  1.23755293E+01  1.23755293E+01 -2.47510585E+01
  0.00000000E+00  1.23755293E+01  1.23755293E+01 -2.47510585E+01  0.00000000E+00
  1.23755293E+01  1.23755293E+01 -2.47510585E+01  0.00000000E+00  1.23755293E+01
  1.23755293E+01 -2.47510585E+01  0.00000000E+00  1.23755293E+01  1.23755293E+01
 -2.47510585E+01  0.00000000E+00  1.23755293E+01  1.23755293E+01 -2.47510585E+01
  0.00000000E+00  1.23755293E+01  1.23755293E+01 -2.47510585E+01  0.00000000E+00
  1.23755293E+01  1.23755293E+01 -2.47510585E+01  0.00000000E+00  1.23755293E+01
  1.23755293E+01 -2.47510585E+01  0.00000000E+00  1.23755293E+01  1.23755293E+01
 -2.47510585E+01  0.00000000E+00  1.23755293E+01  1.23755293E+01 -2.47510585E+01
  0.00000000E+00  1.23755293E+01  1.23755293E+01 -2.47510585E+01  0.00000000E+00
  1.23755293E+01  1.23755293E+01 -2.47510585E+01  0.00000000E+00  1.23755293E+01
  1.23755293E+01 -2.47510585E+01  0.00000000E+00  1.23755293E+01  1.23755293E+01
 -2.47510585E+01  0.00000000E+00  1.23755293E+01  1.23755293E+01 -2.47510585E+01
  0.00000000E+00  1.23755293E+01  1.23755293E+01 -2.47510585E+01  0.00000000E+00
  1.23755293E+01  1.23755293E+01 -2.47510585E+01  0.00000000E+00  1.23755293E+01
  1.23755293E+01 -2.47510585E+01  0.00000000E+00  1.23755293E+01  1.23755293E+01
 -2.47510585E+01  0.00000000E+00  1.23755293E+01  1.23755293E+01 -2.47510585E+01
  0.00000000E+00  1.23755293E+01  1.23755293E+01 -2.47510585E+01  0.00000000E+00
  1.23755293E+01  1.23755293E+01 -2.47510585E+01  0.00000000E+00  1.23755293E+01
  1.23755293E+01 -2.47510585E+01  0.00000000E+00  1.23755293E+01  1.23755293E+01
 -2.47510585E+01  0.00000000E+00  1.23755293E+01  1.23755293E+01 -2.47510585E+01
  0.00000000E+00  1.23755293E+01  1.23755293E+01 -2.47510585E+01  0.00000000E+00
  1.23755293E+01  1.23755293E+01 -2.47510585E+01  0.00000000E+00  1.23755293E+01
  1.23755293E+01 -2.47510585E+01  0.00000000E+00  1.23755293E+01  1.23755293E+01
 -2.47510585E+01  0.00000000E+00  1.23755293E+01  1.23755293E+01 -2.47510585E+01
  0.00000000E+00  1.23755293E+01  1.23755293E+01 -2.47510585E+01  0.00000000E+00
  1.23755293E+01  1.23755293E+01 -2.47510585E+01  0.00000000E+00  1.23755293E+01
  1.23755293E+01 -2.47510585E+01  0.00000000E+00  1.23755293E+01  1.23755293E+01
 -2.47510585E+01  0.00000000E+00  1.23755293E+01  1.23755293E+01 -2.47510585E+01
  0.00000000E+00  1.23755293E+01  1.23755293E+01 -2.47510585E+01  0.00000000E+00
  1.23755293E+01  1.23755293E+01 -2.47510585E+01  0.00000000E+00  1.23755293E+01
  1.23755293E+01 -2.47510585E+01  0.00000000E+00  1.23755293E+01  1.23755293E+01
 -2.47510585E+01  0.00000000E+00  1.23755293E+01  1.23755293E+01 -2.47510585E+01
  0.00000000E+00  1.23755293E+01  1.23755293E+01 -2.47510585E+01  0.00000000E+00
  1.23755293E+01  1.23755293E+01 -2.47510585E+01  0.00000000E+00  1.23755293E+01
  1.23755293E+01 -2.47510585E+01  0.00000000E+00  1.23755293E+01  1.23755293E+01
 -2.47510585E+01  0.00000000E+00  1.23755293E+01  1.23755293E+01 -2.47510585E+01
  0.00000000E+00  1.23755293E+01  1.23755293E+01 -2.47510585E+01  0.00000000E+00
  1.23755293E+01  1.23755293E+01 -2.47510585E+01  0.00000000E+00  1.23755293E+01
  1.23755293E+01 -2.47510585E+01  0.00000000E+00  1.23755293E+01  1.23755293E+01
 -2.47510585E+01  0.00000000E+00  1.23755293E+01  1.23755293E+01 -2.47510585E+01
  0.00000000E+00  1.23755293E+01  1.23755293E+01 -2.47510585E+01  0.00000000E+00
  1.23755293E+01  1.23755293E+01 -2.47510585E+01  0.00000000E+00  1.23755293E+01
  1.23755293E+01 -2.47510585E+01  0.00000000E+00  1.23755293E+01  1.23755293E+01
 -2.47510585E+01  0.00000000E+00  1.23755293E+01  1.23755293E+01 -2.47510585E+01
  0.00000000E+00  1.23755293E+01  1.23755293E+01 -2.47510585E+01  0.00000000E+00
  1.23755293E+01  1.23755293E+01 -2.47510585E+01  0.00000000E+00  1.23755293E+01
  1.23755293E+01 -2.47510585E+01  0.00000000E+00  1.23755293E+01  1.23755293E+01
 -2.47510585E+01  0.00000000E+00  1.23755293E+01  1.23755293E+01 -2.47510585E+01
  0.00000000E+00  1.23755293E+01  1.23755293E+01 -2.47510585E+01  0.00000000E+00
  1.23755293E+01  1.23755293E+01 -2.47510585E+01  0.00000000E+00  1.23755293E+01
  1.23755293E+01 -2.47510585E+01  0.00000000E+00  1.23755293E+01  1.23755293E+01
 -2.47510585E+01  0.00000000E+00  1.23755293E+01  1.23755293E+01 -2.47510585E+01
  0.00000000E+00  1.23755293E+01  1.23755293E+01 -2.47510585E+01  0.00000000E+00
  1.23755293E+01  1.23755293E+01 -2.47510585E+01  0.00000000E+00  1.23755293E+01
  1.23755293E+01 -2.47510585E+01  0.00000000E+00  1.23755293E+01  1.23755293E+01
 -2.47510585E+01  0.00000000E+00  1.23755293E+01  1.23755293E+01 -2.47510585E+01
  0.00000000E+00  1.23755293E+01  1.23755293E+01 -2.47510585E+01  0.00000000E+00
  1.23755293E+01  1.23755293E+01 -2.47510585E+01  0.00000000E+00  1.23755293E+01
  1.23755293E+01 -2.47510585E+01  0.00000000E+00  1.23755293E+01  1.23755293E+01
 -2.47510585E+01  0.00000000E+00  1.23755293E+01  1.23755293E+01 -2.47510585E+01
  0.00000000E+00  1.23755293E+01  1.23755293E+01 -2.47510585E+01  0.00000000E+00
  1.23755293E+01  1.23755293E+01 -2.47510585E+01  0.00000000E+00  1.23755293E+01
  1.23755293E+01 -2.47510585E+01  0.00000000E+00  1.23755293E+01  1.23755293E+01
 -2.47510585E+01  0.00000000E+00  1.23755293E+01  1.23755293E+01 -2.47510585E+01
  0.00000000E+00  1.23755293E+01  1.23755293E+01 -2.47510585E+01  0.00000000E+00
  1.23755293E+01  1.23755293E+01 -2.47510585E+01  0.00000000E+00  1.23755293E+01
  1.23755293E+01 -2.47510585E+01  0.00000000E+00  1.23755293E+01  1.23755293E+01
 -2.47510585E+01  0.00000000E+00  1.23755293E+01  1.23755293E+01 -2.47510585E+01
  0.00000000E+00  1.23755293E+01  1.23755293E+01 -2.47510585E+01  0.00000000E+00
  1.23755293E+01  1.23755293E+01 -2.47510585E+01  0.00000000E+00  1.23755293E+01
  1.23755293E+01 -2.47510585E+01  0.00000000E+00  1.23755293E+01  1.23755293E+01
 -2.47510585E+01  0.00000000E+00  1.23755293E+01  1.23755293E+01 -2.47510585E+01
  0.00000000E+00  1.23755293E+01  1.23755293E+01 -2.47510585E+01  0.00000000E+00
  1.23755293E+01  1.23755293E+01 -2.47510585E+01  0.00000000E+00  1.23755293E+01
  1.23755293E+01 -2.47510585E+01  0.00000000E+00  1.23755293E+01  1.23755293E+01
 -2.47510585E+01  0.00000000E+00  1.23755293E+01  1.23755293E+01 -2.47510585E+01
  0.00000000E+00  1.23755293E+01  1.23755293E+01 -2.47510585E+01  0.00000000E+00
  1.23755293E+01  1.23755293E+01 -2.47510585E+01  0.00000000E+00  1.23755293E+01
  1.23755293E+01 -2.47510585E+01  0.00000000E+00  1.23755293E+01  1.23755293E+01
 -2.47510585E+01  0.00000000E+00  1.23755293E+01  1.23755293E+01 -2.47510585E+01
  0.00000000E+00  1.23755293E+01  1.23755293E+01 -2.47510585E+01  0.00000000E+00
  1.23755293E+01  1.23755293E+01 -2.47510585E+01  0.00000000E+00  1.23755293E+01
  1.23755293E+01 -2.47510585E+01  0.00000000E+00  1.23755293E+01  1.23755293E+01
 -2.47510585E+01  0.00000000E+00  1.23755293E+01  1.23755293E+01 -2.47510585E+01
  0.00000000E+00  1.23755293E+01  1.23755293E+01 -2.47510585E+01  0.00000000E+00
  1.23755293E+01  1.23755293E+01 -2.47510585E+01  0.00000000E+00  1.23755293E+01
  1.23755293E+01 -2.47510585E+01  0.00000000E+00  1.23755293E+01  1.23755293E+01
 -2.47510585E+01  0.00000000E+00  1.23755293E+01  1.23755293E+01 -2.47510585E+01
  0.00000000E+00  1.23755293E+01  1.23755293E+01 -2.47510585E+01  0.00000000E+00
  1.23755293E+01  1.23755293E+01 -2.47510585E+01  0.00000000E+00  1.23755293E+01
  1.23755293E+01 -2.47510585E+01  0.00000000E+00  1.23755293E+01  1.23755293E+01
 -2.47510585E+01  0.00000000E+00  1.23755293E+01  1.23755293E+01 -2.47510585E+01
  0.00000000E+00  1.23755293E+01  1.23755293E+01 -2.47510585E+01  0.00000000E+00
  1.23755293E+01  1.23755293E+01 -2.47510585E+01  0.00000000E+00  1.23755293E+01
  1.23755293E+01 -2.47510585E+01  0.00000000E+00  1.23755293E+01  1.23755293E+01
 -2.47510585E+01  0.00000000E+00  1.23755293E+01  1.23755293E+01 -2.47510585E+01
  0.00000000E+00  1.23755293E+01  1.23755293E+01 -2.47510585E+01  0.00000000E+00
  1.23755293E+01  1.23755293E+01 -2.47510585E+01  0.00000000E+00  1.23755293E+01
  1.23755293E+01 -2.47510585E+01  0.00000000E+00  1.23755293E+01  1.23755293E+01
 -2.47510585E+01  0.00000000E+00  1.23755293E+01  1.23755293E+01 -2.47510585E+01
  0.00000000E+00  1.23755293E+01  1.23755293E+01 -2.47510585E+01  0.00000000E+00
  1.23755293E+01  1.23755293E+01 -2.47510585E+01  0.00000000E+00  1.23755293E+01
  1.23755293E+01 -2.47510585E+01  0.00000000E+00  1.23755293E+01  1.23755293E+01
 -2.47510585E+01  0.00000000E+00  1.23755293E+01  1.23755293E+01 -2.47510585E+01
  0.00000000E+00  1.23755293E+01  1.23755293E+01 -2.47510585E+01  0.00000000E+00
  1.23755293E+01  1.23755293E+01 -2.47510585E+01  0.00000000E+00  1.23755293E+01
  1.23755293E+01 -2.47510585E+01  0.00000000E+00  1.23755293E+01  1.23755293E+01
 -2.47510585E+01  0.00000000E+00  1.23755293E+01  1.23755293E+01 -2.47510585E+01
  0.00000000E+00  1.23755293E+01  1.23755293E+01 -2.47510585E+01  0.00000000E+00
  1.23755293E+01  1.23755293E+01 -2.47510585E+01  0.00000000E+00  1.23755293E+01
  1.23755293E+01 -2.47510585E+01  0.00000000E+00  1.23755293E+01  1.23755293E+01
 -2.47510585E+01  0.00000000E+00  1.23755293E+01  1.23755293E+01 -2.47510585E+01
  0.00000000E+00  1.23755293E+01  1.23755293E+01 -2.47510585E+01  0.00000000E+00
  1.23755293E+01  1.23755293E+01 -2.47510585E+01  0.00000000E+00  1.23755293E+01
  1.23755293E+01 -2.47510585E+01  0.00000000E+00  1.23755293E+01  1.23755293E+01
 -2.47510585E+01  0.00000000E+00  1.23755293E+01  1.23755293E+01 -2.47510585E+01
  0.00000000E+00  1.23755293E+01  1.23755293E+01 -2.47510585E+01  0.00000000E+00
  1.23755293E+01  1.23755293E+01 -2.47510585E+01  0.00000000E+00  1.23755293E+01
  1.23755293E+01 -2.47510585E+01  0.00000000E+00  1.23755293E+01  1.23755293E+01
 -2.47510585E+01  0.00000000E+00  1.23755293E+01  1.23755293E+01 -2.47510585E+01
  0.00000000E+00  1.23755293E+01  1.23755293E+01 -2.47510585E+01  0.00000000E+00
  1.23755293E+01  1.23755293E+01 -2.47510585E+01  0.00000000E+00  1.23755293E+01
  1.23755293E+01 -2.47510585E+01  0.00000000E+00  1.23755293E+01  1.23755293E+01
 -2.47510585E+01  0.00000000E+00  1.23755293E+01  1.23755293E+01 -2.47510585E+01
  0.00000000E+00  1.23755293E+01  1.23755293E+01 -2.47510585E+01  0.00000000E+00
  1.23755293E+01  1.23755293E+01 -2.47510585E+01  0.00000000E+00  1.23755293E+01
  1.23755293E+01 -2.47510585E+01  0.00000000E+00  1.23755293E+01  1.23755293E+01
 -2.47510585E+01  0.00000000E+00  1.23755293E+01  1.23755293E+01 -2.47510585E+01
  0.00000000E+00  1.23755293E+01  1.23755293E+01 -2.47510585E+01  0.00000000E+00
  1.23755293E+01  1.23755293E+01 -2.47510585E+01  0.00000000E+00  1.23755293E+01
  1.23755293E+01 -2.47510585E+01  0.00000000E+00  1.23755293E+01  1.23755293E+01
 -2.47510585E+01  0.00000000E+00  1.23755293E+01  1.23755293E+01 -2.47510585E+01
  0.00000000E+00  1.23755293E+01  1.23755293E+01 -2.47510585E+01  0.00000000E+00
  1.23755293E+01  1.23755293E+01 -2.47510585E+01  0.00000000E+00  1.23755293E+01
  1.23755293E+01 -2.47510585E+01  0.00000000E+00  1.23755293E+01  1.23755293E+01
 -2.47510585E+01  0.00000000E+00  1.23755293E+01  1.23755293E+01 -2.47510585E+01
  0.00000000E+00  1.23755293E+01  1.23755293E+01 -2.47510585E+01  0.00000000E+00
  1.23755293E+01  1.23755293E+01 -2.47510585E+01  0.00000000E+00  1.23755293E+01
  1.23755293E+01 -2.47510585E+01  0.00000000E+00  1.23755293E+01  1.23755293E+01
 -2.47510585E+01  0.00000000E+00  1.23755293E+01  1.23755293E+01 -2.47510585E+01
  0.00000000E+00  1.23755293E+01  1.23755293E+01 -2.47510585E+01  0.00000000E+00
  1.23755293E+01  1.23755293E+01 -2.47510585E+01  0.00000000E+00  1.23755293E+01
  1.23755293E+01 -2.47510585E+01  0.00000000E+00  1.23755293E+01  1.23755293E+01
 -2.47510585E+01  0.00000000E+00  1.23755293E+01  1.23755293E+01 -2.47510585E+01
  0.00000000E+00  1.23755293E+01  1.23755293E+01 -2.47510585E+01  0.00000000E+00
  1.23755293E+01  1.23755293E+01 -2.47510585E+01  0.00000000E+00  1.23755293E+01
  1.23755293E+01 -2.47510585E+01  0.00000000E+00  1.23755293E+01  1.23755293E+01
 -2.47510585E+01  0.00000000E+00  1.23755293E+01  1.23755293E+01 -2.47510585E+01
  0.00000000E+00  1.23755293E+01  1.23755293E+01 -2.47510585E+01  0.00000000E+00
  1.23755293E+01  1.23755293E+01 -2.47510585E+01  0.00000000E+00  1.23755293E+01
  1.23755293E+01 -2.47510585E+01  0.00000000E+00  1.23755293E+01  1.23755293E+01
 -2.47510585E+01  0.00000000E+00  1.23755293E+01  1.23755293E+01 -2.47510585E+01
  0.00000000E+00  1.23755293E+01  1.23755293E+01 -2.47510585E+01  0.00000000E+00
  1.23755293E+01  1.23755293E+01 -2.47510585E+01  0.00000000E+00  1.23755293E+01
  1.23755293E+01 -2.47510585E+01  0.00000000E+00  1.23755293E+01  1.23755293E+01
 -2.47510585E+01  0.00000000E+00  1.23755293E+01  1.23755293E+01 -2.47510585E+01
  0.00000000E+00  1.23755293E+01  1.23755293E+01 -2.47510585E+01  0.00000000E+00
  1.23755293E+01  1.23755293E+01 -2.47510585E+01  0.00000000E+00  1.23755293E+01
  1.23755293E+01 -2.47510585E+01  0.00000000E+00  1.23755293E+01  1.23755293E+01
 -2.47510585E+01  0.00000000E+00  1.23755293E+01  1.23755293E+01 -2.47510585E+01
  0.00000000E+00  1.23755293E+01  1.23755293E+01 -2.47510585E+01  0.00000000E+00
  1.23755293E+01  1.23755293E+01 -2.47510585E+01  0.00000000E+00  1.23755293E+01
  1.23755293E+01 -2.47510585E+01  0.00000000E+00  1.23755293E+01  1.23755293E+01
 -2.47510585E+01  0.00000000E+00  1.23755293E+01  1.23755293E+01 -2.47510585E+01
  0.00000000E+00  1.23755293E+01  1.23755293E+01 -2.47510585E+01  0.00000000E+00
  1.23755293E+01  1.23755293E+01 -2.47510585E+01  0.00000000E+00  1.23755293E+01
  1.23755293E+01 -2.47510585E+01  0.00000000E+00  1.23755293E+01  1.23755293E+01
 -2.47510585E+01  0.00000000E+00  1.23755293E+01  1.23755293E+01 -2.47510585E+01
  0.00000000E+00  1.23755293E+01  1.23755293E+01 -2.47510585E+01  0.00000000E+00
  1.23755293E+01  1.23755293E+01 -2.47510585E+01  0.00000000E+00  1.23755293E+01
  1.23755293E+01 -2.47510585E+01  0.00000000E+00  1.23755293E+01  1.23755293E+01
 -2.47510585E+01  0.00000000E+00  1.23755293E+01  1.23755293E+01 -2.47510585E+01
  0.00000000E+00  1.23755293E+01  1.23755293E+01 -2.47510585E+01  0.00000000E+00
  1.23755293E+01  1.23755293E+01 -2.47510585E+01  0.00000000E+00  1.23755293E+01
  1.23755293E+01 -2.47510585E+01  0.00000000E+00  1.23755293E+01  1.23755293E+01
 -2.47510585E+01  0.00000000E+00  1.23755293E+01  1.23755293E+01 -2.47510585E+01
  0.00000000E+00  1.23755293E+01  1.23755293E+01 -2.47510585E+01  0.00000000E+00
  1.23755293E+01  1.23755293E+01 -2.47510585E+01  0.00000000E+00  1.23755293E+01
  1.23755293E+01 -2.47510585E+01  0.00000000E+00  1.23755293E+01  1.23755293E+01
 -2.47510585E+01  0.00000000E+00  1.23755293E+01  1.23755293E+01 -2.47510585E+01
  0.00000000E+00  1.23755293E+01  1.23755293E+01 -2.47510585E+01  0.00000000E+00
  1.23755293E+01  1.23755293E+01 -2.47510585E+01  0.00000000E+00  1.23755293E+01
  1.23755293E+01 -2.47510585E+01  0.00000000E+00  1.23755293E+01  1.23755293E+01
 -2.47510585E+01  0.00000000E+00  1.23755293E+01  1.23755293E+01 -2.47510585E+01
  0.00000000E+00  1.23755293E+01  1.23755293E+01 -2.47510585E+01  0.00000000E+00
  1.23755293E+01  1.23755293E+01 -2.47510585E+01  0.00000000E+00  1.23755293E+01
  1.23755293E+01 -2.47510585E+01  0.00000000E+00  1.23755293E+01  1.23755293E+01
 -2.47510585E+01  0.00000000E+00  1.23755293E+01  1.23755293E+01 -2.47510585E+01
  0.00000000E+00  1.23755293E+01  1.23755293E+01 -2.47510585E+01  0.00000000E+00
  1.23755293E+01  1.23755293E+01 -2.47510585E+01  0.00000000E+00  1.23755293E+01
  1.23755293E+01 -2.47510585E+01  0.00000000E+00  1.23755293E+01  1.23755293E+01
 -2.47510585E+01  0.00000000E+00  1.23755293E+01  1.23755293E+01 -2.47510585E+01
  0.00000000E+00  1.23755293E+01  1.23755293E+01 -2.47510585E+01  0.00000000E+00
  1.23755293E+01  1.23755293E+01 -2.47510585E+01  0.00000000E+00  1.23755293E+01
  1.23755293E+01 -2.47510585E+01  0.00000000E+00  1.23755293E+01  1.23755293E+01
 -2.47510585E+01  0.00000000E+00  1.23755293E+01  1.23755293E+01 -2.47510585E+01
  0.00000000E+00  1.23755293E+01  1.23755293E+01 -2.47510585E+01  0.00000000E+00
  1.23755293E+01  1.23755293E+01 -2.47510585E+01  0.00000000E+00  1.23755293E+01
  1.23755293E+01 -2.47510585E+01  0.00000000E+00  1.23755293E+01  1.23755293E+01
 -2.47510585E+01  0.00000000E+00  1.23755293E+01  1.23755293E+01 -2.47510585E+01
  0.00000000E+00  1.23755293E+01  1.23755293E+01 -2.47510585E+01  0.00000000E+00
  1.23755293E+01  1.23755293E+01 -2.47510585E+01  0.00000000E+00  1.23755293E+01
  1.23755293E+01 -2.47510585E+01  0.00000000E+00  1.23755293E+01  1.23755293E+01
 -2.47510585E+01  0.00000000E+00  1.23755293E+01  1.23755293E+01 -2.47510585E+01
  0.00000000E+00  1.23755293E+01  1.23755293E+01 -2.47510585E+01  0.00000000E+00
  1.23755293E+01  1.23755293E+01 -2.47510585E+01  0.00000000E+00  1.23755293E+01
  1.23755293E+01 -2.47510585E+01  0.00000000E+00  1.23755293E+01  1.23755293E+01
 -2.47510585E+01  0.00000000E+00  1.23755293E+01  1.23755293E+01 -2.47510585E+01
  0.00000000E+00  1.23755293E+01  1.23755293E+01 -2.47510585E+01  0.00000000E+00
  1.23755293E+01  1.23755293E+01 -2.47510585E+01  0.00000000E+00  1.23755293E+01
  1.23755293E+01 -2.47510585E+01  0.00000000E+00  1.23755293E+01  1.23755293E+01
 -2.47510585E+01  0.00000000E+00  1.23755293E+01  1.23755293E+01 -2.47510585E+01
  0.00000000E+00  1.23755293E+01  1.23755293E+01 -2.47510585E+01  0.00000000E+00
  1.23755293E+01  1.23755293E+01 -2.47510585E+01  0.00000000E+00  1.23755293E+01
  1.23755293E+01 -2.47510585E+01  0.00000000E+00  1.23755293E+01  1.23755293E+01
 -2.47510585E+01  0.00000000E+00  1.23755293E+01  1.23755293E+01 -2.47510585E+01
  0.00000000E+00  1.23755293E+01  1.23755293E+01 -2.47510585E+01  0.00000000E+00
  1.23755293E+01  1.23755293E+01 -2.47510585E+01  0.00000000E+00  1.23755293E+01
  1.23755293E+01 -2.47510585E+01  0.00000000E+00  1.23755293E+01  1.23755293E+01
 -2.47510585E+01  0.00000000E+00  1.23755293E+01  1.23755293E+01 -2.47510585E+01
  0.00000000E+00  1.23755293E+01  1.23755293E+01 -2.47510585E+01  0.00000000E+00
  1.23755293E+01  1.23755293E+01 -2.47510585E+01  0.00000000E+00  1.23755293E+01
  1.23755293E+01 -2.47510585E+01  0.00000000E+00  1.23755293E+01  1.23755293E+01
 -2.47510585E+01  0.00000000E+00  1.23755293E+01  1.23755293E+01 -2.47510585E+01
  0.00000000E+00  1.23755293E+01  1.23755293E+01 -2.47510585E+01  0.00000000E+00
  1.23755293E+01  1.23755293E+01 -2.47510585E+01  0.00000000E+00  1.23755293E+01
  1.23755293E+01 -2.47510585E+01  0.00000000E+00  1.23755293E+01  1.23755293E+01
 -2.47510585E+01  0.00000000E+00  1.23755293E+01  1.23755293E+01 -2.47510585E+01
  0.00000000E+00  1.23755293E+01  1.23755293E+01 -2.47510585E+01  0.00000000E+00
  1.23755293E+01  1.23755293E+01 -2.47510585E+01  0.00000000E+00  1.23755293E+01
  1.23755293E+01 -2.47510585E+01  0.00000000E+00  1.23755293E+01  1.23755293E+01
 -2.47510585E+01  0.00000000E+00  1.23755293E+01  1.23755293E+01 -2.47510585E+01
  0.00000000E+00  1.23755293E+01  1.23755293E+01 -2.47510585E+01  0.00000000E+00
  1.23755293E+01  1.23755293E+01 -2.47510585E+01  0.00000000E+00  1.23755293E+01
  1.23755293E+01 -2.47510585E+01  0.00000000E+00  1.23755293E+01  1.23755293E+01
 -2.47510585E+01  0.00000000E+00  1.23755293E+01  1.23755293E+01 -2.47510585E+01
  0.00000000E+00  1.23755293E+01  1.23755293E+01 -2.47510585E+01  0.00000000E+00
  1.23755293E+01  1.23755293E+01 -2.47510585E+01  0.00000000E+00  1.23755293E+01
  1.23755293E+01 -2.47510585E+01  0.00000000E+00  1.23755293E+01  1.23755293E+01
 -2.47510585E+01  0.00000000E+00  1.23755293E+01  1.23755293E+01 -2.47510585E+01
  0.00000000E+00  1.23755293E+01  1.23755293E+01 -2.47510585E+01  0.00000000E+00
  1.23755293E+01  1.23755293E+01 -2.47510585E+01  0.00000000E+00  1.23755293E+01
  1.23755293E+01 -2.47510585E+01  0.00000000E+00  1.23755293E+01  1.23755293E+01
 -2.47510585E+01  0.00000000E+00  1.23755293E+01  1.23755293E+01 -2.47510585E+01
  0.00000000E+00  1.23755293E+01  1.23755293E+01 -2.47510585E+01  0.00000000E+00
  1.23755293E+01  1.23755293E+01 -2.47510585E+01  0.00000000E+00  1.23755293E+01
  1.23755293E+01 -2.47510585E+01  0.00000000E+00  1.23755293E+01  1.23755293E+01
 -2.47510585E+01  0.00000000E+00  1.23755293E+01  1.23755293E+01 -2.47510585E+01
  0.00000000E+00  1.23755293E+01  1.23755293E+01 -2.47510585E+01  0.00000000E+00
  1.23755293E+01  1.23755293E+01 -2.47510585E+01  0.00000000E+00  1.23755293E+01
  1.23755293E+01 -2.47510585E+01  0.00000000E+00  1.23755293E+01  1.23755293E+01
 -2.47510585E+01  0.00000000E+00  1.23755293E+01  1.23755293E+01 -2.47510585E+01
  0.00000000E+00  1.23755293E+01  1.23755293E+01 -2.47510585E+01  0.00000000E+00
  1.23755293E+01  1.23755293E+01 -2.47510585E+01  0.00000000E+00  1.23755293E+01
  1.23755293E+01 -2.47510585E+01  0.00000000E+00  1.23755293E+01  1.23755293E+01
 -2.47510585E+01  0.00000000E+00  1.23755293E+01  1.23755293E+01 -2.47510585E+01
  0.00000000E+00  1.23755293E+01  1.23755293E+01 -2.47510585E+01  0.00000000E+00
  1.23755293E+01  1.23755293E+01 -2.47510585E+01  0.00000000E+00  1.23755293E+01
  1.23755293E+01 -2.47510585E+01  0.00000000E+00  1.23755293E+01  1.23755293E+01
 -2.47510585E+01  0.00000000E+00  1.23755293E+01  1.23755293E+01 -2.47510585E+01
  0.00000000E+00  1.23755293E+01  1.23755293E+01 -2.47510585E+01  0.00000000E+00
  1.23755293E+01  1.23755293E+01 -2.47510585E+01  0.00000000E+00  1.23755293E+01
  1.23755293E+01 -2.47510585E+01  0.00000000E+00  1.23755293E+01  1.23755293E+01
 -2.47510585E+01  0.00000000E+00  1.23755293E+01  1.23755293E+01 -2.47510585E+01
  0.00000000E+00  1.23755293E+01  1.23755293E+01 -2.47510585E+01  0.00000000E+00
  1.23755293E+01  1.23755293E+01 -2.47510585E+01  0.00000000E+00  1.23755293E+01
  1.23755293E+01 -2.47510585E+01  0.00000000E+00  1.23755293E+01  1.23755293E+01
 -2.47510585E+01  0.00000000E+00  1.23755293E+01  1.23755293E+01 -2.47510585E+01
  0.00000000E+00  1.23755293E+01  1.23755293E+01 -2.47510585E+01  0.00000000E+00
  1.23755293E+01  1.23755293E+01 -2.47510585E+01  0.00000000E+00  1.23755293E+01
  1.23755293E+01 -2.47510585E+01  0.00000000E+00  1.23755293E+01  1.23755293E+01
 -2.47510585E+01  0.00000000E+00  1.23755293E+01  1.23755293E+01 -2.47510585E+01
  0.00000000E+00  1.23755293E+01  1.23755293E+01 -2.47510585E+01  0.00000000E+00
  1.23755293E+01  1.23755293E+01 -2.47510585E+01  0.00000000E+00  1.23755293E+01
  1.23755293E+01 -2.47510585E+01  0.00000000E+00  1.23755293E+01  1.23755293E+01
 -2.47510585E+01  0.00000000E+00  1.23755293E+01  1.23755293E+01 -2.47510585E+01
  0.00000000E+00  1.23755293E+01  1.23755293E+01 -2.47510585E+01  0.00000000E+00
  1.23755293E+01  1.23755293E+01 -2.47510585E+01  0.00000000E+00  1.23755293E+01
  1.23755293E+01 -2.47510585E+01  0.00000000E+00  1.23755293E+01  1.23755293E+01
 -2.47510585E+01  0.00000000E+00  1.23755293E+01  1.23755293E+01 -2.47510585E+01
  0.00000000E+00  1.23755293E+01  1.23755293E+01 -2.47510585E+01  0.00000000E+00
  1.23755293E+01  1.23755293E+01 -2.47510585E+01  0.00000000E+00  1.23755293E+01
  1.23755293E+01 -2.47510585E+01  0.00000000E+00  1.23755293E+01  1.23755293E+01
 -2.47510585E+01  0.00000000E+00  1.23755293E+01  1.23755293E+01 -2.47510585E+01
  0.00000000E+00  1.23755293E+01  1.23755293E+01 -2.47510585E+01  0.00000000E+00
  1.23755293E+01  1.23755293E+01 -2.47510585E+01  0.00000000E+00  1.23755293E+01
  1.23755293E+01 -2.47510585E+01  0.00000000E+00  1.23755293E+01  1.23755293E+01
 -2.47510585E+01  0.00000000E+00  1.23755293E+01  1.23755293E+01 -2.47510585E+01
  0.00000000E+00  1.23755293E+01  1.23755293E+01 -2.47510585E+01  0.00000000E+00
  1.23755293E+01  1.23755293E+01 -2.47510585E+01  0.00000000E+00  1.23755293E+01
  1.23755293E+01 -2.47510585E+01  0.00000000E+00  1.23755293E+01  1.23755293E+01
 -2.47510585E+01  0.00000000E+00  1.23755293E+01  1.23755293E+01 -2.47510585E+01
  0.00000000E+00  1.23755293E+01  1.23755293E+01 -2.47510585E+01  0.00000000E+00
  1.23755293E+01  1.23755293E+01 -2.47510585E+01  0.00000000E+00  1.23755293E+01
  1.23755293E+01 -2.47510585E+01  0.00000000E+00  1.23755293E+01  1.23755293E+01
 -2.47510585E+01  0.00000000E+00  1.23755293E+01  1.23755293E+01 -2.47510585E+01
  0.00000000E+00  1.23755293E+01  1.23755293E+01 -2.47510585E+01  0.00000000E+00
  1.23755293E+01  1.23755293E+01 -2.47510585E+01  0.00000000E+00  1.23755293E+01
  1.23755293E+01 -2.47510585E+01  0.00000000E+00  1.23755293E+01  1.23755293E+01
 -2.47510585E+01  0.00000000E+00  1.23755293E+01  1.23755293E+01 -2.47510585E+01
  0.00000000E+00  1.23755293E+01  1.23755293E+01 -2.47510585E+01  0.00000000E+00
  1.23755293E+01  1.23755293E+01 -2.47510585E+01  0.00000000E+00  1.23755293E+01
  1.23755293E+01 -2.47510585E+01  0.00000000E+00  1.23755293E+01  1.23755293E+01
 -2.47510585E+01  0.00000000E+00  1.23755293E+01  1.23755293E+01 -2.47510585E+01
  0.00000000E+00  1.23755293E+01  1.23755293E+01 -2.47510585E+01  0.00000000E+00
  1.23755293E+01  1.23755293E+01 -2.47510585E+01  0.00000000E+00  1.23755293E+01
  1.23755293E+01 -2.47510585E+01  0.00000000E+00  1.23755293E+01  1.23755293E+01
 -2.47510585E+01  0.00000000E+00  1.23755293E+01  1.23755293E+01 -2.47510585E+01
  0.00000000E+00  1.23755293E+01  1.23755293E+01 -2.47510585E+01  0.00000000E+00
  1.23755293E+01  1.23755293E+01 -2.47510585E+01  0.00000000E+00  1.23755293E+01
  1.23755293E+01 -2.47510585E+01  0.00000000E+00  1.23755293E+01  1.23755293E+01
 -2.47510585E+01  0.00000000E+00  1.23755293E+01  1.23755293E+01 -2.47510585E+01
  0.00000000E+00  1.23755293E+01  1.23755293E+01 -2.47510585E+01  0.00000000E+00
  1.23755293E+01  1.23755293E+01 -2.47510585E+01  0.00000000E+00  1.23755293E+01
  1.23755293E+01 -2.47510585E+01  0.00000000E+00  1.23755293E+01  1.23755293E+01
 -2.47510585E+01  0.00000000E+00  1.23755293E+01  1.23755293E+01 -2.47510585E+01
  0.00000000E+00  1.23755293E+01  1.23755293E+01 -2.47510585E+01  0.00000000E+00
  1.23755293E+01  1.23755293E+01 -2.47510585E+01  0.00000000E+00  1.23755293E+01
  1.23755293E+01 -2.47510585E+01  0.00000000E+00  1.23755293E+01  1.23755293E+01
 -2.47510585E+01  0.00000000E+00  1.23755293E+01  1.23755293E+01 -2.47510585E+01
  0.00000000E+00  1.23755293E+01  1.23755293E+01 -2.47510585E+01  0.00000000E+00
  1.23755293E+01  1.23755293E+01 -2.47510585E+01  0.00000000E+00  1.23755293E+01
  1.23755293E+01 -2.47510585E+01  0.00000000E+00  1.23755293E+01  1.23755293E+01
 -2.47510585E+01  0.00000000E+00  1.23755293E+01  1.23755293E+01 -2.47510585E+01
  0.00000000E+00  1.23755293E+01  1.23755293E+01 -2.47510585E+01  0.00000000E+00
  1.23755293E+01  1.23755293E+01 -2.47510585E+01  0.00000000E+00  1.23755293E+01
  1.23755293E+01 -2.47510585E+01  0.00000000E+00  1.23755293E+01  1.23755293E+01
 -2.47510585E+01  0.00000000E+00  1.23755293E+01  1.23755293E+01 -2.47510585E+01
  0.00000000E+00  1.23755293E+01  1.23755293E+01 -2.47510585E+01  0.00000000E+00
  1.23755293E+01  1.23755293E+01 -2.47510585E+01  0.00000000E+00  1.23755293E+01
  1.23755293E+01 -2.47510585E+01  0.00000000E+00  1.23755293E+01  1.23755293E+01
 -2.47510585E+01  0.00000000E+00  1.23755293E+01  1.23755293E+01 -2.47510585E+01
  0.00000000E+00  1.23755293E+01  1.23755293E+01 -2.47510585E+01  0.00000000E+00
  1.23755293E+01  1.23755293E+01 -2.47510585E+01  0.00000000E+00  1.23755293E+01
  1.23755293E+01 -2.47510585E+01  0.00000000E+00  1.23755293E+01  1.23755293E+01
 -2.47510585E+01  0.00000000E+00  1.23755293E+01  1.23755293E+01 -2.47510585E+01
  0.00000000E+00  1.23755293E+01  1.23755293E+01 -2.47510585E+01  0.00000000E+00
  1.23755293E+01  1.23755293E+01 -2.47510585E+01  0.00000000E+00  1.23755293E+01
  1.23755293E+01 -2.47510585E+01  0.00000000E+00  1.23755293E+01  1.23755293E+01
 -2.47510585E+01  0.00000000E+00  1.23755293E+01  1.23755293E+01 -2.47510585E+01
  0.00000000E+00  1.23755293E+01  1.23755293E+01 -2.47510585E+01  0.00000000E+00
  1.23755293E+01  1.23755293E+01 -2.47510585E+01  0.00000000E+00  1.23755293E+01
  1.23755293E+01 -2.47510585E+01  0.00000000E+00  1.23755293E+01  1.23755293E+01
 -2.47510585E+01  0.00000000E+00  1.23755293E+01  1.23755293E+01 -2.47510585E+01
  0.00000000E+00  1.23755293E+01  1.23755293E+01 -2.47510585E+01  0.00000000E+00
  1.23755293E+01  1.23755293E+01 -2.47510585E+01  0.00000000E+00  1.23755293E+01
  1.23755293E+01 -2.47510585E+01  0.00000000E+00  1.23755293E+01  1.23755293E+01
 -2.47510585E+01  0.00000000E+00  1.23755293E+01  1.23755293E+01 -2.47510585E+01
  0.00000000E+00  1.23755293E+01  1.23755293E+01 -2.47510585E+01  0.00000000E+00
  1.23755293E+01  1.23755293E+01 -2.47510585E+01  0.00000000E+00  1.23755293E+01
  1.23755293E+01 -2.47510585E+01  0.00000000E+00  1.23755293E+01  1.23755293E+01
 -2.47510585E+01  0.00000000E+00  1.23755293E+01  1.23755293E+01 -2.47510585E+01
  0.00000000E+00  1.23755293E+01  1.23755293E+01 -2.47510585E+01  0.00000000E+00
  1.23755293E+01  1.23755293E+01 -2.47510585E+01  0.00000000E+00  1.23755293E+01
  1.23755293E+01 -2.47510585E+01  0.00000000E+00  1.23755293E+01  1.23755293E+01
 -2.47510585E+01  0.00000000E+00  1.23755293E+01  1.23755293E+01 -2.47510585E+01
  0.00000000E+00  1.23755293E+01  1.23755293E+01 -2.47510585E+01  0.00000000E+00
  1.23755293E+01  1.23755293E+01 -2.47510585E+01  0.00000000E+00  1.23755293E+01
  1.23755293E+01 -2.47510585E+01  0.00000000E+00  1.23755293E+01  1.23755293E+01
 -2.47510585E+01  0.00000000E+00  1.23755293E+01  1.23755293E+01 -2.47510585E+01
  0.00000000E+00  1.23755293E+01  1.23755293E+01 -2.47510585E+01  0.00000000E+00
  1.23755293E+01  1.23755293E+01 -2.47510585E+01  0.00000000E+00  1.23755293E+01
  1.23755293E+01 -2.47510585E+01  0.00000000E+00  1.23755293E+01  1.23755293E+01
 -2.47510585E+01  0.00000000E+00  1.23755293E+01  1.23755293E+01 -2.47510585E+01
  0.00000000E+00  1.23755293E+01  1.23755293E+01 -2.47510585E+01  0.00000000E+00
  1.23755293E+01  1.23755293E+01 -2.47510585E+01  0.00000000E+00  1.23755293E+01
  1.23755293E+01 -2.47510585E+01  0.00000000E+00  1.23755293E+01  1.23755293E+01
 -2.47510585E+01  0.00000000E+00  1.23755293E+01  1.23755293E+01 -2.47510585E+01
  0.00000000E+00  1.23755293E+01  1.23755293E+01 -2.47510585E+01  0.00000000E+00
  1.23755293E+01  1.23755293E+01 -2.47510585E+01  0.00000000E+00  1.23755293E+01
  1.23755293E+01 -2.47510585E+01  0.00000000E+00  1.23755293E+01  1.23755293E+01
 -2.47510585E+01  0.00000000E+00  1.23755293E+01  1.23755293E+01 -2.47510585E+01
  0.00000000E+00  1.23755293E+01  1.23755293E+01 -2.47510585E+01  0.00000000E+00
  1.23755293E+01  1.23755293E+01 -2.47510585E+01  0.00000000E+00  1.23755293E+01
  1.23755293E+01 -2.47510585E+01  0.00000000E+00  1.23755293E+01  1.23755293E+01
 -2.47510585E+01  0.00000000E+00  1.23755293E+01  1.23755293E+01 -2.47510585E+01
  0.00000000E+00  1.23755293E+01  1.23755293E+01 -2.47510585E+01  0.00000000E+00
  1.23755293E+01  1.23755293E+01 -2.47510585E+01  0.00000000E+00  1.23755293E+01
  1.23755293E+01 -2.47510585E+01  0.00000000E+00  1.23755293E+01  1.23755293E+01
 -2.47510585E+01  0.00000000E+00  1.23755293E+01  1.23755293E+01 -2.47510585E+01
  0.00000000E+00  1.23755293E+01  1.23755293E+01 -2.47510585E+01  0.00000000E+00
  1.23755293E+01  1.23755293E+01 -2.47510585E+01  0.00000000E+00  1.23755293E+01
  1.23755293E+01 -2.47510585E+01  0.00000000E+00  1.23755293E+01  1.23755293E+01
 -2.47510585E+01  0.00000000E+00  1.23755293E+01  1.23755293E+01 -2.47510585E+01
  0.00000000E+00  1.23755293E+01  1.23755293E+01 -2.47510585E+01  0.00000000E+00
  1.23755293E+01  1.23755293E+01 -2.47510585E+01  0.00000000E+00  1.23755293E+01
  1.23755293E+01 -2.47510585E+01  0.00000000E+00  1.23755293E+01  1.23755293E+01
 -2.47510585E+01  0.00000000E+00  1.23755293E+01  1.23755293E+01 -2.47510585E+01
  0.00000000E+00  1.23755293E+01  1.23755293E+01 -2.47510585E+01  0.00000000E+00
  1.23755293E+01  1.23755293E+01 -2.47510585E+01  0.00000000E+00  1.23755293E+01
  1.23755293E+01 -2.47510585E+01  0.00000000E+00  1.23755293E+01  1.23755293E+01
 -2.47510585E+01  0.00000000E+00  1.23755293E+01  1.23755293E+01 -2.47510585E+01
  0.00000000E+00  1.23755293E+01  1.23755293E+01 -2.47510585E+01  0.00000000E+00
  1.23755293E+01  1.23755293E+01 -2.47510585E+01  0.00000000E+00  1.23755293E+01
  1.23755293E+01 -2.47510585E+01  0.00000000E+00  1.23755293E+01  1.23755293E+01
 -2.47510585E+01  0.00000000E+00  1.23755293E+01  1.23755293E+01 -2.47510585E+01
  0.00000000E+00  1.23755293E+01  1.23755293E+01 -2.47510585E+01  0.00000000E+00
  1.23755293E+01  1.23755293E+01 -2.47510585E+01  0.00000000E+00  1.23755293E+01
  1.23755293E+01 -2.47510585E+01  0.00000000E+00  1.23755293E+01  1.23755293E+01
 -2.47510585E+01  0.00000000E+00  1.23755293E+01  1.23755293E+01 -2.47510585E+01
  0.00000000E+00  1.23755293E+01  1.23755293E+01 -2.47510585E+01  0.00000000E+00
  1.23755293E+01  1.23755293E+01 -2.47510585E+01  0.00000000E+00  1.23755293E+01
  1.23755293E+01 -2.47510585E+01  0.00000000E+00  1.23755293E+01  1.23755293E+01
 -2.47510585E+01  0.00000000E+00  1.23755293E+01  1.23755293E+01 -2.47510585E+01
  0.00000000E+00  1.23755293E+01  1.23755293E+01 -2.47510585E+01  0.00000000E+00
  1.23755293E+01  1.23755293E+01 -2.47510585E+01  0.00000000E+00  1.23755293E+01
  1.23755293E+01 -2.47510585E+01  0.00000000E+00  1.23755293E+01  1.23755293E+01
 -2.47510585E+01  0.00000000E+00  1.23755293E+01  1.23755293E+01 -2.47510585E+01
  0.00000000E+00  1.23755293E+01  1.23755293E+01 -2.47510585E+01  0.00000000E+00
  1.23755293E+01  1.23755293E+01 -2.47510585E+01  0.00000000E+00  1.23755293E+01
  1.23755293E+01 -2.47510585E+01  0.00000000E+00  1.23755293E+01  1.23755293E+01
 -2.47510585E+01  0.00000000E+00  1.23755293E+01  1.23755293E+01 -2.47510585E+01
  0.00000000E+00  1.23755293E+01  1.23755293E+01 -2.47510585E+01  0.00000000E+00
  1.23755293E+01  1.23755293E+01 -2.47510585E+01  0.00000000E+00  1.23755293E+01
  1.23755293E+01 -2.47510585E+01  0.00000000E+00  1.23755293E+01  1.23755293E+01
 -2.47510585E+01  0.00000000E+00  1.23755293E+01  1.23755293E+01 -2.47510585E+01
  0.00000000E+00  1.23755293E+01  1.23755293E+01 -2.47510585E+01  0.00000000E+00
  1.23755293E+01  1.23755293E+01 -2.47510585E+01  0.00000000E+00  1.23755293E+01
  1.23755293E+01 -2.47510585E+01  0.00000000E+00  1.23755293E+01  1.23755293E+01
 -2.47510585E+01  0.00000000E+00  1.23755293E+01  1.23755293E+01 -2.47510585E+01
  0.00000000E+00  1.23755293E+01  1.23755293E+01 -2.47510585E+01  0.00000000E+00
  1.23755293E+01  1.23755293E+01 -2.47510585E+01  0.00000000E+00  1.23755293E+01
  1.23755293E+01 -2.47510585E+01  0.00000000E+00  1.23755293E+01  1.23755293E+01
 -2.47510585E+01  0.00000000E+00  1.23755293E+01  1.23755293E+01 -2.47510585E+01
  0.00000000E+00  1.23755293E+01  1.23755293E+01 -2.47510585E+01  0.00000000E+00
  1.23755293E+01  1.23755293E+01 -2.47510585E+01  0.00000000E+00  1.23755293E+01
  1.23755293E+01 -2.47510585E+01  0.00000000E+00  1.23755293E+01  1.23755293E+01
 -2.47510585E+01  0.00000000E+00  1.23755293E+01  1.23755293E+01 -2.47510585E+01
  0.00000000E+00  1.23755293E+01  1.23755293E+01 -2.47510585E+01  0.00000000E+00
  1.23755293E+01  1.23755293E+01 -2.47510585E+01  0.00000000E+00  1.23755293E+01
  1.23755293E+01 -2.47510585E+01  0.00000000E+00  1.23755293E+01  1.23755293E+01
 -2.47510585E+01  0.00000000E+00  1.23755293E+01  1.23755293E+01 -2.47510585E+01
  0.00000000E+00  1.23755293E+01  1.23755293E+01 -2.47510585E+01  0.00000000E+00
  1.23755293E+01  1.23755293E+01 -2.47510585E+01  0.00000000E+00  1.23755293E+01
  1.23755293E+01 -2.47510585E+01  0.00000000E+00  1.23755293E+01  1.23755293E+01
 -2.47510585E+01  0.00000000E+00  1.23755293E+01  1.23755293E+01 -2.47510585E+01
  0.00000000E+00  1.23755293E+01  1.23755293E+01 -2.47510585E+01  0.00000000E+00
  1.23755293E+01  1.23755293E+01 -2.47510585E+01  0.00000000E+00  1.23755293E+01
  1.23755293E+01 -2.47510585E+01  0.00000000E+00  1.23755293E+01  1.23755293E+01
 -2.47510585E+01  0.00000000E+00  1.23755293E+01  1.23755293E+01 -2.47510585E+01
  0.00000000E+00  1.23755293E+01  1.23755293E+01 -2.47510585E+01  0.00000000E+00
  1.23755293E+01  1.23755293E+01 -2.47510585E+01  0.00000000E+00  1.23755293E+01
  1.23755293E+01 -2.47510585E+01  0.00000000E+00  1.23755293E+01  1.23755293E+01
 -2.47510585E+01  0.00000000E+00  1.23755293E+01  1.23755293E+01 -2.47510585E+01
  0.00000000E+00  1.23755293E+01  1.23755293E+01 -2.47510585E+01  0.00000000E+00
  1.23755293E+01  1.23755293E+01 -2.47510585E+01  0.00000000E+00  1.23755293E+01
  1.23755293E+01 -2.47510585E+01  0.00000000E+00  1.23755293E+01  1.23755293E+01
 -2.47510585E+01  0.00000000E+00  1.23755293E+01  1.23755293E+01 -2.47510585E+01
  0.00000000E+00  1.23755293E+01  1.23755293E+01 -2.47510585E+01  0.00000000E+00
  1.23755293E+01  1.23755293E+01 -2.47510585E+01  0.00000000E+00  1.23755293E+01
  1.23755293E+01 -2.47510585E+01  0.00000000E+00  1.23755293E+01  1.23755293E+01
 -2.47510585E+01  0.00000000E+00  1.23755293E+01  1.23755293E+01 -2.47510585E+01
  0.00000000E+00  1.23755293E+01  1.23755293E+01 -2.47510585E+01  0.00000000E+00
  1.23755293E+01  1.23755293E+01 -2.47510585E+01  0.00000000E+00  1.23755293E+01
  1.23755293E+01 -2.47510585E+01  0.00000000E+00  1.23755293E+01  1.23755293E+01
 -2.47510585E+01  0.00000000E+00  1.23755293E+01  1.23755293E+01 -2.47510585E+01
  0.00000000E+00  1.23755293E+01  1.23755293E+01 -2.47510585E+01  0.00000000E+00
  1.23755293E+01  1.23755293E+01 -2.47510585E+01  0.00000000E+00  1.23755293E+01
  1.23755293E+01 -2.47510585E+01  0.00000000E+00  1.23755293E+01  1.23755293E+01
 -2.47510585E+01  0.00000000E+00  1.23755293E+01  1.23755293E+01 -2.47510585E+01
  0.00000000E+00  1.23755293E+01  1.23755293E+01 -2.47510585E+01  0.00000000E+00
  1.23755293E+01  1.23755293E+01 -2.47510585E+01  0.00000000E+00  1.23755293E+01
  1.23755293E+01 -2.47510585E+01  0.00000000E+00  1.23755293E+01  1.23755293E+01
 -2.47510585E+01  0.00000000E+00  1.23755293E+01  1.23755293E+01 -2.47510585E+01
  0.00000000E+00  1.23755293E+01  1.23755293E+01 -2.47510585E+01  0.00000000E+00
  1.23755293E+01  1.23755293E+01 -2.47510585E+01  0.00000000E+00  1.23755293E+01
  1.23755293E+01 -2.47510585E+01  0.00000000E+00  1.23755293E+01  1.23755293E+01
 -2.47510585E+01  0.00000000E+00  1.23755293E+01  1.23755293E+01 -2.47510585E+01
  0.00000000E+00  1.23755293E+01  1.23755293E+01 -2.47510585E+01  0.00000000E+00
  1.23755293E+01  1.23755293E+01 -2.47510585E+01  0.00000000E+00  1.23755293E+01
  1.23755293E+01 -2.47510585E+01  0.00000000E+00  1.23755293E+01  1.23755293E+01
 -2.47510585E+01  0.00000000E+00  1.23755293E+01  1.23755293E+01 -2.47510585E+01
  0.00000000E+00  1.23755293E+01  1.23755293E+01 -2.47510585E+01  0.00000000E+00
  1.23755293E+01  1.23755293E+01 -2.47510585E+01  0.00000000E+00  1.23755293E+01
  1.23755293E+01 -2.47510585E+01  0.00000000E+00  1.23755293E+01  1.23755293E+01
 -2.47510585E+01  0.00000000E+00  1.23755293E+01  1.23755293E+01 -2.47510585E+01
  0.00000000E+00  1.23755293E+01  1.23755293E+01 -2.47510585E+01  0.00000000E+00
  1.23755293E+01  1.23755293E+01 -2.47510585E+01  0.00000000E+00  1.23755293E+01
  1.23755293E+01 -2.47510585E+01  0.00000000E+00  1.23755293E+01  1.23755293E+01
 -2.47510585E+01  0.00000000E+00  1.23755293E+01  1.23755293E+01 -2.47510585E+01
  0.00000000E+00  1.23755293E+01  1.23755293E+01 -2.47510585E+01  0.00000000E+00
  1.23755293E+01  1.23755293E+01 -2.47510585E+01  0.00000000E+00  1.23755293E+01
  1.23755293E+01 -2.47510585E+01  0.00000000E+00  1.23755293E+01  1.23755293E+01
 -2.47510585E+01  0.00000000E+00  1.23755293E+01  1.23755293E+01 -2.47510585E+01
  0.00000000E+00  1.23755293E+01  1.23755293E+01 -2.47510585E+01  0.00000000E+00
  1.23755293E+01  1.23755293E+01 -2.47510585E+01  0.00000000E+00  1.23755293E+01
  1.23755293E+01 -2.47510585E+01  0.00000000E+00  1.23755293E+01  1.23755293E+01
 -2.47510585E+01  0.00000000E+00  1.23755293E+01  1.23755293E+01 -2.47510585E+01
  0.00000000E+00  1.23755293E+01  1.23755293E+01 -2.47510585E+01  0.00000000E+00
  1.23755293E+01  1.23755293E+01 -2.47510585E+01  0.00000000E+00  1.23755293E+01
  1.23755293E+01 -2.47510585E+01  0.00000000E+00  1.23755293E+01  1.23755293E+01
 -2.47510585E+01  0.00000000E+00  1.23755293E+01  1.23755293E+01 -2.47510585E+01
  0.00000000E+00  1.23755293E+01  1.23755293E+01 -2.47510585E+01  0.00000000E+00
  1.23755293E+01  1.23755293E+01 -2.47510585E+01  0.00000000E+00  1.23755293E+01
  1.23755293E+01 -2.47510585E+01  0.00000000E+00  1.23755293E+01  1.23755293E+01
 -2.47510585E+01  0.00000000E+00  1.23755293E+01  1.23755293E+01 -2.47510585E+01
  0.00000000E+00  1.23755293E+01  1.23755293E+01 -2.47510585E+01  0.00000000E+00
  1.23755293E+01  1.23755293E+01 -2.47510585E+01  0.00000000E+00  1.23755293E+01
  1.23755293E+01 -2.47510585E+01  0.00000000E+00  1.23755293E+01  1.23755293E+01
 -2.47510585E+01  0.00000000E+00  1.23755293E+01  1.23755293E+01 -2.47510585E+01
  0.00000000E+00  1.23755293E+01  1.23755293E+01 -2.47510585E+01  0.00000000E+00
  1.23755293E+01  1.23755293E+01 -2.47510585E+01  0.00000000E+00  1.23755293E+01
  1.23755293E+01 -2.47510585E+01  0.00000000E+00  1.23755293E+01  1.23755293E+01
 -2.47510585E+01  0.00000000E+00  1.23755293E+01  1.23755293E+01 -2.47510585E+01
  0.00000000E+00  1.23755293E+01  1.23755293E+01 -2.47510585E+01  0.00000000E+00
  1.23755293E+01  1.23755293E+01 -2.47510585E+01  0.00000000E+00  1.23755293E+01
  1.23755293E+01 -2.47510585E+01  0.00000000E+00  1.23755293E+01  1.23755293E+01
 -2.47510585E+01  0.00000000E+00  1.23755293E+01  1.23755293E+01 -2.47510585E+01
  0.00000000E+00  1.23755293E+01  1.23755293E+01 -2.47510585E+01  0.00000000E+00
  1.23755293E+01  1.23755293E+01 -2.47510585E+01  0.00000000E+00  1.23755293E+01
  1.23755293E+01 -2.47510585E+01  0.00000000E+00  1.23755293E+01  1.23755293E+01
 -2.47510585E+01  0.00000000E+00  1.23755293E+01  1.23755293E+01 -2.47510585E+01
  0.00000000E+00  1.23755293E+01  1.23755293E+01 -2.47510585E+01  0.00000000E+00
  1.23755293E+01  1.23755293E+01 -2.47510585E+01  0.00000000E+00  1.23755293E+01
  1.23755293E+01 -2.47510585E+01  0.00000000E+00  1.23755293E+01  1.23755293E+01
 -2.47510585E+01  0.00000000E+00  1.23755293E+01  1.23755293E+01 -2.47510585E+01
  0.00000000E+00  1.23755293E+01  1.23755293E+01 -2.47510585E+01  0.00000000E+00
  1.23755293E+01  1.23755293E+01 -2.47510585E+01  0.00000000E+00  1.23755293E+01
  1.23755293E+01 -2.47510585E+01  0.00000000E+00  1.23755293E+01  1.23755293E+01
 -2.47510585E+01  0.00000000E+00  1.23755293E+01  1.23755293E+01 -2.47510585E+01
  0.00000000E+00  1.23755293E+01  1.23755293E+01 -2.47510585E+01  0.00000000E+00
  1.23755293E+01  1.23755293E+01 -2.47510585E+01  0.00000000E+00  1.23755293E+01
  1.23755293E+01 -2.47510585E+01  0.00000000E+00  1.23755293E+01  1.23755293E+01
 -2.47510585E+01  0.00000000E+00  1.23755293E+01  1.23755293E+01 -2.47510585E+01
  0.00000000E+00  1.23755293E+01  1.23755293E+01 -2.47510585E+01  0.00000000E+00
  1.23755293E+01  1.23755293E+01 -2.47510585E+01  0.00000000E+00  1.23755293E+01
  1.23755293E+01 -2.47510585E+01  0.00000000E+00  1.23755293E+01  1.23755293E+01
 -2.47510585E+01  0.00000000E+00  1.23755293E+01  1.23755293E+01 -2.47510585E+01
  0.00000000E+00  1.23755293E+01  1.23755293E+01 -2.47510585E+01  0.00000000E+00
  1.23755293E+01  1.23755293E+01 -2.47510585E+01  0.00000000E+00  1.23755293E+01
  1.23755293E+01 -2.47510585E+01  0.00000000E+00  1.23755293E+01  1.23755293E+01
 -2.47510585E+01  0.00000000E+00  1.23755293E+01  1.23755293E+01 -2.47510585E+01
  0.00000000E+00  1.23755293E+01  1.23755293E+01 -2.47510585E+01  0.00000000E+00
  1.23755293E+01  1.23755293E+01 -2.47510585E+01  0.00000000E+00  1.23755293E+01
  1.23755293E+01 -2.47510585E+01  0.00000000E+00  1.23755293E+01  1.23755293E+01
 -2.47510585E+01  0.00000000E+00  1.23755293E+01  1.23755293E+01 -2.47510585E+01
  0.00000000E+00  1.23755293E+01  1.23755293E+01 -2.47510585E+01  0.00000000E+00
  1.23755293E+01  1.23755293E+01 -2.47510585E+01  0.00000000E+00  1.23755293E+01
  1.23755293E+01 -2.47510585E+01  0.00000000E+00  1.23755293E+01  1.23755293E+01
 -2.47510585E+01  0.00000000E+00  1.23755293E+01  1.23755293E+01 -2.47510585E+01
  0.00000000E+00  1.23755293E+01  1.23755293E+01 -2.47510585E+01  0.00000000E+00
  1.23755293E+01  1.23755293E+01 -2.47510585E+01  0.00000000E+00  1.23755293E+01
  1.23755293E+01 -2.47510585E+01  0.00000000E+00  1.23755293E+01  1.23755293E+01
 -2.47510585E+01  0.00000000E+00  1.23755293E+01  1.23755293E+01 -2.47510585E+01
  0.00000000E+00  1.23755293E+01  1.23755293E+01 -2.47510585E+01  0.00000000E+00
  1.23755293E+01  1.23755293E+01 -2.47510585E+01  0.00000000E+00  1.23755293E+01
  1.23755293E+01 -2.47510585E+01  0.00000000E+00  1.23755293E+01  1.23755293E+01
 -2.47510585E+01  0.00000000E+00  1.23755293E+01  1.23755293E+01 -2.47510585E+01
  0.00000000E+00  1.23755293E+01  1.23755293E+01 -2.47510585E+01  0.00000000E+00
  1.23755293E+01  1.23755293E+01 -2.47510585E+01  0.00000000E+00  1.23755293E+01
  1.23755293E+01 -2.47510585E+01  0.00000000E+00  1.23755293E+01  1.23755293E+01
 -2.47510585E+01  0.00000000E+00  1.23755293E+01  1.23755293E+01 -2.47510585E+01
  0.00000000E+00  1.23755293E+01  1.23755293E+01 -2.47510585E+01  0.00000000E+00
  1.23755293E+01  1.23755293E+01 -2.47510585E+01  0.00000000E+00  1.23755293E+01
  1.23755293E+01 -2.47510585E+01  0.00000000E+00  1.23755293E+01  1.23755293E+01
 -2.47510585E+01  0.00000000E+00  1.23755293E+01  1.23755293E+01 -2.47510585E+01
  0.00000000E+00  1.23755293E+01  1.23755293E+01 -2.47510585E+01  0.00000000E+00
  1.23755293E+01  1.23755293E+01 -2.47510585E+01  0.00000000E+00  1.23755293E+01
  1.23755293E+01 -2.47510585E+01  0.00000000E+00  1.23755293E+01  1.23755293E+01
 -2.47510585E+01  0.00000000E+00  1.23755293E+01  1.23755293E+01 -2.47510585E+01
  0.00000000E+00  1.23755293E+01  1.23755293E+01 -2.47510585E+01  0.00000000E+00
  1.23755293E+01  1.23755293E+01 -2.47510585E+01  0.00000000E+00  1.23755293E+01
  1.23755293E+01 -2.47510585E+01  0.00000000E+00  1.23755293E+01  1.23755293E+01
 -2.47510585E+01  0.00000000E+00  1.23755293E+01  1.23755293E+01 -2.47510585E+01
  0.00000000E+00  1.23755293E+01  1.23755293E+01 -2.47510585E+01  0.00000000E+00
  1.23755293E+01  1.23755293E+01 -2.47510585E+01  0.00000000E+00  1.23755293E+01
  1.23755293E+01 -2.47510585E+01  0.00000000E+00  1.23755293E+01  1.23755293E+01
 -2.47510585E+01  0.00000000E+00  1.23755293E+01  1.23755293E+01 -2.47510585E+01
  0.00000000E+00  1.23755293E+01  1.23755293E+01 -2.47510585E+01  0.00000000E+00
  1.23755293E+01  1.23755293E+01 -2.47510585E+01  0.00000000E+00  1.23755293E+01
  1.23755293E+01 -2.47510585E+01  0.00000000E+00  1.23755293E+01  1.23755293E+01
 -2.47510585E+01  0.00000000E+00  1.23755293E+01  1.23755293E+01 -2.47510585E+01
  0.00000000E+00  1.23755293E+01  1.23755293E+01 -2.47510585E+01  0.00000000E+00
  1.23755293E+01  1.23755293E+01 -2.47510585E+01  0.00000000E+00  1.23755293E+01
  1.23755293E+01 -2.47510585E+01  0.00000000E+00  1.23755293E+01  1.23755293E+01
 -2.47510585E+01  0.00000000E+00  1.23755293E+01  1.23755293E+01 -2.47510585E+01
  0.00000000E+00  1.23755293E+01  1.23755293E+01 -2.47510585E+01  0.00000000E+00
  1.23755293E+01  1.23755293E+01 -2.47510585E+01  0.00000000E+00  1.23755293E+01
  1.23755293E+01 -2.47510585E+01  0.00000000E+00  1.23755293E+01  1.23755293E+01
 -2.47510585E+01  0.00000000E+00  1.23755293E+01  1.23755293E+01 -2.47510585E+01
  0.00000000E+00  1.23755293E+01  1.23755293E+01 -2.47510585E+01  0.00000000E+00
  1.23755293E+01  1.23755293E+01 -2.47510585E+01  0.00000000E+00  1.23755293E+01
  1.23755293E+01 -2.47510585E+01  0.00000000E+00  1.23755293E+01  1.23755293E+01
 -2.47510585E+01  0.00000000E+00  1.23755293E+01  1.23755293E+01 -2.47510585E+01
  0.00000000E+00  1.23755293E+01  1.23755293E+01 -2.47510585E+01  0.00000000E+00
  1.23755293E+01  1.23755293E+01 -2.47510585E+01  0.00000000E+00  1.23755293E+01
  1.23755293E+01 -2.47510585E+01  0.00000000E+00  1.23755293E+01  1.23755293E+01
 -2.47510585E+01  0.00000000E+00  1.23755293E+01  1.23755293E+01 -2.47510585E+01
  0.00000000E+00  1.23755293E+01  1.23755293E+01 -2.47510585E+01  0.00000000E+00
  1.23755293E+01  1.23755293E+01 -2.47510585E+01  0.00000000E+00  1.23755293E+01
  1.23755293E+01 -2.47510585E+01  0.00000000E+00  1.23755293E+01  1.23755293E+01
 -2.47510585E+01  0.00000000E+00  1.23755293E+01  1.23755293E+01 -2.47510585E+01
  0.00000000E+00  1.23755293E+01  1.23755293E+01 -2.47510585E+01  0.00000000E+00
  1.23755293E+01  1.23755293E+01 -2.47510585E+01  0.00000000E+00  1.23755293E+01
  1.23755293E+01 -2.47510585E+01  0.00000000E+00  1.23755293E+01  1.23755293E+01
 -2.47510585E+01  0.00000000E+00  1.23755293E+01  1.23755293E+01 -2.47510585E+01
  0.00000000E+00  1.23755293E+01  1.23755293E+01 -2.47510585E+01  0.00000000E+00
  1.23755293E+01  1.23755293E+01 -2.47510585E+01  0.00000000E+00  1.23755293E+01
  1.23755293E+01 -2.47510585E+01  0.00000000E+00  1.23755293E+01  1.23755293E+01
 -2.47510585E+01  0.00000000E+00  1.23755293E+01  1.23755293E+01 -2.47510585E+01
  0.00000000E+00  1.23755293E+01  1.23755293E+01 -2.47510585E+01  0.00000000E+00
  1.23755293E+01  1.23755293E+01 -2.47510585E+01  0.00000000E+00  1.23755293E+01
  1.23755293E+01 -2.47510585E+01  0.00000000E+00  1.23755293E+01  1.23755293E+01
 -2.47510585E+01  0.00000000E+00  1.23755293E+01  1.23755293E+01 -2.47510585E+01
  0.00000000E+00  1.23755293E+01  1.23755293E+01 -2.47510585E+01  0.00000000E+00
  1.23755293E+01  1.23755293E+01 -2.47510585E+01  0.00000000E+00  1.23755293E+01
  1.23755293E+01 -2.47510585E+01  0.00000000E+00  1.23755293E+01  1.23755293E+01
 -2.47510585E+01  0.00000000E+00  1.23755293E+01  1.23755293E+01 -2.47510585E+01
  0.00000000E+00  1.23755293E+01  1.23755293E+01 -2.47510585E+01  0.00000000E+00
  1.23755293E+01  1.23755293E+01 -2.47510585E+01  0.00000000E+00  1.23755293E+01
  1.23755293E+01 -2.47510585E+01  0.00000000E+00  1.23755293E+01  1.23755293E+01
 -2.47510585E+01  0.00000000E+00  1.23755293E+01  1.23755293E+01 -2.47510585E+01
  0.00000000E+00  1.23755293E+01  1.23755293E+01 -2.47510585E+01  0.00000000E+00
  1.23755293E+01  1.23755293E+01 -2.47510585E+01  0.00000000E+00  1.23755293E+01
  1.23755293E+01 -2.47510585E+01  0.00000000E+00  1.23755293E+01  1.23755293E+01
 -2.47510585E+01  0.00000000E+00  1.23755293E+01  1.23755293E+01 -2.47510585E+01
  0.00000000E+00  1.23755293E+01  1.23755293E+01 -2.47510585E+01  0.00000000E+00
  1.23755293E+01  1.23755293E+01 -2.47510585E+01  0.00000000E+00  1.23755293E+01
  1.23755293E+01 -2.47510585E+01  0.00000000E+00  1.23755293E+01  1.23755293E+01
 -2.47510585E+01  0.00000000E+00  1.23755293E+01  1.23755293E+01 -2.47510585E+01
  0.00000000E+00  1.23755293E+01  1.23755293E+01 -2.47510585E+01  0.00000000E+00
  1.23755293E+01  1.23755293E+01 -2.47510585E+01  0.00000000E+00  1.23755293E+01
  1.23755293E+01 -2.47510585E+01  0.00000000E+00  1.23755293E+01  1.23755293E+01
 -2.47510585E+01  0.00000000E+00  1.23755293E+01  1.23755293E+01 -2.47510585E+01
  0.00000000E+00  1.23755293E+01  1.23755293E+01 -2.47510585E+01  0.00000000E+00
  1.23755293E+01  1.23755293E+01 -2.47510585E+01  0.00000000E+00  1.23755293E+01
  1.23755293E+01 -2.47510585E+01  0.00000000E+00  1.23755293E+01  1.23755293E+01
 -2.47510585E+01  0.00000000E+00  1.23755293E+01  1.23755293E+01 -2.47510585E+01
  0.00000000E+00  1.23755293E+01  1.23755293E+01 -2.47510585E+01  0.00000000E+00
  1.23755293E+01  1.23755293E+01 -2.47510585E+01  0.00000000E+00  1.23755293E+01
  1.23755293E+01 -2.47510585E+01  0.00000000E+00  1.23755293E+01  1.23755293E+01
 -2.47510585E+01  0.00000000E+00  1.23755293E+01  1.23755293E+01 -2.47510585E+01
  0.00000000E+00  1.23755293E+01  1.23755293E+01 -2.47510585E+01  0.00000000E+00
  1.23755293E+01  1.23755293E+01 -2.47510585E+01  0.00000000E+00  1.23755293E+01
  1.23755293E+01 -2.47510585E+01  0.00000000E+00  1.23755293E+01  1.23755293E+01
 -2.47510585E+01  0.00000000E+00  1.23755293E+01  1.23755293E+01 -2.47510585E+01
  0.00000000E+00  1.23755293E+01  1.23755293E+01 -2.47510585E+01  0.00000000E+00
  1.23755293E+01  1.23755293E+01 -2.47510585E+01  0.00000000E+00  1.23755293E+01
  1.23755293E+01 -2.47510585E+01  0.00000000E+00  1.23755293E+01  1.23755293E+01
 -2.47510585E+01  0.00000000E+00  1.23755293E+01  1.23755293E+01 -2.47510585E+01
  0.00000000E+00  1.23755293E+01  1.23755293E+01 -2.47510585E+01  0.00000000E+00
  1.23755293E+01  1.23755293E+01 -2.47510585E+01  0.00000000E+00  1.23755293E+01
  1.23755293E+01 -2.47510585E+01  0.00000000E+00  1.23755293E+01  1.23755293E+01
 -2.47510585E+01  0.00000000E+00  1.23755293E+01  1.23755293E+01 -2.47510585E+01
  0.00000000E+00  1.23755293E+01  1.23755293E+01 -2.47510585E+01  0.00000000E+00
  1.23755293E+01  1.23755293E+01 -2.47510585E+01  0.00000000E+00  1.23755293E+01
  1.23755293E+01 -2.47510585E+01  0.00000000E+00  1.23755293E+01  1.23755293E+01
 -2.47510585E+01  0.00000000E+00  1.23755293E+01  1.23755293E+01 -2.47510585E+01
  0.00000000E+00  1.23755293E+01  1.23755293E+01 -2.47510585E+01  0.00000000E+00
  1.23755293E+01  1.23755293E+01 -2.47510585E+01  0.00000000E+00  1.23755293E+01
  1.23755293E+01 -2.47510585E+01  0.00000000E+00  1.23755293E+01  1.23755293E+01
 -2.47510585E+01  0.00000000E+00  1.23755293E+01  1.23755293E+01 -2.47510585E+01
  0.00000000E+00  1.23755293E+01  1.23755293E+01 -2.47510585E+01  0.00000000E+00
  1.23755293E+01  1.23755293E+01 -2.47510585E+01  0.00000000E+00  1.23755293E+01
  1.23755293E+01 -2.47510585E+01  0.00000000E+00  1.23755293E+01  1.23755293E+01
 -2.47510585E+01  0.00000000E+00  1.23755293E+01  1.23755293E+01 -2.47510585E+01
  0.00000000E+00  1.23755293E+01  1.23755293E+01 -2.47510585E+01  0.00000000E+00
  1.23755293E+01  1.23755293E+01 -2.47510585E+01  0.00000000E+00  1.23755293E+01
  1.23755293E+01 -2.47510585E+01  0.00000000E+00  1.23755293E+01  1.23755293E+01
 -2.47510585E+01  0.00000000E+00  1.23755293E+01  1.23755293E+01 -2.47510585E+01
  0.00000000E+00  1.23755293E+01  1.23755293E+01 -2.47510585E+01  0.00000000E+00
  1.23755293E+01  1.23755293E+01 -2.47510585E+01  0.00000000E+00  1.23755293E+01
  1.23755293E+01 -2.47510585E+01  0.00000000E+00  1.23755293E+01  1.23755293E+01
 -2.47510585E+01  0.00000000E+00  1.23755293E+01  1.23755293E+01 -2.47510585E+01
  0.00000000E+00  1.23755293E+01  1.23755293E+01 -2.47510585E+01  0.00000000E+00
  1.23755293E+01  1.23755293E+01 -2.47510585E+01  0.00000000E+00  1.23755293E+01
  1.23755293E+01 -2.47510585E+01  0.00000000E+00  1.23755293E+01  1.23755293E+01
 -2.47510585E+01  0.00000000E+00  1.23755293E+01  1.23755293E+01 -2.47510585E+01
  0.00000000E+00  1.23755293E+01  1.23755293E+01 -2.47510585E+01  0.00000000E+00
  1.23755293E+01  1.23755293E+01 -2.47510585E+01  0.00000000E+00  1.23755293E+01
  1.23755293E+01 -2.47510585E+01  0.00000000E+00  1.23755293E+01  1.23755293E+01
 -2.47510585E+01  0.00000000E+00  1.23755293E+01  1.23755293E+01 -2.47510585E+01
  0.00000000E+00  1.23755293E+01  1.23755293E+01 -2.47510585E+01  0.00000000E+00
  1.23755293E+01  1.23755293E+01 -2.47510585E+01  0.00000000E+00  1.23755293E+01
  1.23755293E+01 -2.47510585E+01  0.00000000E+00  1.23755293E+01  1.23755293E+01
 -2.47510585E+01  0.00000000E+00  1.23755293E+01  1.23755293E+01 -2.47510585E+01
  0.00000000E+00  1.23755293E+01  1.23755293E+01 -2.47510585E+01  0.00000000E+00
  1.23755293E+01  1.23755293E+01 -2.47510585E+01  0.00000000E+00  1.23755293E+01
  1.23755293E+01 -2.47510585E+01  0.00000000E+00  1.23755293E+01  1.23755293E+01
 -2.47510585E+01  0.00000000E+00  1.23755293E+01  1.23755293E+01 -2.47510585E+01
  0.00000000E+00  1.23755293E+01  1.23755293E+01 -2.47510585E+01  0.00000000E+00
  1.23755293E+01  1.23755293E+01 -2.47510585E+01  0.00000000E+00  1.23755293E+01
  1.23755293E+01 -2.47510585E+01  0.00000000E+00  1.23755293E+01  1.23755293E+01
 -2.47510585E+01  0.00000000E+00  1.23755293E+01  1.23755293E+01 -2.47510585E+01
  0.00000000E+00  1.23755293E+01  1.23755293E+01 -2.47510585E+01  0.00000000E+00
  1.23755293E+01  1.23755293E+01 -2.47510585E+01  0.00000000E+00  1.23755293E+01
  1.23755293E+01 -2.47510585E+01  0.00000000E+00  1.23755293E+01  1.23755293E+01
 -2.47510585E+01  0.00000000E+00  1.23755293E+01  1.23755293E+01 -2.47510585E+01
  0.00000000E+00  1.23755293E+01  1.23755293E+01 -2.47510585E+01  0.00000000E+00
  1.23755293E+01  1.23755293E+01 -2.47510585E+01  0.00000000E+00  1.23755293E+01
  1.23755293E+01 -2.47510585E+01  0.00000000E+00  1.23755293E+01  1.23755293E+01
 -2.47510585E+01  0.00000000E+00  1.23755293E+01  1.23755293E+01 -2.47510585E+01
  0.00000000E+00  1.23755293E+01  1.23755293E+01 -2.47510585E+01  0.00000000E+00
  1.23755293E+01  1.23755293E+01 -2.47510585E+01  0.00000000E+00  1.23755293E+01
  1.23755293E+01 -2.47510585E+01  0.00000000E+00  1.23755293E+01  1.23755293E+01
 -2.47510585E+01  0.00000000E+00  1.23755293E+01  1.23755293E+01 -2.47510585E+01
  0.00000000E+00  1.23755293E+01  1.23755293E+01 -2.47510585E+01  0.00000000E+00
  1.23755293E+01  1.23755293E+01 -2.47510585E+01  0.00000000E+00  1.23755293E+01
  1.23755293E+01 -2.47510585E+01  0.00000000E+00  1.23755293E+01  1.23755293E+01
 -2.47510585E+01  0.00000000E+00  1.23755293E+01  1.23755293E+01 -2.47510585E+01
  0.00000000E+00  1.23755293E+01  1.23755293E+01 -2.47510585E+01  0.00000000E+00
  1.23755293E+01  1.23755293E+01 -2.47510585E+01  0.00000000E+00  1.23755293E+01
  1.23755293E+01 -2.47510585E+01  0.00000000E+00  1.23755293E+01  1.23755293E+01
 -2.47510585E+01  0.00000000E+00  1.23755293E+01  1.23755293E+01 -2.47510585E+01
  0.00000000E+00  1.23755293E+01  1.23755293E+01 -2.47510585E+01  0.00000000E+00
  1.23755293E+01  1.23755293E+01 -2.47510585E+01  0.00000000E+00  1.23755293E+01
  1.23755293E+01 -2.47510585E+01  0.00000000E+00  1.23755293E+01  1.23755293E+01
 -2.47510585E+01  0.00000000E+00  1.23755293E+01  1.23755293E+01 -2.47510585E+01
  0.00000000E+00  1.23755293E+01  1.23755293E+01 -2.47510585E+01  0.00000000E+00
  1.23755293E+01  1.23755293E+01 -2.47510585E+01  0.00000000E+00  1.23755293E+01
  1.23755293E+01 -2.47510585E+01  0.00000000E+00  1.23755293E+01  1.23755293E+01
 -2.47510585E+01  0.00000000E+00  1.23755293E+01  1.23755293E+01 -2.47510585E+01
  0.00000000E+00  1.23755293E+01  1.23755293E+01 -2.47510585E+01  0.00000000E+00
  1.23755293E+01  1.23755293E+01 -2.47510585E+01  0.00000000E+00  1.23755293E+01
  1.23755293E+01 -2.47510585E+01  0.00000000E+00  1.23755293E+01  1.23755293E+01
 -2.47510585E+01  0.00000000E+00  1.23755293E+01  1.23755293E+01 -2.47510585E+01
  0.00000000E+00  1.23755293E+01  1.23755293E+01 -2.47510585E+01  0.00000000E+00
  1.23755293E+01  1.23755293E+01 -2.47510585E+01  0.00000000E+00  1.23755293E+01
  1.23755293E+01 -2.47510585E+01  0.00000000E+00  1.23755293E+01  1.23755293E+01
 -2.47510585E+01  0.00000000E+00  1.23755293E+01  1.23755293E+01 -2.47510585E+01
  0.00000000E+00  1.23755293E+01  1.23755293E+01 -2.47510585E+01  0.00000000E+00
  1.23755293E+01  1.23755293E+01 -2.47510585E+01  0.00000000E+00  1.23755293E+01
  1.23755293E+01 -2.47510585E+01  0.00000000E+00  1.23755293E+01  1.23755293E+01
 -2.47510585E+01  0.00000000E+00  1.23755293E+01  1.23755293E+01 -2.47510585E+01
  0.00000000E+00  1.23755293E+01  1.23755293E+01 -2.47510585E+01  0.00000000E+00
  1.23755293E+01  1.23755293E+01 -2.47510585E+01  0.00000000E+00  1.23755293E+01
  1.23755293E+01 -2.47510585E+01  0.00000000E+00  1.23755293E+01  1.23755293E+01
 -2.47510585E+01  0.00000000E+00  1.23755293E+01  1.23755293E+01 -2.47510585E+01
  0.00000000E+00  1.23755293E+01  1.23755293E+01 -2.47510585E+01  0.00000000E+00
  1.23755293E+01  1.23755293E+01 -2.47510585E+01  0.00000000E+00  1.23755293E+01
  1.23755293E+01 -2.47510585E+01  0.00000000E+00  1.23755293E+01  1.23755293E+01
 -2.47510585E+01  0.00000000E+00  1.23755293E+01  1.23755293E+01 -2.47510585E+01
  0.00000000E+00  1.23755293E+01  1.23755293E+01 -2.47510585E+01  0.00000000E+00
  1.23755293E+01  1.23755293E+01 -2.47510585E+01  0.00000000E+00  1.23755293E+01
  1.23755293E+01 -2.47510585E+01  0.00000000E+00  1.23755293E+01  1.23755293E+01
 -2.47510585E+01  0.00000000E+00  1.23755293E+01  1.23755293E+01 -2.47510585E+01
  0.00000000E+00  1.23755293E+01  1.23755293E+01 -2.47510585E+01  0.00000000E+00
  1.23755293E+01  1.23755293E+01 -2.47510585E+01  0.00000000E+00  1.23755293E+01
  1.23755293E+01 -2.47510585E+01  0.00000000E+00  1.23755293E+01  1.23755293E+01
 -2.47510585E+01  0.00000000E+00  1.23755293E+01  1.23755293E+01 -2.47510585E+01
  0.00000000E+00  1.23755293E+01  1.23755293E+01 -2.47510585E+01  0.00000000E+00
  1.23755293E+01  1.23755293E+01 -2.47510585E+01  0.00000000E+00  1.23755293E+01
  1.23755293E+01 -2.47510585E+01  0.00000000E+00  1.23755293E+01  1.23755293E+01
 -2.47510585E+01  0.00000000E+00  1.23755293E+01  1.23755293E+01 -2.47510585E+01
  0.00000000E+00  1.23755293E+01  1.23755293E+01 -2.47510585E+01  0.00000000E+00
  1.23755293E+01  1.23755293E+01 -2.47510585E+01  0.00000000E+00  1.23755293E+01
  1.23755293E+01 -2.47510585E+01  0.00000000E+00  1.23755293E+01  1.23755293E+01
 -2.47510585E+01  0.00000000E+00  1.23755293E+01  1.23755293E+01 -2.47510585E+01
  0.00000000E+00  1.23755293E+01  1.23755293E+01 -2.47510585E+01  0.00000000E+00
  1.23755293E+01  1.23755293E+01 -2.47510585E+01  0.00000000E+00  1.23755293E+01
  1.23755293E+01 -2.47510585E+01  0.00000000E+00  1.23755293E+01  1.23755293E+01
 -2.47510585E+01  0.00000000E+00  1.23755293E+01  1.23755293E+01 -2.47510585E+01
  0.00000000E+00  1.23755293E+01  1.23755293E+01 -2.47510585E+01  0.00000000E+00
  1.23755293E+01  1.23755293E+01 -2.47510585E+01  0.00000000E+00  1.23755293E+01
  1.23755293E+01 -2.47510585E+01  0.00000000E+00  1.23755293E+01  1.23755293E+01
 -2.47510585E+01  0.00000000E+00  1.23755293E+01  1.23755293E+01 -2.47510585E+01
  0.00000000E+00  1.23755293E+01  1.23755293E+01 -2.47510585E+01  0.00000000E+00
  1.23755293E+01  1.23755293E+01 -2.47510585E+01  0.00000000E+00  1.23755293E+01
  1.23755293E+01 -2.47510585E+01  0.00000000E+00  1.23755293E+01  1.23755293E+01
 -2.47510585E+01  0.00000000E+00  1.23755293E+01  1.23755293E+01 -2.47510585E+01
  0.00000000E+00  1.23755293E+01  1.23755293E+01 -2.47510585E+01  0.00000000E+00
  1.23755293E+01  1.23755293E+01 -2.47510585E+01  0.00000000E+00  1.23755293E+01
  1.23755293E+01 -2.47510585E+01  0.00000000E+00  1.23755293E+01  1.23755293E+01
 -2.47510585E+01  0.00000000E+00  1.23755293E+01  1.23755293E+01 -2.47510585E+01
  0.00000000E+00  1.23755293E+01  1.23755293E+01 -2.47510585E+01  0.00000000E+00
  1.23755293E+01  1.23755293E+01 -2.47510585E+01  0.00000000E+00  1.23755293E+01
  1.23755293E+01 -2.47510585E+01  0.00000000E+00  1.23755293E+01  1.23755293E+01
 -2.47510585E+01  0.00000000E+00  1.23755293E+01  1.23755293E+01 -2.47510585E+01
  0.00000000E+00  1.23755293E+01  1.23755293E+01 -2.47510585E+01  0.00000000E+00
  1.23755293E+01  1.23755293E+01 -2.47510585E+01  0.00000000E+00  1.23755293E+01
  1.23755293E+01 -2.47510585E+01  0.00000000E+00  1.23755293E+01  1.23755293E+01
 -2.47510585E+01  0.00000000E+00  1.23755293E+01  1.23755293E+01 -2.47510585E+01
  0.00000000E+00  1.23755293E+01  1.23755293E+01 -2.47510585E+01  0.00000000E+00
  1.23755293E+01  1.23755293E+01 -2.47510585E+01  0.00000000E+00  1.23755293E+01
  1.23755293E+01 -2.47510585E+01  0.00000000E+00  1.23755293E+01  1.23755293E+01
 -2.47510585E+01  0.00000000E+00  1.23755293E+01  1.23755293E+01 -2.47510585E+01
  0.00000000E+00  1.23755293E+01  1.23755293E+01 -2.47510585E+01  0.00000000E+00
  1.23755293E+01  1.23755293E+01 -2.47510585E+01  0.00000000E+00  1.23755293E+01
  1.23755293E+01 -2.47510585E+01  0.00000000E+00  1.23755293E+01  1.23755293E+01
 -2.47510585E+01  0.00000000E+00  1.23755293E+01  1.23755293E+01 -2.47510585E+01
  0.00000000E+00  1.23755293E+01  1.23755293E+01 -2.47510585E+01  0.00000000E+00
  1.23755293E+01  1.23755293E+01 -2.47510585E+01  0.00000000E+00  1.23755293E+01
  1.23755293E+01 -2.47510585E+01  0.00000000E+00  1.23755293E+01  1.23755293E+01
 -2.47510585E+01  0.00000000E+00  1.23755293E+01  1.23755293E+01 -2.47510585E+01
  0.00000000E+00  1.23755293E+01  1.23755293E+01 -2.47510585E+01  0.00000000E+00
  1.23755293E+01  1.23755293E+01 -2.47510585E+01  0.00000000E+00  1.23755293E+01
  1.23755293E+01 -2.47510585E+01  0.00000000E+00  1.23755293E+01  1.23755293E+01
 -2.47510585E+01  0.00000000E+00  1.23755293E+01  1.23755293E+01 -2.47510585E+01
  0.00000000E+00  1.23755293E+01  1.23755293E+01 -2.47510585E+01  0.00000000E+00
  1.23755293E+01  1.23755293E+01 -2.47510585E+01  0.00000000E+00  1.23755293E+01
  1.23755293E+01 -2.47510585E+01  0.00000000E+00  1.23755293E+01  1.23755293E+01
 -2.47510585E+01  0.00000000E+00  1.23755293E+01  1.23755293E+01 -2.47510585E+01
  0.00000000E+00  1.23755293E+01  1.23755293E+01 -2.47510585E+01  0.00000000E+00
  1.23755293E+01  1.23755293E+01 -2.47510585E+01  0.00000000E+00  1.23755293E+01
  1.23755293E+01 -2.47510585E+01  0.00000000E+00  1.23755293E+01  1.23755293E+01
 -2.47510585E+01  0.00000000E+00  1.23755293E+01  1.23755293E+01 -2.47510585E+01
  0.00000000E+00  1.23755293E+01  1.23755293E+01 -2.47510585E+01  0.00000000E+00
  1.23755293E+01  1.23755293E+01 -2.47510585E+01  0.00000000E+00  1.23755293E+01
  1.23755293E+01 -2.47510585E+01  0.00000000E+00  1.23755293E+01  1.23755293E+01
 -2.47510585E+01  0.00000000E+00  1.23755293E+01  1.23755293E+01 -2.47510585E+01
  0.00000000E+00  1.23755293E+01  1.23755293E+01 -2.47510585E+01  0.00000000E+00
  1.23755293E+01  1.23755293E+01 -2.47510585E+01  0.00000000E+00  1.23755293E+01
  1.23755293E+01 -2.47510585E+01  0.00000000E+00  1.23755293E+01  1.23755293E+01
 -2.47510585E+01  0.00000000E+00  1.23755293E+01  1.23755293E+01 -2.47510585E+01
  0.00000000E+00  1.23755293E+01  1.23755293E+01 -2.47510585E+01  0.00000000E+00
  1.23755293E+01  1.23755293E+01 -2.47510585E+01  0.00000000E+00  1.23755293E+01
  1.23755293E+01 -2.47510585E+01  0.00000000E+00  1.23755293E+01  1.23755293E+01
 -2.47510585E+01  0.00000000E+00  1.23755293E+01  1.23755293E+01 -2.47510585E+01
  0.00000000E+00  1.23755293E+01  1.23755293E+01 -2.47510585E+01  0.00000000E+00
  1.23755293E+01  1.23755293E+01 -2.47510585E+01  0.00000000E+00  1.23755293E+01
  1.23755293E+01 -2.47510585E+01  0.00000000E+00  1.23755293E+01  1.23755293E+01
 -2.47510585E+01  0.00000000E+00  1.23755293E+01  1.23755293E+01 -2.47510585E+01
  0.00000000E+00  1.23755293E+01  1.23755293E+01 -2.47510585E+01  0.00000000E+00
  1.23755293E+01  1.23755293E+01 -2.47510585E+01  0.00000000E+00  1.23755293E+01
  1.23755293E+01 -2.47510585E+01  0.00000000E+00  1.23755293E+01  1.23755293E+01
 -2.47510585E+01  0.00000000E+00  1.23755293E+01  1.23755293E+01 -2.47510585E+01
  0.00000000E+00  1.23755293E+01  1.23755293E+01 -2.47510585E+01  0.00000000E+00
  1.23755293E+01  1.23755293E+01 -2.47510585E+01  0.00000000E+00  1.23755293E+01
  1.23755293E+01 -2.47510585E+01  0.00000000E+00  1.23755293E+01  1.23755293E+01
 -2.47510585E+01  0.00000000E+00  1.23755293E+01  1.23755293E+01 -2.47510585E+01
  0.00000000E+00  1.23755293E+01  1.23755293E+01 -2.47510585E+01  0.00000000E+00
  1.23755293E+01  1.23755293E+01 -2.47510585E+01  0.00000000E+00  1.23755293E+01
  1.23755293E+01 -2.47510585E+01  0.00000000E+00  1.23755293E+01  1.23755293E+01
 -2.47510585E+01  0.00000000E+00  1.23755293E+01  1.23755293E+01 -2.47510585E+01
  0.00000000E+00  1.23755293E+01  1.23755293E+01 -2.47510585E+01  0.00000000E+00
  1.23755293E+01  1.23755293E+01 -2.47510585E+01  0.00000000E+00  1.23755293E+01
  1.23755293E+01 -2.47510585E+01  0.00000000E+00  1.23755293E+01  1.23755293E+01
 -2.47510585E+01  0.00000000E+00  1.23755293E+01  1.23755293E+01 -2.47510585E+01
  0.00000000E+00  1.23755293E+01  1.23755293E+01 -2.47510585E+01  0.00000000E+00
  1.23755293E+01  1.23755293E+01 -2.47510585E+01  0.00000000E+00  1.23755293E+01
  1.23755293E+01 -2.47510585E+01  0.00000000E+00  1.23755293E+01  1.23755293E+01
 -2.47510585E+01  0.00000000E+00  1.23755293E+01  1.23755293E+01 -2.47510585E+01
  0.00000000E+00  1.23755293E+01  1.23755293E+01 -2.47510585E+01  0.00000000E+00
  1.23755293E+01  1.23755293E+01 -2.47510585E+01  0.00000000E+00  1.23755293E+01
  1.23755293E+01 -2.47510585E+01  0.00000000E+00  1.23755293E+01  1.23755293E+01
 -2.47510585E+01  0.00000000E+00  1.23755293E+01  1.23755293E+01 -2.47510585E+01
  0.00000000E+00  1.23755293E+01  1.23755293E+01 -2.47510585E+01  0.00000000E+00
  1.23755293E+01  1.23755293E+01 -2.47510585E+01  0.00000000E+00  1.23755293E+01
  1.23755293E+01 -2.47510585E+01  0.00000000E+00  1.23755293E+01  1.23755293E+01
 -2.47510585E+01  0.00000000E+00  1.23755293E+01  1.23755293E+01 -2.47510585E+01
  0.00000000E+00  1.23755293E+01  1.23755293E+01 -2.47510585E+01  0.00000000E+00
  1.23755293E+01  1.23755293E+01 -2.47510585E+01  0.00000000E+00  1.23755293E+01
  1.23755293E+01 -2.47510585E+01  0.00000000E+00  1.23755293E+01  1.23755293E+01
 -2.47510585E+01  0.00000000E+00  1.23755293E+01  1.23755293E+01 -2.47510585E+01
  0.00000000E+00  1.23755293E+01  1.23755293E+01 -2.47510585E+01  0.00000000E+00
  1.23755293E+01  1.23755293E+01 -2.47510585E+01  0.00000000E+00  1.23755293E+01
  1.23755293E+01 -2.47510585E+01  0.00000000E+00  1.23755293E+01  1.23755293E+01
 -2.47510585E+01  0.00000000E+00  1.23755293E+01  1.23755293E+01 -2.47510585E+01
  0.00000000E+00  1.23755293E+01  1.23755293E+01 -2.47510585E+01  0.00000000E+00
  1.23755293E+01  1.23755293E+01 -2.47510585E+01  0.00000000E+00  1.23755293E+01
  1.23755293E+01 -2.47510585E+01  0.00000000E+00  1.23755293E+01  1.23755293E+01
 -2.47510585E+01  0.00000000E+00  1.23755293E+01  1.23755293E+01 -2.47510585E+01
  0.00000000E+00  1.23755293E+01  1.23755293E+01 -2.47510585E+01  0.00000000E+00
  1.23755293E+01  1.23755293E+01 -2.47510585E+01  0.00000000E+00  1.23755293E+01
  1.23755293E+01 -2.47510585E+01  0.00000000E+00  1.23755293E+01  1.23755293E+01
 -2.47510585E+01  0.00000000E+00  1.23755293E+01  1.23755293E+01 -2.47510585E+01
  0.00000000E+00  1.23755293E+01  1.23755293E+01 -2.47510585E+01  0.00000000E+00
  1.23755293E+01  1.23755293E+01 -2.47510585E+01  0.00000000E+00  1.23755293E+01
  1.23755293E+01 -2.47510585E+01  0.00000000E+00  1.23755293E+01  1.23755293E+01
 -2.47510585E+01  0.00000000E+00  1.23755293E+01  1.23755293E+01 -2.47510585E+01
  0.00000000E+00  1.23755293E+01  1.23755293E+01 -2.47510585E+01  0.00000000E+00
  1.23755293E+01  1.23755293E+01 -2.47510585E+01  0.00000000E+00  1.23755293E+01
  1.23755293E+01 -2.47510585E+01  0.00000000E+00  1.23755293E+01  1.23755293E+01
 -2.47510585E+01  0.00000000E+00  1.23755293E+01  1.23755293E+01 -2.47510585E+01
  0.00000000E+00  1.23755293E+01  1.23755293E+01 -2.47510585E+01  0.00000000E+00
  1.23755293E+01  1.23755293E+01 -2.47510585E+01  0.00000000E+00  1.23755293E+01
  1.23755293E+01 -2.47510585E+01  0.00000000E+00  1.23755293E+01  1.23755293E+01
 -2.47510585E+01  0.00000000E+00  1.23755293E+01  1.23755293E+01 -2.47510585E+01
  0.00000000E+00  1.23755293E+01  1.23755293E+01 -2.47510585E+01  0.00000000E+00
  1.23755293E+01  1.23755293E+01 -2.47510585E+01  0.00000000E+00  1.23755293E+01
  1.23755293E+01 -2.47510585E+01  0.00000000E+00  1.23755293E+01  1.23755293E+01
 -2.47510585E+01  0.00000000E+00  1.23755293E+01  1.23755293E+01 -2.47510585E+01
  0.00000000E+00  1.23755293E+01  1.23755293E+01 -2.47510585E+01  0.00000000E+00
  1.23755293E+01  1.23755293E+01 -2.47510585E+01  0.00000000E+00  1.23755293E+01
  1.23755293E+01 -2.47510585E+01  0.00000000E+00  1.23755293E+01  1.23755293E+01
 -2.47510585E+01  0.00000000E+00  1.23755293E+01  1.23755293E+01 -2.47510585E+01
  0.00000000E+00  1.23755293E+01  1.23755293E+01 -2.47510585E+01  0.00000000E+00
  1.23755293E+01  1.23755293E+01 -2.47510585E+01  0.00000000E+00  1.23755293E+01
  1.23755293E+01 -2.47510585E+01  0.00000000E+00  1.23755293E+01  1.23755293E+01
 -2.47510585E+01  0.00000000E+00  1.23755293E+01  1.23755293E+01 -2.47510585E+01
  0.00000000E+00  1.23755293E+01  1.23755293E+01 -2.47510585E+01  0.00000000E+00
  1.23755293E+01  1.23755293E+01 -2.47510585E+01  0.00000000E+00  1.23755293E+01
  1.23755293E+01 -2.47510585E+01  0.00000000E+00  1.23755293E+01  1.23755293E+01
 -2.47510585E+01  0.00000000E+00  1.23755293E+01  1.23755293E+01 -2.47510585E+01
  0.00000000E+00  1.23755293E+01  1.23755293E+01 -2.47510585E+01  0.00000000E+00
  1.23755293E+01  1.23755293E+01 -2.47510585E+01  0.00000000E+00  1.23755293E+01
  1.23755293E+01 -2.47510585E+01  0.00000000E+00  1.23755293E+01  1.23755293E+01
 -2.47510585E+01  0.00000000E+00  1.23755293E+01  1.23755293E+01 -2.47510585E+01
  0.00000000E+00  1.23755293E+01  1.23755293E+01 -2.47510585E+01  0.00000000E+00
  1.23755293E+01  1.23755293E+01 -2.47510585E+01  0.00000000E+00  1.23755293E+01
  1.23755293E+01 -2.47510585E+01  0.00000000E+00  1.23755293E+01  1.23755293E+01
 -2.47510585E+01  0.00000000E+00  1.23755293E+01  1.23755293E+01 -2.47510585E+01
  0.00000000E+00  1.23755293E+01  1.23755293E+01 -2.47510585E+01  0.00000000E+00
  1.23755293E+01  1.23755293E+01 -2.47510585E+01  0.00000000E+00  1.23755293E+01
  1.23755293E+01 -2.47510585E+01  0.00000000E+00  1.23755293E+01  1.23755293E+01
 -2.47510585E+01  0.00000000E+00  1.23755293E+01  1.23755293E+01 -2.47510585E+01
  0.00000000E+00  1.23755293E+01  1.23755293E+01 -2.47510585E+01  0.00000000E+00
  1.23755293E+01  1.23755293E+01 -2.47510585E+01  0.00000000E+00  1.23755293E+01
  1.23755293E+01 -2.47510585E+01  0.00000000E+00  1.23755293E+01  1.23755293E+01
 -2.47510585E+01  0.00000000E+00  1.23755293E+01  1.23755293E+01 -2.47510585E+01
  0.00000000E+00  1.23755293E+01  1.23755293E+01 -2.47510585E+01  0.00000000E+00
  1.23755293E+01  1.23755293E+01 -2.47510585E+01  0.00000000E+00  1.23755293E+01
  1.23755293E+01 -2.47510585E+01  0.00000000E+00  1.23755293E+01  1.23755293E+01
 -2.47510585E+01  0.00000000E+00  1.23755293E+01  1.23755293E+01 -2.47510585E+01
  0.00000000E+00  1.23755293E+01  1.23755293E+01 -2.47510585E+01  0.00000000E+00
  1.23755293E+01  1.23755293E+01 -2.47510585E+01  0.00000000E+00  1.23755293E+01
  1.23755293E+01 -2.47510585E+01  0.00000000E+00  1.23755293E+01  1.23755293E+01
 -2.47510585E+01  0.00000000E+00  1.23755293E+01  1.23755293E+01 -2.47510585E+01
  0.00000000E+00  1.23755293E+01  1.23755293E+01 -2.47510585E+01  0.00000000E+00
  1.23755293E+01  1.23755293E+01 -2.47510585E+01  0.00000000E+00  1.23755293E+01
  1.23755293E+01 -2.47510585E+01  0.00000000E+00  1.23755293E+01  1.23755293E+01
 -2.47510585E+01  0.00000000E+00  1.23755293E+01  1.23755293E+01 -2.47510585E+01
  0.00000000E+00  1.23755293E+01  1.23755293E+01 -2.47510585E+01  0.00000000E+00
  1.23755293E+01  1.23755293E+01 -2.47510585E+01  0.00000000E+00  1.23755293E+01
  1.23755293E+01 -2.47510585E+01  0.00000000E+00  1.23755293E+01  1.23755293E+01
 -2.47510585E+01  0.00000000E+00  1.23755293E+01  1.23755293E+01 -2.47510585E+01
  0.00000000E+00  1.23755293E+01  1.23755293E+01 -2.47510585E+01  0.00000000E+00
  1.23755293E+01  1.23755293E+01 -2.47510585E+01  0.00000000E+00  1.23755293E+01
  1.23755293E+01 -2.47510585E+01  0.00000000E+00  1.23755293E+01  1.23755293E+01
 -2.47510585E+01  0.00000000E+00  1.23755293E+01  1.23755293E+01 -2.47510585E+01
  0.00000000E+00  1.23755293E+01  1.23755293E+01 -2.47510585E+01  0.00000000E+00
  1.23755293E+01  1.23755293E+01 -2.47510585E+01  0.00000000E+00  1.23755293E+01
  1.23755293E+01 -2.47510585E+01  0.00000000E+00  1.23755293E+01  1.23755293E+01
 -2.47510585E+01  0.00000000E+00  1.23755293E+01  1.23755293E+01 -2.47510585E+01
  0.00000000E+00  1.23755293E+01  1.23755293E+01 -2.47510585E+01  0.00000000E+00
  1.23755293E+01  1.23755293E+01 -2.47510585E+01  0.00000000E+00  1.23755293E+01
  1.23755293E+01 -2.47510585E+01  0.00000000E+00  1.23755293E+01  1.23755293E+01
 -2.47510585E+01  0.00000000E+00  1.23755293E+01  1.23755293E+01 -2.47510585E+01
  0.00000000E+00  1.23755293E+01  1.23755293E+01 -2.47510585E+01  0.00000000E+00
  1.23755293E+01  1.23755293E+01 -2.47510585E+01  0.00000000E+00  1.23755293E+01
  1.23755293E+01 -2.47510585E+01  0.00000000E+00  1.23755293E+01  1.23755293E+01
 -2.47510585E+01  0.00000000E+00  1.23755293E+01  1.23755293E+01 -2.47510585E+01
  0.00000000E+00  1.23755293E+01  1.23755293E+01 -2.47510585E+01  0.00000000E+00
  1.23755293E+01  1.23755293E+01 -2.47510585E+01  0.00000000E+00  1.23755293E+01
  1.23755293E+01 -2.47510585E+01  0.00000000E+00  1.23755293E+01  1.23755293E+01
 -2.47510585E+01  0.00000000E+00  1.23755293E+01  1.23755293E+01 -2.47510585E+01
  0.00000000E+00  1.23755293E+01  1.23755293E+01 -2.47510585E+01  0.00000000E+00
  1.23755293E+01  1.23755293E+01 -2.47510585E+01  0.00000000E+00  1.23755293E+01
  1.23755293E+01 -2.47510585E+01  0.00000000E+00  1.23755293E+01  1.23755293E+01
 -2.47510585E+01  0.00000000E+00  1.23755293E+01  1.23755293E+01 -2.47510585E+01
  0.00000000E+00  1.23755293E+01  1.23755293E+01 -2.47510585E+01  0.00000000E+00
  1.23755293E+01  1.23755293E+01 -2.47510585E+01  0.00000000E+00  1.23755293E+01
  1.23755293E+01 -2.47510585E+01  0.00000000E+00  1.23755293E+01  1.23755293E+01
 -2.47510585E+01  0.00000000E+00  1.23755293E+01  1.23755293E+01 -2.47510585E+01
  0.00000000E+00  1.23755293E+01  1.23755293E+01 -2.47510585E+01  0.00000000E+00
  1.23755293E+01  1.23755293E+01 -2.47510585E+01  0.00000000E+00  1.23755293E+01
  1.23755293E+01 -2.47510585E+01  0.00000000E+00  1.23755293E+01  1.23755293E+01
 -2.47510585E+01  0.00000000E+00  1.23755293E+01  1.23755293E+01 -2.47510585E+01
  0.00000000E+00  1.23755293E+01  1.23755293E+01 -2.47510585E+01  0.00000000E+00
  1.23755293E+01  1.23755293E+01 -2.47510585E+01  0.00000000E+00  1.23755293E+01
  1.23755293E+01 -2.47510585E+01  0.00000000E+00  1.23755293E+01  1.23755293E+01
 -2.47510585E+01  0.00000000E+00  1.23755293E+01  1.23755293E+01 -2.47510585E+01
  0.00000000E+00  1.23755293E+01  1.23755293E+01 -2.47510585E+01  0.00000000E+00
  1.23755293E+01  1.23755293E+01 -2.47510585E+01  0.00000000E+00  1.23755293E+01
  1.23755293E+01 -2.47510585E+01  0.00000000E+00  1.23755293E+01  1.23755293E+01
 -2.47510585E+01  0.00000000E+00  1.23755293E+01  1.23755293E+01 -2.47510585E+01
  0.00000000E+00  1.23755293E+01  1.23755293E+01 -2.47510585E+01  0.00000000E+00
  1.23755293E+01  1.23755293E+01 -2.47510585E+01  0.00000000E+00  1.23755293E+01
  1.23755293E+01 -2.47510585E+01  0.00000000E+00  1.23755293E+01  1.23755293E+01
 -2.47510585E+01  0.00000000E+00  1.23755293E+01  1.23755293E+01 -2.47510585E+01
  0.00000000E+00  1.23755293E+01  1.23755293E+01 -2.47510585E+01  0.00000000E+00
  1.23755293E+01  1.23755293E+01 -2.47510585E+01  0.00000000E+00  1.23755293E+01
  1.23755293E+01 -2.47510585E+01  0.00000000E+00  1.23755293E+01  1.23755293E+01
 -2.47510585E+01  0.00000000E+00  1.23755293E+01  1.23755293E+01 -2.47510585E+01
  0.00000000E+00  1.23755293E+01  1.23755293E+01 -2.47510585E+01  0.00000000E+00
  1.23755293E+01  1.23755293E+01 -2.47510585E+01  0.00000000E+00  1.23755293E+01
  1.23755293E+01 -2.47510585E+01  0.00000000E+00  1.23755293E+01  1.23755293E+01
 -2.47510585E+01  0.00000000E+00  1.23755293E+01  1.23755293E+01 -2.47510585E+01
  0.00000000E+00  1.23755293E+01  1.23755293E+01 -2.47510585E+01  0.00000000E+00
  1.23755293E+01  1.23755293E+01 -2.47510585E+01  0.00000000E+00  1.23755293E+01
  1.23755293E+01 -2.47510585E+01  0.00000000E+00  1.23755293E+01  1.23755293E+01
 -2.47510585E+01  0.00000000E+00  1.23755293E+01  1.23755293E+01 -2.47510585E+01
  0.00000000E+00  1.23755293E+01  1.23755293E+01 -2.47510585E+01  0.00000000E+00
  1.23755293E+01  1.23755293E+01 -2.47510585E+01  0.00000000E+00  1.23755293E+01
  1.23755293E+01 -2.47510585E+01  0.00000000E+00  1.23755293E+01  1.23755293E+01
 -2.47510585E+01  0.00000000E+00  1.23755293E+01  1.23755293E+01 -2.47510585E+01
  0.00000000E+00  1.23755293E+01  1.23755293E+01 -2.47510585E+01  0.00000000E+00
  1.23755293E+01  1.23755293E+01 -2.47510585E+01  0.00000000E+00  1.23755293E+01
  1.23755293E+01 -2.47510585E+01  0.00000000E+00  1.23755293E+01  1.23755293E+01
 -2.47510585E+01  0.00000000E+00  1.23755293E+01  1.23755293E+01 -2.47510585E+01
  0.00000000E+00  1.23755293E+01  1.23755293E+01 -2.47510585E+01  0.00000000E+00
  1.23755293E+01  1.23755293E+01 -2.47510585E+01  0.00000000E+00  1.23755293E+01
  1.23755293E+01 -2.47510585E+01  0.00000000E+00  1.23755293E+01  1.23755293E+01
 -2.47510585E+01  0.00000000E+00  1.23755293E+01  1.23755293E+01 -2.47510585E+01
  0.00000000E+00  1.23755293E+01  1.23755293E+01 -2.47510585E+01  0.00000000E+00
  1.23755293E+01  1.23755293E+01 -2.47510585E+01  0.00000000E+00  1.23755293E+01
  1.23755293E+01 -2.47510585E+01  0.00000000E+00  1.23755293E+01  1.23755293E+01
 -2.47510585E+01  0.00000000E+00  1.23755293E+01  1.23755293E+01 -2.47510585E+01
  0.00000000E+00  1.23755293E+01  1.23755293E+01 -2.47510585E+01  0.00000000E+00
  1.23755293E+01  1.23755293E+01 -2.47510585E+01  0.00000000E+00  1.23755293E+01
  1.23755293E+01 -2.47510585E+01  0.00000000E+00  1.23755293E+01  1.23755293E+01
 -2.47510585E+01  0.00000000E+00  1.23755293E+01  1.23755293E+01 -2.47510585E+01
  0.00000000E+00  1.23755293E+01  1.23755293E+01 -2.47510585E+01  0.00000000E+00
  1.23755293E+01  1.23755293E+01 -2.47510585E+01  0.00000000E+00  1.23755293E+01
  1.23755293E+01 -2.47510585E+01  0.00000000E+00  1.23755293E+01  1.23755293E+01
 -2.47510585E+01  0.00000000E+00  1.23755293E+01  1.23755293E+01 -2.47510585E+01
  0.00000000E+00  1.23755293E+01  1.23755293E+01 -2.47510585E+01  0.00000000E+00
  1.23755293E+01  1.23755293E+01 -2.47510585E+01  0.00000000E+00  1.23755293E+01
  1.23755293E+01 -2.47510585E+01  0.00000000E+00  1.23755293E+01  1.23755293E+01
 -2.47510585E+01  0.00000000E+00  1.23755293E+01  1.23755293E+01 -2.47510585E+01
  0.00000000E+00  1.23755293E+01  1.23755293E+01 -2.47510585E+01  0.00000000E+00
  1.23755293E+01  1.23755293E+01 -2.47510585E+01  0.00000000E+00  1.23755293E+01
  1.23755293E+01 -2.47510585E+01  0.00000000E+00  1.23755293E+01  1.23755293E+01
 -2.47510585E+01  0.00000000E+00  1.23755293E+01  1.23755293E+01 -2.47510585E+01
  0.00000000E+00  1.23755293E+01  1.23755293E+01 -2.47510585E+01  0.00000000E+00
  1.23755293E+01  1.23755293E+01 -2.47510585E+01  0.00000000E+00  1.23755293E+01
  1.23755293E+01 -2.47510585E+01  0.00000000E+00  1.23755293E+01  1.23755293E+01
 -2.47510585E+01  0.00000000E+00  1.23755293E+01  1.23755293E+01 -2.47510585E+01
  0.00000000E+00  1.23755293E+01  1.23755293E+01 -2.47510585E+01  0.00000000E+00
  1.23755293E+01  1.23755293E+01 -2.47510585E+01  0.00000000E+00  1.23755293E+01
  1.23755293E+01 -2.47510585E+01  0.00000000E+00  1.23755293E+01  1.23755293E+01
 -2.47510585E+01  0.00000000E+00  1.23755293E+01  1.23755293E+01 -2.47510585E+01
  0.00000000E+00  1.23755293E+01  1.23755293E+01 -2.47510585E+01  0.00000000E+00
  1.23755293E+01  1.23755293E+01 -2.47510585E+01  0.00000000E+00  1.23755293E+01
  1.23755293E+01 -2.47510585E+01  0.00000000E+00  1.23755293E+01  1.23755293E+01
 -2.47510585E+01  0.00000000E+00  1.23755293E+01  1.23755293E+01 -2.47510585E+01
  0.00000000E+00  1.23755293E+01  1.23755293E+01 -2.47510585E+01  0.00000000E+00
  1.23755293E+01  1.23755293E+01 -2.47510585E+01  0.00000000E+00  1.23755293E+01
  1.23755293E+01 -2.47510585E+01  0.00000000E+00  1.23755293E+01  1.23755293E+01
 -2.47510585E+01  0.00000000E+00  1.23755293E+01  1.23755293E+01 -2.47510585E+01
  0.00000000E+00  1.23755293E+01  1.23755293E+01 -2.47510585E+01  0.00000000E+00
  1.23755293E+01  1.23755293E+01 -2.47510585E+01  0.00000000E+00  1.23755293E+01
  1.23755293E+01 -2.47510585E+01  0.00000000E+00  1.23755293E+01  1.23755293E+01
 -2.47510585E+01  0.00000000E+00  1.23755293E+01  1.23755293E+01 -2.47510585E+01
  0.00000000E+00  1.23755293E+01  1.23755293E+01 -2.47510585E+01  0.00000000E+00
  1.23755293E+01  1.23755293E+01 -2.47510585E+01  0.00000000E+00  1.23755293E+01
  1.23755293E+01 -2.47510585E+01  0.00000000E+00  1.23755293E+01  1.23755293E+01
 -2.47510585E+01  0.00000000E+00  1.23755293E+01  1.23755293E+01 -2.47510585E+01
  0.00000000E+00  1.23755293E+01  1.23755293E+01 -2.47510585E+01  0.00000000E+00
  1.23755293E+01  1.23755293E+01 -2.47510585E+01  0.00000000E+00  1.23755293E+01
  1.23755293E+01 -2.47510585E+01  0.00000000E+00  1.23755293E+01  1.23755293E+01
 -2.47510585E+01  0.00000000E+00  1.23755293E+01  1.23755293E+01 -2.47510585E+01
  0.00000000E+00  1.23755293E+01  1.23755293E+01 -2.47510585E+01  0.00000000E+00
  1.23755293E+01  1.23755293E+01 -2.47510585E+01  0.00000000E+00  1.23755293E+01
  1.23755293E+01 -2.47510585E+01  0.00000000E+00  1.23755293E+01  1.23755293E+01
 -2.47510585E+01  0.00000000E+00  1.23755293E+01  1.23755293E+01 -2.47510585E+01
  0.00000000E+00  1.23755293E+01  1.23755293E+01 -2.47510585E+01  0.00000000E+00
  1.23755293E+01  1.23755293E+01 -2.47510585E+01  0.00000000E+00  1.23755293E+01
  1.23755293E+01 -2.47510585E+01  0.00000000E+00  1.23755293E+01  1.23755293E+01
 -2.47510585E+01  0.00000000E+00  1.23755293E+01  1.23755293E+01 -2.47510585E+01
  0.00000000E+00  1.23755293E+01  1.23755293E+01 -2.47510585E+01  0.00000000E+00
  1.23755293E+01  1.23755293E+01 -2.47510585E+01  0.00000000E+00  1.23755293E+01
  1.23755293E+01 -2.47510585E+01  0.00000000E+00  1.23755293E+01  1.23755293E+01
 -2.47510585E+01  0.00000000E+00  1.23755293E+01  1.23755293E+01 -2.47510585E+01
  0.00000000E+00  1.23755293E+01  1.23755293E+01 -2.47510585E+01  0.00000000E+00
  1.23755293E+01  1.23755293E+01 -2.47510585E+01  0.00000000E+00  1.23755293E+01
  1.23755293E+01 -2.47510585E+01  0.00000000E+00  1.23755293E+01  1.23755293E+01
 -2.47510585E+01  0.00000000E+00  1.23755293E+01  1.23755293E+01 -2.47510585E+01
  0.00000000E+00  1.23755293E+01  1.23755293E+01 -2.47510585E+01  0.00000000E+00
  1.23755293E+01  1.23755293E+01 -2.47510585E+01  0.00000000E+00  1.23755293E+01
  1.23755293E+01 -2.47510585E+01  0.00000000E+00  1.23755293E+01  1.23755293E+01
 -2.47510585E+01  0.00000000E+00  1.23755293E+01  1.23755293E+01 -2.47510585E+01
  0.00000000E+00  1.23755293E+01  1.23755293E+01 -2.47510585E+01  0.00000000E+00
  1.23755293E+01  1.23755293E+01 -2.47510585E+01  0.00000000E+00  1.23755293E+01
  1.23755293E+01 -2.47510585E+01  0.00000000E+00  1.23755293E+01  1.23755293E+01
 -2.47510585E+01  0.00000000E+00  1.23755293E+01  1.23755293E+01 -2.47510585E+01
  0.00000000E+00  1.23755293E+01  1.23755293E+01 -2.47510585E+01  0.00000000E+00
  1.23755293E+01  1.23755293E+01 -2.47510585E+01  0.00000000E+00  1.23755293E+01
  1.23755293E+01 -2.47510585E+01  0.00000000E+00  1.23755293E+01  1.23755293E+01
 -2.47510585E+01  0.00000000E+00  1.23755293E+01  1.23755293E+01 -2.47510585E+01
  0.00000000E+00  1.23755293E+01  1.23755293E+01 -2.47510585E+01  0.00000000E+00
  1.23755293E+01  1.23755293E+01 -2.47510585E+01  0.00000000E+00  1.23755293E+01
  1.23755293E+01 -2.47510585E+01  0.00000000E+00  1.23755293E+01  1.23755293E+01
 -2.47510585E+01  0.00000000E+00  1.23755293E+01  1.23755293E+01 -2.47510585E+01
  0.00000000E+00  1.23755293E+01  1.23755293E+01 -2.47510585E+01  0.00000000E+00
  1.23755293E+01  1.23755293E+01 -2.47510585E+01  0.00000000E+00  1.23755293E+01
  1.23755293E+01 -2.47510585E+01  0.00000000E+00  1.23755293E+01  1.23755293E+01
 -2.47510585E+01  0.00000000E+00  1.23755293E+01  1.23755293E+01 -2.47510585E+01
  0.00000000E+00  1.23755293E+01  1.23755293E+01 -2.47510585E+01  0.00000000E+00
  1.23755293E+01  1.23755293E+01 -2.47510585E+01  0.00000000E+00  1.23755293E+01
  1.23755293E+01 -2.47510585E+01  0.00000000E+00  1.23755293E+01  1.23755293E+01
 -2.47510585E+01  0.00000000E+00  1.23755293E+01  1.23755293E+01 -2.47510585E+01
  0.00000000E+00  1.23755293E+01  1.23755293E+01 -2.47510585E+01  0.00000000E+00
  1.23755293E+01  1.23755293E+01 -2.47510585E+01  0.00000000E+00  1.23755293E+01
  1.23755293E+01 -2.47510585E+01  0.00000000E+00  1.23755293E+01  1.23755293E+01
 -2.47510585E+01  0.00000000E+00  1.23755293E+01  1.23755293E+01 -2.47510585E+01
  0.00000000E+00  1.23755293E+01  1.23755293E+01 -2.47510585E+01  0.00000000E+00
  1.23755293E+01  1.23755293E+01 -2.47510585E+01  0.00000000E+00  1.23755293E+01
  1.23755293E+01 -2.47510585E+01  0.00000000E+00  1.23755293E+01  1.23755293E+01
 -2.47510585E+01  0.00000000E+00  1.23755293E+01  1.23755293E+01 -2.47510585E+01
  0.00000000E+00  1.23755293E+01  1.23755293E+01 -2.47510585E+01  0.00000000E+00
  1.23755293E+01  1.23755293E+01 -2.47510585E+01  0.00000000E+00  1.23755293E+01
  1.23755293E+01 -2.47510585E+01  0.00000000E+00  1.23755293E+01  1.23755293E+01
 -2.47510585E+01  0.00000000E+00  1.23755293E+01  1.23755293E+01 -2.47510585E+01
  0.00000000E+00  1.23755293E+01  1.23755293E+01 -2.47510585E+01  0.00000000E+00
  1.23755293E+01  1.23755293E+01 -2.47510585E+01  0.00000000E+00  1.23755293E+01
  1.23755293E+01 -2.47510585E+01  0.00000000E+00  1.23755293E+01  1.23755293E+01
 -2.47510585E+01  0.00000000E+00  1.23755293E+01  1.23755293E+01 -2.47510585E+01
  0.00000000E+00  1.23755293E+01  1.23755293E+01 -2.47510585E+01  0.00000000E+00
  1.23755293E+01  1.23755293E+01 -2.47510585E+01  0.00000000E+00  1.23755293E+01
  1.23755293E+01 -2.47510585E+01  0.00000000E+00  1.23755293E+01  1.23755293E+01
 -2.47510585E+01  0.00000000E+00  1.23755293E+01  1.23755293E+01 -2.47510585E+01
  0.00000000E+00  1.23755293E+01  1.23755293E+01 -2.47510585E+01  0.00000000E+00
  1.23755293E+01  1.23755293E+01 -2.47510585E+01  0.00000000E+00  1.23755293E+01
  1.23755293E+01 -2.47510585E+01  0.00000000E+00  1.23755293E+01  1.23755293E+01
 -2.47510585E+01  0.00000000E+00  1.23755293E+01  1.23755293E+01 -2.47510585E+01
  0.00000000E+00  1.23755293E+01  1.23755293E+01 -2.47510585E+01  0.00000000E+00
  1.23755293E+01  1.23755293E+01 -2.47510585E+01  0.00000000E+00  1.23755293E+01
  1.23755293E+01 -2.47510585E+01  0.00000000E+00  1.23755293E+01  1.23755293E+01
 -2.47510585E+01  0.00000000E+00  1.23755293E+01  1.23755293E+01 -2.47510585E+01
  0.00000000E+00  1.23755293E+01  1.23755293E+01 -2.47510585E+01  0.00000000E+00
  1.23755293E+01  1.23755293E+01 -2.47510585E+01  0.00000000E+00  1.23755293E+01
  1.23755293E+01 -2.47510585E+01  0.00000000E+00  1.23755293E+01  1.23755293E+01
 -2.47510585E+01  0.00000000E+00  1.23755293E+01  1.23755293E+01 -2.47510585E+01
  0.00000000E+00  1.23755293E+01  1.23755293E+01 -2.47510585E+01  0.00000000E+00
  1.23755293E+01  1.23755293E+01 -2.47510585E+01  0.00000000E+00  1.23755293E+01
  1.23755293E+01 -2.47510585E+01  0.00000000E+00  1.23755293E+01  1.23755293E+01
 -2.47510585E+01  0.00000000E+00  1.23755293E+01  1.23755293E+01 -2.47510585E+01
  0.00000000E+00  1.23755293E+01  1.23755293E+01 -2.47510585E+01  0.00000000E+00
  1.23755293E+01  1.23755293E+01 -2.47510585E+01  0.00000000E+00  1.23755293E+01
  1.23755293E+01 -2.47510585E+01  0.00000000E+00  1.23755293E+01  1.23755293E+01
 -2.47510585E+01  0.00000000E+00  1.23755293E+01  1.23755293E+01 -2.47510585E+01
  0.00000000E+00  1.23755293E+01  1.23755293E+01 -2.47510585E+01  0.00000000E+00
  1.23755293E+01  1.23755293E+01 -2.47510585E+01  0.00000000E+00  1.23755293E+01
  1.23755293E+01 -2.47510585E+01  0.00000000E+00  1.23755293E+01  1.23755293E+01
 -2.47510585E+01  0.00000000E+00  1.23755293E+01  1.23755293E+01 -2.47510585E+01
  0.00000000E+00  1.23755293E+01  1.23755293E+01 -2.47510585E+01  0.00000000E+00
  1.23755293E+01  1.23755293E+01 -2.47510585E+01  0.00000000E+00  1.23755293E+01
  1.23755293E+01 -2.47510585E+01  0.00000000E+00  1.23755293E+01  1.23755293E+01
 -2.47510585E+01  0.00000000E+00  1.23755293E+01  1.23755293E+01 -2.47510585E+01
  0.00000000E+00  1.23755293E+01  1.23755293E+01 -2.47510585E+01  0.00000000E+00
  1.23755293E+01  1.23755293E+01 -2.47510585E+01  0.00000000E+00  1.23755293E+01
  1.23755293E+01 -2.47510585E+01  0.00000000E+00  1.23755293E+01  1.23755293E+01
 -2.47510585E+01  0.00000000E+00  1.23755293E+01  1.23755293E+01 -2.47510585E+01
  0.00000000E+00  1.23755293E+01  1.23755293E+01 -2.47510585E+01  0.00000000E+00
  1.23755293E+01  1.23755293E+01 -2.47510585E+01  0.00000000E+00  1.23755293E+01
  1.23755293E+01 -2.47510585E+01  0.00000000E+00  1.23755293E+01  1.23755293E+01
 -2.47510585E+01  0.00000000E+00  1.23755293E+01  1.23755293E+01 -2.47510585E+01
  0.00000000E+00  1.23755293E+01  1.23755293E+01 -2.47510585E+01  0.00000000E+00
  1.23755293E+01  1.23755293E+01 -2.47510585E+01  0.00000000E+00  1.23755293E+01
  1.23755293E+01 -2.47510585E+01  0.00000000E+00  1.23755293E+01  1.23755293E+01
 -2.47510585E+01  0.00000000E+00  1.23755293E+01  1.23755293E+01 -2.47510585E+01
  0.00000000E+00  1.23755293E+01  1.23755293E+01 -2.47510585E+01  0.00000000E+00
  1.23755293E+01  1.23755293E+01 -2.47510585E+01  0.00000000E+00  1.23755293E+01
  1.23755293E+01 -2.47510585E+01  0.00000000E+00  1.23755293E+01  1.23755293E+01
 -2.47510585E+01  0.00000000E+00  1.23755293E+01  1.23755293E+01 -2.47510585E+01
  0.00000000E+00  1.23755293E+01  1.23755293E+01 -2.47510585E+01  0.00000000E+00
  1.23755293E+01  1.23755293E+01 -2.47510585E+01  0.00000000E+00  1.23755293E+01
  1.23755293E+01 -2.47510585E+01  0.00000000E+00  1.23755293E+01  1.23755293E+01
 -2.47510585E+01  0.00000000E+00  1.23755293E+01  1.23755293E+01 -2.47510585E+01
  0.00000000E+00  1.23755293E+01  1.23755293E+01 -2.47510585E+01  0.00000000E+00
  1.23755293E+01  1.23755293E+01 -2.47510585E+01  0.00000000E+00  1.23755293E+01
  1.23755293E+01 -2.47510585E+01  0.00000000E+00  1.23755293E+01  1.23755293E+01
 -2.47510585E+01  0.00000000E+00  1.23755293E+01  1.23755293E+01 -2.47510585E+01
  0.00000000E+00  1.23755293E+01  1.23755293E+01 -2.47510585E+01  0.00000000E+00
  1.23755293E+01  1.23755293E+01 -2.47510585E+01  0.00000000E+00  1.23755293E+01
  1.23755293E+01 -2.47510585E+01  0.00000000E+00  1.23755293E+01  1.23755293E+01
 -2.47510585E+01  0.00000000E+00  1.23755293E+01  1.23755293E+01 -2.47510585E+01
  0.00000000E+00  1.23755293E+01  1.23755293E+01 -2.47510585E+01  0.00000000E+00
  1.23755293E+01  1.23755293E+01 -2.47510585E+01  0.00000000E+00  1.23755293E+01
  1.23755293E+01 -2.47510585E+01  0.00000000E+00  1.23755293E+01  1.23755293E+01
 -2.47510585E+01  0.00000000E+00  1.23755293E+01  1.23755293E+01 -2.47510585E+01
  0.00000000E+00  1.23755293E+01  1.23755293E+01 -2.47510585E+01  0.00000000E+00
  1.23755293E+01  1.23755293E+01 -2.47510585E+01  0.00000000E+00  1.23755293E+01
  1.23755293E+01 -2.47510585E+01  0.00000000E+00  1.23755293E+01  1.23755293E+01
 -2.47510585E+01  0.00000000E+00  1.23755293E+01  1.23755293E+01 -2.47510585E+01
  0.00000000E+00  1.23755293E+01  1.23755293E+01 -2.47510585E+01  0.00000000E+00
  1.23755293E+01  1.23755293E+01 -2.47510585E+01  0.00000000E+00  1.23755293E+01
  1.23755293E+01 -2.47510585E+01  0.00000000E+00  1.23755293E+01  1.23755293E+01
 -2.47510585E+01  0.00000000E+00  1.23755293E+01  1.23755293E+01 -2.47510585E+01
  0.00000000E+00  1.23755293E+01  1.23755293E+01 -2.47510585E+01  0.00000000E+00
  1.23755293E+01  1.23755293E+01 -2.47510585E+01  0.00000000E+00  1.23755293E+01
  1.23755293E+01 -2.47510585E+01  0.00000000E+00  1.23755293E+01  1.23755293E+01
 -2.47510585E+01  0.00000000E+00  1.23755293E+01  1.23755293E+01 -2.47510585E+01
  0.00000000E+00  1.23755293E+01  1.23755293E+01 -2.47510585E+01  0.00000000E+00
  1.23755293E+01  1.23755293E+01 -2.47510585E+01  0.00000000E+00  1.23755293E+01
  1.23755293E+01 -2.47510585E+01  0.00000000E+00  1.23755293E+01  1.23755293E+01
 -2.47510585E+01  0.00000000E+00  1.23755293E+01  1.23755293E+01 -2.47510585E+01
  0.00000000E+00  1.23755293E+01  1.23755293E+01 -2.47510585E+01  0.00000000E+00
  1.23755293E+01  1.23755293E+01 -2.47510585E+01  0.00000000E+00  1.23755293E+01
  1.23755293E+01 -2.47510585E+01  0.00000000E+00  1.23755293E+01  1.23755293E+01
 -2.47510585E+01  0.00000000E+00  1.23755293E+01  1.23755293E+01 -2.47510585E+01
  0.00000000E+00  1.23755293E+01  1.23755293E+01 -2.47510585E+01  0.00000000E+00
  1.23755293E+01  1.23755293E+01 -2.47510585E+01  0.00000000E+00  1.23755293E+01
  1.23755293E+01 -2.47510585E+01  0.00000000E+00  1.23755293E+01  1.23755293E+01
 -2.47510585E+01  0.00000000E+00  1.23755293E+01  1.23755293E+01 -2.47510585E+01
  0.00000000E+00  1.23755293E+01  1.23755293E+01 -2.47510585E+01  0.00000000E+00
  1.23755293E+01  1.23755293E+01 -2.47510585E+01  0.00000000E+00  1.23755293E+01
  1.23755293E+01 -2.47510585E+01  0.00000000E+00  1.23755293E+01  1.23755293E+01
 -2.47510585E+01  0.00000000E+00  1.23755293E+01  1.23755293E+01 -2.47510585E+01
  0.00000000E+00  1.23755293E+01  1.23755293E+01 -2.47510585E+01  0.00000000E+00
  1.23755293E+01  1.23755293E+01 -2.47510585E+01  0.00000000E+00  1.23755293E+01
  1.23755293E+01 -2.47510585E+01  0.00000000E+00  1.23755293E+01  1.23755293E+01
 -2.47510585E+01  0.00000000E+00  1.23755293E+01  1.23755293E+01 -2.47510585E+01
  0.00000000E+00  1.23755293E+01  1.23755293E+01 -2.47510585E+01  0.00000000E+00
  1.23755293E+01  1.23755293E+01 -2.47510585E+01  0.00000000E+00  1.23755293E+01
  1.23755293E+01 -2.47510585E+01  0.00000000E+00  1.23755293E+01  1.23755293E+01
 -2.47510585E+01  0.00000000E+00  1.23755293E+01  1.23755293E+01 -2.47510585E+01
  0.00000000E+00  1.23755293E+01  1.23755293E+01 -2.47510585E+01  0.00000000E+00
  1.23755293E+01  1.23755293E+01 -2.47510585E+01  0.00000000E+00  1.23755293E+01
  1.23755293E+01 -2.47510585E+01  0.00000000E+00  1.23755293E+01  1.23755293E+01
 -2.47510585E+01  0.00000000E+00  1.23755293E+01  1.23755293E+01 -2.47510585E+01
  0.00000000E+00  1.23755293E+01  1.23755293E+01 -2.47510585E+01  0.00000000E+00
  1.23755293E+01  1.23755293E+01 -2.47510585E+01  0.00000000E+00  1.23755293E+01
  1.23755293E+01 -2.47510585E+01  0.00000000E+00  1.23755293E+01  1.23755293E+01
 -2.47510585E+01  0.00000000E+00  1.23755293E+01  1.23755293E+01 -2.47510585E+01
  0.00000000E+00  1.23755293E+01  1.23755293E+01 -2.47510585E+01  0.00000000E+00
  1.23755293E+01  1.23755293E+01 -2.47510585E+01  0.00000000E+00  1.23755293E+01
  1.23755293E+01 -2.47510585E+01  0.00000000E+00  1.23755293E+01  1.23755293E+01
 -2.47510585E+01  0.00000000E+00  1.23755293E+01  1.23755293E+01 -2.47510585E+01
  0.00000000E+00  1.23755293E+01  1.23755293E+01 -2.47510585E+01  0.00000000E+00
  1.23755293E+01  1.23755293E+01 -2.47510585E+01  0.00000000E+00  1.23755293E+01
  1.23755293E+01 -2.47510585E+01  0.00000000E+00  1.23755293E+01  1.23755293E+01
 -2.47510585E+01  0.00000000E+00  1.23755293E+01  1.23755293E+01 -2.47510585E+01
  0.00000000E+00  1.23755293E+01  1.23755293E+01 -2.47510585E+01  0.00000000E+00
  1.23755293E+01  1.23755293E+01 -2.47510585E+01  0.00000000E+00  1.23755293E+01
  1.23755293E+01 -2.47510585E+01  0.00000000E+00  1.23755293E+01  1.23755293E+01
 -2.47510585E+01  0.00000000E+00  1.23755293E+01  1.23755293E+01 -2.47510585E+01
  0.00000000E+00  1.23755293E+01  1.23755293E+01 -2.47510585E+01  0.00000000E+00
  1.23755293E+01  1.23755293E+01 -2.47510585E+01  0.00000000E+00  1.23755293E+01
  1.23755293E+01 -2.47510585E+01  0.00000000E+00  1.23755293E+01  1.23755293E+01
 -2.47510585E+01  0.00000000E+00  1.23755293E+01  1.23755293E+01 -2.47510585E+01
  0.00000000E+00  1.23755293E+01  1.23755293E+01 -2.47510585E+01  0.00000000E+00
  1.23755293E+01  1.23755293E+01 -2.47510585E+01  0.00000000E+00  1.23755293E+01
  1.23755293E+01 -2.47510585E+01  0.00000000E+00  1.23755293E+01  1.23755293E+01
 -2.47510585E+01  0.00000000E+00  1.23755293E+01  1.23755293E+01 -2.47510585E+01
  0.00000000E+00  1.23755293E+01  1.23755293E+01 -2.47510585E+01  0.00000000E+00
  1.23755293E+01  1.23755293E+01 -2.47510585E+01  0.00000000E+00  1.23755293E+01
  1.23755293E+01 -2.47510585E+01  0.00000000E+00  1.23755293E+01  1.23755293E+01
 -2.47510585E+01  0.00000000E+00  1.23755293E+01  1.23755293E+01 -2.47510585E+01
  0.00000000E+00  1.23755293E+01  1.23755293E+01 -2.47510585E+01  0.00000000E+00
  1.23755293E+01  1.23755293E+01 -2.47510585E+01  0.00000000E+00  1.23755293E+01
  1.23755293E+01 -2.47510585E+01  0.00000000E+00  1.23755293E+01  1.23755293E+01
 -2.47510585E+01  0.00000000E+00  1.23755293E+01  1.23755293E+01 -2.47510585E+01
  0.00000000E+00  1.23755293E+01  1.23755293E+01 -2.47510585E+01  0.00000000E+00
  1.23755293E+01  1.23755293E+01 -2.47510585E+01  0.00000000E+00  1.23755293E+01
  1.23755293E+01 -2.47510585E+01  0.00000000E+00  1.23755293E+01  1.23755293E+01
 -2.47510585E+01  0.00000000E+00  1.23755293E+01  1.23755293E+01 -2.47510585E+01
  0.00000000E+00  1.23755293E+01  1.23755293E+01 -2.47510585E+01  0.00000000E+00
  1.23755293E+01  1.23755293E+01 -2.47510585E+01  0.00000000E+00  1.23755293E+01
  1.23755293E+01 -2.47510585E+01  0.00000000E+00  1.23755293E+01  1.23755293E+01
 -2.47510585E+01  0.00000000E+00  1.23755293E+01  1.23755293E+01 -2.47510585E+01
  0.00000000E+00  1.23755293E+01  1.23755293E+01 -2.47510585E+01  0.00000000E+00
  1.23755293E+01  1.23755293E+01 -2.47510585E+01  0.00000000E+00  1.23755293E+01
  1.23755293E+01 -2.47510585E+01  0.00000000E+00  1.23755293E+01  1.23755293E+01
 -2.47510585E+01  0.00000000E+00  1.23755293E+01  1.23755293E+01 -2.47510585E+01
  0.00000000E+00  1.23755293E+01  1.23755293E+01 -2.47510585E+01  0.00000000E+00
  1.23755293E+01  1.23755293E+01 -2.47510585E+01  0.00000000E+00  1.23755293E+01
  1.23755293E+01 -2.47510585E+01  0.00000000E+00  1.23755293E+01  1.23755293E+01
 -2.47510585E+01  0.00000000E+00  1.23755293E+01  1.23755293E+01 -2.47510585E+01
  0.00000000E+00  1.23755293E+01  1.23755293E+01 -2.47510585E+01  0.00000000E+00
  1.23755293E+01  1.23755293E+01 -2.47510585E+01  0.00000000E+00  1.23755293E+01
  1.23755293E+01 -2.47510585E+01  0.00000000E+00  1.23755293E+01  1.23755293E+01
 -2.47510585E+01  0.00000000E+00  1.23755293E+01  1.23755293E+01 -2.47510585E+01
  0.00000000E+00  1.23755293E+01  1.23755293E+01 -2.47510585E+01  0.00000000E+00
  1.23755293E+01  1.23755293E+01 -2.47510585E+01  0.00000000E+00  1.23755293E+01
  1.23755293E+01 -2.47510585E+01  0.00000000E+00  1.23755293E+01  1.23755293E+01
 -2.47510585E+01  0.00000000E+00  1.23755293E+01  1.23755293E+01 -2.47510585E+01
  0.00000000E+00  1.23755293E+01  1.23755293E+01 -2.47510585E+01  0.00000000E+00
  1.23755293E+01  1.23755293E+01 -2.47510585E+01  0.00000000E+00  1.23755293E+01
  1.23755293E+01 -2.47510585E+01  0.00000000E+00  1.23755293E+01  1.23755293E+01
 -2.47510585E+01  0.00000000E+00  1.23755293E+01  1.23755293E+01 -2.47510585E+01
  0.00000000E+00  1.23755293E+01  1.23755293E+01 -2.47510585E+01  0.00000000E+00
  1.23755293E+01  1.23755293E+01 -2.47510585E+01  0.00000000E+00  1.23755293E+01
  1.23755293E+01 -2.47510585E+01  0.00000000E+00  1.23755293E+01  1.23755293E+01
 -2.47510585E+01  0.00000000E+00  1.23755293E+01  1.23755293E+01 -2.47510585E+01
  0.00000000E+00  1.23755293E+01  1.23755293E+01 -2.47510585E+01  0.00000000E+00
  1.23755293E+01  1.23755293E+01 -2.47510585E+01  0.00000000E+00  1.23755293E+01
  1.23755293E+01 -2.47510585E+01  0.00000000E+00  1.23755293E+01  1.23755293E+01
 -2.47510585E+01  0.00000000E+00  1.23755293E+01  1.23755293E+01 -2.47510585E+01
  0.00000000E+00  1.23755293E+01  1.23755293E+01 -2.47510585E+01  0.00000000E+00
  1.23755293E+01  1.23755293E+01 -2.47510585E+01  0.00000000E+00  1.23755293E+01
  1.23755293E+01 -2.47510585E+01  0.00000000E+00  1.23755293E+01  1.23755293E+01
 -2.47510585E+01  0.00000000E+00  1.23755293E+01  1.23755293E+01 -2.47510585E+01
  0.00000000E+00  1.23755293E+01  1.23755293E+01 -2.47510585E+01  0.00000000E+00
  1.23755293E+01  1.23755293E+01 -2.47510585E+01  0.00000000E+00  1.23755293E+01
  1.23755293E+01 -2.47510585E+01  0.00000000E+00  1.23755293E+01  1.23755293E+01
 -2.47510585E+01  0.00000000E+00  1.23755293E+01  1.23755293E+01 -2.47510585E+01
  0.00000000E+00  1.23755293E+01  1.23755293E+01 -2.47510585E+01  0.00000000E+00
  1.23755293E+01  1.23755293E+01 -2.47510585E+01  0.00000000E+00  1.23755293E+01
  1.23755293E+01 -2.47510585E+01  0.00000000E+00  1.23755293E+01  1.23755293E+01
 -2.47510585E+01  0.00000000E+00  1.23755293E+01  1.23755293E+01 -2.47510585E+01
  0.00000000E+00  1.23755293E+01  1.23755293E+01 -2.47510585E+01  0.00000000E+00
  1.23755293E+01  1.23755293E+01 -2.47510585E+01  0.00000000E+00  1.23755293E+01
  1.23755293E+01 -2.47510585E+01  0.00000000E+00  1.23755293E+01  1.23755293E+01
 -2.47510585E+01  0.00000000E+00  1.23755293E+01  1.23755293E+01 -2.47510585E+01
  0.00000000E+00  1.23755293E+01  1.23755293E+01 -2.47510585E+01  0.00000000E+00
  1.23755293E+01  1.23755293E+01 -2.47510585E+01  0.00000000E+00  1.23755293E+01
  1.23755293E+01 -2.47510585E+01  0.00000000E+00  1.23755293E+01  1.23755293E+01
 -2.47510585E+01  0.00000000E+00  1.23755293E+01  1.23755293E+01 -2.47510585E+01
  0.00000000E+00  1.23755293E+01  1.23755293E+01 -2.47510585E+01  0.00000000E+00
  1.23755293E+01  1.23755293E+01 -2.47510585E+01  0.00000000E+00  1.23755293E+01
  1.23755293E+01 -2.47510585E+01  0.00000000E+00  1.23755293E+01  1.23755293E+01
 -2.47510585E+01  0.00000000E+00  1.23755293E+01  1.23755293E+01 -2.47510585E+01
  0.00000000E+00  1.23755293E+01  1.23755293E+01 -2.47510585E+01  0.00000000E+00
  1.23755293E+01  1.23755293E+01 -2.47510585E+01  0.00000000E+00  1.23755293E+01
  1.23755293E+01 -2.47510585E+01  0.00000000E+00  1.23755293E+01  1.23755293E+01
 -2.47510585E+01  0.00000000E+00  1.23755293E+01  1.23755293E+01 -2.47510585E+01
  0.00000000E+00  1.23755293E+01  1.23755293E+01 -2.47510585E+01  0.00000000E+00
  1.23755293E+01  1.23755293E+01 -2.47510585E+01  0.00000000E+00  1.23755293E+01
  1.23755293E+01 -2.47510585E+01  0.00000000E+00  1.23755293E+01  1.23755293E+01
 -2.47510585E+01  0.00000000E+00  1.23755293E+01  1.23755293E+01 -2.47510585E+01
  0.00000000E+00  1.23755293E+01  1.23755293E+01 -2.47510585E+01  0.00000000E+00
  1.23755293E+01  1.23755293E+01 -2.47510585E+01  0.00000000E+00  1.23755293E+01
  1.23755293E+01 -2.47510585E+01  0.00000000E+00  1.23755293E+01  1.23755293E+01
 -2.47510585E+01  0.00000000E+00  1.23755293E+01  1.23755293E+01 -2.47510585E+01
  0.00000000E+00  1.23755293E+01  1.23755293E+01 -2.47510585E+01  0.00000000E+00
  1.23755293E+01  1.23755293E+01 -2.47510585E+01  0.00000000E+00  1.23755293E+01
  1.23755293E+01 -2.47510585E+01  0.00000000E+00  1.23755293E+01  1.23755293E+01
 -2.47510585E+01  0.00000000E+00  1.23755293E+01  1.23755293E+01 -2.47510585E+01
  0.00000000E+00  1.23755293E+01  1.23755293E+01 -2.47510585E+01  0.00000000E+00
  1.23755293E+01  1.23755293E+01 -2.47510585E+01  0.00000000E+00  1.23755293E+01
  1.23755293E+01 -2.47510585E+01  0.00000000E+00  1.23755293E+01  1.23755293E+01
 -2.47510585E+01  0.00000000E+00  1.23755293E+01  1.23755293E+01 -2.47510585E+01
  0.00000000E+00  1.23755293E+01  1.23755293E+01 -2.47510585E+01  0.00000000E+00
  1.23755293E+01  1.23755293E+01 -2.47510585E+01  0.00000000E+00  1.23755293E+01
  1.23755293E+01 -2.47510585E+01  0.00000000E+00  1.23755293E+01  1.23755293E+01
 -2.47510585E+01  0.00000000E+00  1.23755293E+01  1.23755293E+01 -2.47510585E+01
  0.00000000E+00  1.23755293E+01  1.23755293E+01 -2.47510585E+01  0.00000000E+00
  1.23755293E+01  1.23755293E+01 -2.47510585E+01  0.00000000E+00  1.23755293E+01
  1.23755293E+01 -2.47510585E+01  0.00000000E+00  1.23755293E+01  1.23755293E+01
 -2.47510585E+01  0.00000000E+00  1.23755293E+01  1.23755293E+01 -2.47510585E+01
  0.00000000E+00  1.23755293E+01  1.23755293E+01 -2.47510585E+01  0.00000000E+00
  1.23755293E+01  1.23755293E+01 -2.47510585E+01  0.00000000E+00  1.23755293E+01
  1.23755293E+01 -2.47510585E+01  0.00000000E+00  1.23755293E+01  1.23755293E+01
 -2.47510585E+01  0.00000000E+00  1.23755293E+01  1.23755293E+01 -2.47510585E+01
  0.00000000E+00  1.23755293E+01  1.23755293E+01 -2.47510585E+01  0.00000000E+00
  1.23755293E+01  1.23755293E+01 -2.47510585E+01  0.00000000E+00  1.23755293E+01
  1.23755293E+01 -2.47510585E+01  0.00000000E+00  1.23755293E+01  1.23755293E+01
 -2.47510585E+01  0.00000000E+00  1.23755293E+01  1.23755293E+01 -2.47510585E+01
  0.00000000E+00  1.23755293E+01  1.23755293E+01 -2.47510585E+01  0.00000000E+00
  1.23755293E+01  1.23755293E+01 -2.47510585E+01  0.00000000E+00  1.23755293E+01
  1.23755293E+01 -2.47510585E+01  0.00000000E+00  1.23755293E+01  1.23755293E+01
 -2.47510585E+01  0.00000000E+00  1.23755293E+01  1.23755293E+01 -2.47510585E+01
  0.00000000E+00  1.23755293E+01  1.23755293E+01 -2.47510585E+01  0.00000000E+00
  1.23755293E+01  1.23755293E+01 -2.47510585E+01  0.00000000E+00  1.23755293E+01
  1.23755293E+01 -2.47510585E+01  0.00000000E+00  1.23755293E+01  1.23755293E+01
 -2.47510585E+01  0.00000000E+00  1.23755293E+01  1.23755293E+01 -2.47510585E+01
  0.00000000E+00  1.23755293E+01  1.23755293E+01 -2.47510585E+01  0.00000000E+00
  1.23755293E+01  1.23755293E+01 -2.47510585E+01  0.00000000E+00  1.23755293E+01
  1.23755293E+01 -2.47510585E+01  0.00000000E+00  1.23755293E+01  1.23755293E+01
 -2.47510585E+01  0.00000000E+00  1.23755293E+01  1.23755293E+01 -2.47510585E+01
  0.00000000E+00  1.23755293E+01  1.23755293E+01 -2.47510585E+01  0.00000000E+00
  1.23755293E+01  1.23755293E+01 -2.47510585E+01  0.00000000E+00  1.23755293E+01
  1.23755293E+01 -2.47510585E+01  0.00000000E+00  1.23755293E+01  1.23755293E+01
 -2.47510585E+01  0.00000000E+00  1.23755293E+01  1.23755293E+01 -2.47510585E+01
  0.00000000E+00  1.23755293E+01  1.23755293E+01 -2.47510585E+01  0.00000000E+00
  1.23755293E+01  1.23755293E+01 -2.47510585E+01  0.00000000E+00  1.23755293E+01
  1.23755293E+01 -2.47510585E+01  0.00000000E+00  1.23755293E+01  1.23755293E+01
 -2.47510585E+01  0.00000000E+00  1.23755293E+01  1.23755293E+01 -2.47510585E+01
  0.00000000E+00  1.23755293E+01  1.23755293E+01 -2.47510585E+01  0.00000000E+00
  1.23755293E+01  1.23755293E+01 -2.47510585E+01  0.00000000E+00  1.23755293E+01
  1.23755293E+01 -2.47510585E+01  0.00000000E+00  1.23755293E+01  1.23755293E+01
 -2.47510585E+01  0.00000000E+00  1.23755293E+01  1.23755293E+01 -2.47510585E+01
  0.00000000E+00  1.23755293E+01  1.23755293E+01 -2.47510585E+01  0.00000000E+00
  1.23755293E+01  1.23755293E+01 -2.47510585E+01  0.00000000E+00  1.23755293E+01
  1.23755293E+01 -2.47510585E+01  0.00000000E+00  1.23755293E+01  1.23755293E+01
 -2.47510585E+01  0.00000000E+00  1.23755293E+01  1.23755293E+01 -2.47510585E+01
  0.00000000E+00  1.23755293E+01  1.23755293E+01 -2.47510585E+01  0.00000000E+00
  1.23755293E+01  1.23755293E+01 -2.47510585E+01  0.00000000E+00  1.23755293E+01
  1.23755293E+01 -2.47510585E+01  0.00000000E+00  1.23755293E+01  1.23755293E+01
 -2.47510585E+01  0.00000000E+00  1.23755293E+01  1.23755293E+01 -2.47510585E+01
  0.00000000E+00  1.23755293E+01  1.23755293E+01 -2.47510585E+01  0.00000000E+00
  1.23755293E+01  1.23755293E+01 -2.47510585E+01  0.00000000E+00  1.23755293E+01
  1.23755293E+01 -2.47510585E+01  0.00000000E+00  1.23755293E+01  1.23755293E+01
 -2.47510585E+01  0.00000000E+00  1.23755293E+01  1.23755293E+01 -2.47510585E+01
  0.00000000E+00  1.23755293E+01  1.23755293E+01 -2.47510585E+01  0.00000000E+00
  1.23755293E+01  1.23755293E+01 -2.47510585E+01  0.00000000E+00  1.23755293E+01
  1.23755293E+01 -2.47510585E+01  0.00000000E+00  1.23755293E+01  1.23755293E+01
 -2.47510585E+01  0.00000000E+00  1.23755293E+01  1.23755293E+01 -2.47510585E+01
  0.00000000E+00  1.23755293E+01  1.23755293E+01 -2.47510585E+01  0.00000000E+00
  1.23755293E+01  1.23755293E+01 -2.47510585E+01  0.00000000E+00  1.23755293E+01
  1.23755293E+01 -2.47510585E+01  0.00000000E+00  1.23755293E+01  1.23755293E+01
 -2.47510585E+01  0.00000000E+00  1.23755293E+01  1.23755293E+01 -2.47510585E+01
  0.00000000E+00  1.23755293E+01  1.23755293E+01 -2.47510585E+01  0.00000000E+00
  1.23755293E+01  1.23755293E+01 -2.47510585E+01  0.00000000E+00  1.23755293E+01
  1.23755293E+01 -2.47510585E+01  0.00000000E+00  1.23755293E+01  1.23755293E+01
 -2.47510585E+01  0.00000000E+00  1.23755293E+01  1.23755293E+01 -2.47510585E+01
  0.00000000E+00  1.23755293E+01  1.23755293E+01 -2.47510585E+01  0.00000000E+00
  1.23755293E+01  1.23755293E+01 -2.47510585E+01  0.00000000E+00  1.23755293E+01
  1.23755293E+01 -2.47510585E+01  0.00000000E+00  1.23755293E+01  1.23755293E+01
 -2.47510585E+01  0.00000000E+00  1.23755293E+01  1.23755293E+01 -2.47510585E+01
  0.00000000E+00  1.23755293E+01  1.23755293E+01 -2.47510585E+01  0.00000000E+00
  1.23755293E+01  1.23755293E+01 -2.47510585E+01  0.00000000E+00  1.23755293E+01
  1.23755293E+01 -2.47510585E+01  0.00000000E+00  1.23755293E+01  1.23755293E+01
 -2.47510585E+01  0.00000000E+00  1.23755293E+01  1.23755293E+01 -2.47510585E+01
  0.00000000E+00  1.23755293E+01  1.23755293E+01 -2.47510585E+01  0.00000000E+00
  1.23755293E+01  1.23755293E+01 -2.47510585E+01  0.00000000E+00  1.23755293E+01
  1.23755293E+01 -2.47510585E+01  0.00000000E+00  1.23755293E+01  1.23755293E+01
 -2.47510585E+01  0.00000000E+00  1.23755293E+01  1.23755293E+01 -2.47510585E+01
  0.00000000E+00  1.23755293E+01  1.23755293E+01 -2.47510585E+01  0.00000000E+00
  1.23755293E+01  1.23755293E+01 -2.47510585E+01  0.00000000E+00  1.23755293E+01
  1.23755293E+01 -2.47510585E+01  0.00000000E+00  1.23755293E+01  1.23755293E+01
 -2.47510585E+01  0.00000000E+00  1.23755293E+01  1.23755293E+01 -2.47510585E+01
  0.00000000E+00  1.23755293E+01  1.23755293E+01 -2.47510585E+01  0.00000000E+00
  1.23755293E+01  1.23755293E+01 -2.47510585E+01  0.00000000E+00  1.23755293E+01
  1.23755293E+01 -2.47510585E+01  0.00000000E+00  1.23755293E+01  1.23755293E+01
 -2.47510585E+01  0.00000000E+00  1.23755293E+01  1.23755293E+01 -2.47510585E+01
  0.00000000E+00  1.23755293E+01  1.23755293E+01 -2.47510585E+01  0.00000000E+00
  1.23755293E+01  1.23755293E+01 -2.47510585E+01  0.00000000E+00  1.23755293E+01
  1.23755293E+01 -2.47510585E+01  0.00000000E+00  1.23755293E+01  1.23755293E+01
 -2.47510585E+01  0.00000000E+00  1.23755293E+01  1.23755293E+01 -2.47510585E+01
  0.00000000E+00  1.23755293E+01  1.23755293E+01 -2.47510585E+01  0.00000000E+00
  1.23755293E+01  1.23755293E+01 -2.47510585E+01  0.00000000E+00  1.23755293E+01
  1.23755293E+01 -2.47510585E+01  0.00000000E+00  1.23755293E+01  1.23755293E+01
 -2.47510585E+01  0.00000000E+00  1.23755293E+01  1.23755293E+01 -2.47510585E+01
  0.00000000E+00  1.23755293E+01  1.23755293E+01 -2.47510585E+01  0.00000000E+00
  1.23755293E+01  1.23755293E+01 -2.47510585E+01  0.00000000E+00  1.23755293E+01
  1.23755293E+01 -2.47510585E+01  0.00000000E+00  1.23755293E+01  1.23755293E+01
 -2.47510585E+01  0.00000000E+00  1.23755293E+01  1.23755293E+01 -2.47510585E+01
  0.00000000E+00  1.23755293E+01  1.23755293E+01 -2.47510585E+01  0.00000000E+00
  1.23755293E+01  1.23755293E+01 -2.47510585E+01  0.00000000E+00  1.23755293E+01
  1.23755293E+01 -2.47510585E+01  0.00000000E+00  1.23755293E+01  1.23755293E+01
 -2.47510585E+01  0.00000000E+00  1.23755293E+01  1.23755293E+01 -2.47510585E+01
  0.00000000E+00  1.23755293E+01  1.23755293E+01 -2.47510585E+01  0.00000000E+00
  1.23755293E+01  1.23755293E+01 -2.47510585E+01  0.00000000E+00  1.23755293E+01
  1.23755293E+01 -2.47510585E+01  0.00000000E+00  1.23755293E+01  1.23755293E+01
 -2.47510585E+01  0.00000000E+00  1.23755293E+01  1.23755293E+01 -2.47510585E+01
  0.00000000E+00  1.23755293E+01  1.23755293E+01 -2.47510585E+01  0.00000000E+00
  1.23755293E+01  1.23755293E+01 -2.47510585E+01  0.00000000E+00  1.23755293E+01
  1.23755293E+01 -2.47510585E+01  0.00000000E+00  1.23755293E+01  1.23755293E+01
 -2.47510585E+01  0.00000000E+00  1.23755293E+01  1.23755293E+01 -2.47510585E+01
  0.00000000E+00  1.23755293E+01  1.23755293E+01 -2.47510585E+01  0.00000000E+00
  1.23755293E+01  1.23755293E+01 -2.47510585E+01  0.00000000E+00  1.23755293E+01
  1.23755293E+01 -2.47510585E+01  0.00000000E+00  1.23755293E+01  1.23755293E+01
 -2.47510585E+01  0.00000000E+00  1.23755293E+01  1.23755293E+01 -2.47510585E+01
  0.00000000E+00  1.23755293E+01  1.23755293E+01 -2.47510585E+01  0.00000000E+00
  1.23755293E+01  1.23755293E+01 -2.47510585E+01  0.00000000E+00  1.23755293E+01
  1.23755293E+01 -2.47510585E+01  0.00000000E+00  1.23755293E+01  1.23755293E+01
 -2.47510585E+01  0.00000000E+00  1.23755293E+01  1.23755293E+01 -2.47510585E+01
  0.00000000E+00  1.23755293E+01  1.23755293E+01 -2.47510585E+01  0.00000000E+00
  1.23755293E+01  1.23755293E+01 -2.47510585E+01  0.00000000E+00  1.23755293E+01
  1.23755293E+01 -2.47510585E+01  0.00000000E+00  1.23755293E+01  1.23755293E+01
 -2.47510585E+01  0.00000000E+00  1.23755293E+01  1.23755293E+01 -2.47510585E+01
  0.00000000E+00  1.23755293E+01  1.23755293E+01 -2.47510585E+01  0.00000000E+00
  1.23755293E+01  1.23755293E+01 -2.47510585E+01  0.00000000E+00  1.23755293E+01
  1.23755293E+01 -2.47510585E+01  0.00000000E+00  1.23755293E+01  1.23755293E+01
 -2.47510585E+01  0.00000000E+00  1.23755293E+01  1.23755293E+01 -2.47510585E+01
  0.00000000E+00  1.23755293E+01  1.23755293E+01 -2.47510585E+01  0.00000000E+00
  1.23755293E+01  1.23755293E+01 -2.47510585E+01  0.00000000E+00  1.23755293E+01
  1.23755293E+01 -2.47510585E+01  0.00000000E+00  1.23755293E+01  1.23755293E+01
 -2.47510585E+01  0.00000000E+00  1.23755293E+01  1.23755293E+01 -2.47510585E+01
  0.00000000E+00  1.23755293E+01  1.23755293E+01 -2.47510585E+01  0.00000000E+00
  1.23755293E+01  1.23755293E+01 -2.47510585E+01  0.00000000E+00  1.23755293E+01
  1.23755293E+01 -2.47510585E+01  0.00000000E+00  1.23755293E+01  1.23755293E+01
 -2.47510585E+01  0.00000000E+00  1.23755293E+01  1.23755293E+01 -2.47510585E+01
  0.00000000E+00  1.23755293E+01  1.23755293E+01 -2.47510585E+01  0.00000000E+00
  1.23755293E+01  1.23755293E+01 -2.47510585E+01  0.00000000E+00  1.23755293E+01
  1.23755293E+01 -2.47510585E+01  0.00000000E+00  1.23755293E+01  1.23755293E+01
 -2.47510585E+01  0.00000000E+00  1.23755293E+01  1.23755293E+01 -2.47510585E+01
  0.00000000E+00  1.23755293E+01  1.23755293E+01 -2.47510585E+01  0.00000000E+00
  1.23755293E+01  1.23755293E+01 -2.47510585E+01  0.00000000E+00  1.23755293E+01
  1.23755293E+01 -2.47510585E+01  0.00000000E+00  1.23755293E+01  1.23755293E+01
 -2.47510585E+01  0.00000000E+00  1.23755293E+01  1.23755293E+01 -2.47510585E+01
  0.00000000E+00  1.23755293E+01  1.23755293E+01 -2.47510585E+01  0.00000000E+00
  1.23755293E+01  1.23755293E+01 -2.47510585E+01  0.00000000E+00  1.23755293E+01
  1.23755293E+01 -2.47510585E+01  0.00000000E+00  1.23755293E+01  1.23755293E+01
 -2.47510585E+01  0.00000000E+00  1.23755293E+01  1.23755293E+01 -2.47510585E+01
  0.00000000E+00  1.23755293E+01  1.23755293E+01 -2.47510585E+01  0.00000000E+00
  1.23755293E+01  1.23755293E+01 -2.47510585E+01  0.00000000E+00  1.23755293E+01
  1.23755293E+01 -2.47510585E+01  0.00000000E+00  1.23755293E+01  1.23755293E+01
 -2.47510585E+01  0.00000000E+00  1.23755293E+01  1.23755293E+01 -2.47510585E+01
  0.00000000E+00  1.23755293E+01  1.23755293E+01 -2.47510585E+01  0.00000000E+00
  1.23755293E+01  1.23755293E+01 -2.47510585E+01  0.00000000E+00  1.23755293E+01
  1.23755293E+01 -2.47510585E+01  0.00000000E+00  1.23755293E+01  1.23755293E+01
 -2.47510585E+01  0.00000000E+00  1.23755293E+01  1.23755293E+01 -2.47510585E+01
  0.00000000E+00  1.23755293E+01  1.23755293E+01 -2.47510585E+01  0.00000000E+00
  1.23755293E+01  1.23755293E+01 -2.47510585E+01  0.00000000E+00  1.23755293E+01
  1.23755293E+01 -2.47510585E+01  0.00000000E+00  1.23755293E+01  1.23755293E+01
 -2.47510585E+01  0.00000000E+00  1.23755293E+01  1.23755293E+01 -2.47510585E+01
  0.00000000E+00  1.23755293E+01  1.23755293E+01 -2.47510585E+01  0.00000000E+00
  1.23755293E+01  1.23755293E+01 -2.47510585E+01  0.00000000E+00  1.23755293E+01
  1.23755293E+01 -2.47510585E+01  0.00000000E+00  1.23755293E+01  1.23755293E+01
 -2.47510585E+01  0.00000000E+00  1.23755293E+01  1.23755293E+01 -2.47510585E+01
  0.00000000E+00  1.23755293E+01  1.23755293E+01 -2.47510585E+01  0.00000000E+00
  1.23755293E+01  1.23755293E+01 -2.47510585E+01  0.00000000E+00  1.23755293E+01
  1.23755293E+01 -2.47510585E+01  0.00000000E+00  1.23755293E+01  1.23755293E+01
 -2.47510585E+01  0.00000000E+00  1.23755293E+01  1.23755293E+01 -2.47510585E+01
  0.00000000E+00  1.23755293E+01  1.23755293E+01 -2.47510585E+01  0.00000000E+00
  1.23755293E+01  1.23755293E+01 -2.47510585E+01  0.00000000E+00  1.23755293E+01
  1.23755293E+01 -2.47510585E+01  0.00000000E+00  1.23755293E+01  1.23755293E+01
 -2.47510585E+01  0.00000000E+00  1.23755293E+01  1.23755293E+01 -2.47510585E+01
  0.00000000E+00  1.23755293E+01  1.23755293E+01 -2.47510585E+01  0.00000000E+00
  1.23755293E+01  1.23755293E+01 -2.47510585E+01  0.00000000E+00  1.23755293E+01
  1.23755293E+01 -2.47510585E+01  0.00000000E+00  1.23755293E+01  1.23755293E+01
 -2.47510585E+01  0.00000000E+00  1.23755293E+01  1.23755293E+01 -2.47510585E+01
  0.00000000E+00  1.23755293E+01  1.23755293E+01 -2.47510585E+01  0.00000000E+00
  1.23755293E+01  1.23755293E+01 -2.47510585E+01  0.00000000E+00  1.23755293E+01
  1.23755293E+01 -2.47510585E+01  0.00000000E+00  1.23755293E+01  1.23755293E+01
 -2.47510585E+01  0.00000000E+00  1.23755293E+01  1.23755293E+01 -2.47510585E+01
  0.00000000E+00  1.23755293E+01  1.23755293E+01 -2.47510585E+01  0.00000000E+00
  1.23755293E+01  1.23755293E+01 -2.47510585E+01  0.00000000E+00  1.23755293E+01
  1.23755293E+01 -2.47510585E+01  0.00000000E+00  1.23755293E+01  1.23755293E+01
 -2.47510585E+01  0.00000000E+00  1.23755293E+01  1.23755293E+01 -2.47510585E+01
  0.00000000E+00  1.23755293E+01  1.23755293E+01 -2.47510585E+01  0.00000000E+00
  1.23755293E+01  1.23755293E+01 -2.47510585E+01  0.00000000E+00  1.23755293E+01
  1.23755293E+01 -2.47510585E+01  0.00000000E+00  1.23755293E+01  1.23755293E+01
 -2.47510585E+01  0.00000000E+00  1.23755293E+01  1.23755293E+01 -2.47510585E+01
  0.00000000E+00  1.23755293E+01  1.23755293E+01 -2.47510585E+01  0.00000000E+00
  1.23755293E+01  1.23755293E+01 -2.47510585E+01  0.00000000E+00  1.23755293E+01
  1.23755293E+01 -2.47510585E+01  0.00000000E+00  1.23755293E+01  1.23755293E+01
 -2.47510585E+01  0.00000000E+00  1.23755293E+01  1.23755293E+01 -2.47510585E+01
  0.00000000E+00  1.23755293E+01  1.23755293E+01 -2.47510585E+01  0.00000000E+00
  1.23755293E+01  1.23755293E+01 -2.47510585E+01  0.00000000E+00  1.23755293E+01
  1.23755293E+01 -2.47510585E+01  0.00000000E+00  1.23755293E+01  1.23755293E+01
 -2.47510585E+01  0.00000000E+00  1.23755293E+01  1.23755293E+01 -2.47510585E+01
  0.00000000E+00  1.23755293E+01  1.23755293E+01 -2.47510585E+01  0.00000000E+00
  1.23755293E+01  1.23755293E+01 -2.47510585E+01  0.00000000E+00  1.23755293E+01
  1.23755293E+01 -2.47510585E+01  0.00000000E+00  1.23755293E+01  1.23755293E+01
 -2.47510585E+01  0.00000000E+00  1.23755293E+01  1.23755293E+01 -2.47510585E+01
  0.00000000E+00  1.23755293E+01  1.23755293E+01 -2.47510585E+01  0.00000000E+00
  1.23755293E+01  1.23755293E+01 -2.47510585E+01  0.00000000E+00  1.23755293E+01
  1.23755293E+01 -2.47510585E+01  0.00000000E+00  1.23755293E+01  1.23755293E+01
 -2.47510585E+01  0.00000000E+00  1.23755293E+01  1.23755293E+01 -2.47510585E+01
  0.00000000E+00  1.23755293E+01  1.23755293E+01 -2.47510585E+01  0.00000000E+00
  1.23755293E+01  1.23755293E+01 -2.47510585E+01  0.00000000E+00  1.23755293E+01
  1.23755293E+01 -2.47510585E+01  0.00000000E+00  1.23755293E+01  1.23755293E+01
 -2.47510585E+01  0.00000000E+00  1.23755293E+01  1.23755293E+01 -2.47510585E+01
  0.00000000E+00  1.23755293E+01  1.23755293E+01 -2.47510585E+01  0.00000000E+00
  1.23755293E+01  1.23755293E+01 -2.47510585E+01  0.00000000E+00  1.23755293E+01
  1.23755293E+01 -2.47510585E+01  0.00000000E+00  1.23755293E+01  1.23755293E+01
 -2.47510585E+01  0.00000000E+00  1.23755293E+01  1.23755293E+01 -2.47510585E+01
  0.00000000E+00  1.23755293E+01  1.23755293E+01 -2.47510585E+01  0.00000000E+00
  1.23755293E+01  1.23755293E+01 -2.47510585E+01  0.00000000E+00  1.23755293E+01
  1.23755293E+01 -2.47510585E+01  0.00000000E+00  1.23755293E+01  1.23755293E+01
 -2.47510585E+01  0.00000000E+00  1.23755293E+01  1.23755293E+01 -2.47510585E+01
  0.00000000E+00  1.23755293E+01  1.23755293E+01 -2.47510585E+01  0.00000000E+00
  1.23755293E+01  1.23755293E+01 -2.47510585E+01  0.00000000E+00  1.23755293E+01
  1.23755293E+01 -2.47510585E+01  0.00000000E+00  1.23755293E+01  1.23755293E+01
 -2.47510585E+01  0.00000000E+00  1.23755293E+01  1.23755293E+01 -2.47510585E+01
  0.00000000E+00  1.23755293E+01  1.23755293E+01 -2.47510585E+01  0.00000000E+00
  1.23755293E+01  1.23755293E+01 -2.47510585E+01  0.00000000E+00  1.23755293E+01
  1.23755293E+01 -2.47510585E+01  0.00000000E+00  1.23755293E+01  1.23755293E+01
 -2.47510585E+01  0.00000000E+00  1.23755293E+01  1.23755293E+01 -2.47510585E+01
  0.00000000E+00  1.23755293E+01  1.23755293E+01 -2.47510585E+01  0.00000000E+00
  1.23755293E+01  1.23755293E+01 -2.47510585E+01  0.00000000E+00  1.23755293E+01
  1.23755293E+01 -2.47510585E+01  0.00000000E+00  1.23755293E+01  1.23755293E+01
 -2.47510585E+01  0.00000000E+00  1.23755293E+01  1.23755293E+01 -2.47510585E+01
  0.00000000E+00  1.23755293E+01  1.23755293E+01 -2.47510585E+01  0.00000000E+00
  1.23755293E+01  1.23755293E+01 -2.47510585E+01  0.00000000E+00  1.23755293E+01
  1.23755293E+01 -2.47510585E+01  0.00000000E+00  1.23755293E+01  1.23755293E+01
 -2.47510585E+01  0.00000000E+00  1.23755293E+01  1.23755293E+01 -2.47510585E+01
  0.00000000E+00  1.23755293E+01  1.23755293E+01 -2.47510585E+01  0.00000000E+00
  1.23755293E+01  1.23755293E+01 -2.47510585E+01  0.00000000E+00  1.23755293E+01
  1.23755293E+01 -2.47510585E+01  0.00000000E+00  1.23755293E+01  1.23755293E+01
 -2.47510585E+01  0.00000000E+00  1.23755293E+01  1.23755293E+01 -2.47510585E+01
  0.00000000E+00  1.23755293E+01  1.23755293E+01 -2.47510585E+01  0.00000000E+00
  1.23755293E+01  1.23755293E+01 -2.47510585E+01  0.00000000E+00  1.23755293E+01
  1.23755293E+01 -2.47510585E+01  0.00000000E+00  1.23755293E+01  1.23755293E+01
 -2.47510585E+01  0.00000000E+00  1.23755293E+01  1.23755293E+01 -2.47510585E+01
  0.00000000E+00  1.23755293E+01  1.23755293E+01 -2.47510585E+01  0.00000000E+00
  1.23755293E+01  1.23755293E+01 -2.47510585E+01  0.00000000E+00  1.23755293E+01
  1.23755293E+01 -2.47510585E+01  0.00000000E+00  1.23755293E+01  1.23755293E+01
 -2.47510585E+01  0.00000000E+00  1.23755293E+01  1.23755293E+01 -2.47510585E+01
  0.00000000E+00  1.23755293E+01  1.23755293E+01 -2.47510585E+01  0.00000000E+00
  1.23755293E+01  1.23755293E+01 -2.47510585E+01  0.00000000E+00  1.23755293E+01
  1.23755293E+01 -2.47510585E+01  0.00000000E+00  1.23755293E+01  1.23755293E+01
 -2.47510585E+01  0.00000000E+00  1.23755293E+01  1.23755293E+01 -2.47510585E+01
  0.00000000E+00  1.23755293E+01  1.23755293E+01 -2.47510585E+01  0.00000000E+00
  1.23755293E+01  1.23755293E+01 -2.47510585E+01  0.00000000E+00  1.23755293E+01
  1.23755293E+01 -2.47510585E+01  0.00000000E+00  1.23755293E+01  1.23755293E+01
 -2.47510585E+01  0.00000000E+00  1.23755293E+01  1.23755293E+01 -2.47510585E+01
  0.00000000E+00  1.23755293E+01  1.23755293E+01 -2.47510585E+01  0.00000000E+00
  1.23755293E+01  1.23755293E+01 -2.47510585E+01  0.00000000E+00  1.23755293E+01
  1.23755293E+01 -2.47510585E+01  0.00000000E+00  1.23755293E+01  1.23755293E+01
 -2.47510585E+01  0.00000000E+00  1.23755293E+01  1.23755293E+01 -2.47510585E+01
  0.00000000E+00  1.23755293E+01  1.23755293E+01 -2.47510585E+01  0.00000000E+00
  1.23755293E+01  1.23755293E+01 -2.47510585E+01  0.00000000E+00  1.23755293E+01
  1.23755293E+01 -2.47510585E+01  0.00000000E+00  1.23755293E+01  1.23755293E+01
 -2.47510585E+01  0.00000000E+00  1.23755293E+01  1.23755293E+01 -2.47510585E+01
  0.00000000E+00  1.23755293E+01  1.23755293E+01 -2.47510585E+01  0.00000000E+00
  1.23755293E+01  1.23755293E+01 -2.47510585E+01  0.00000000E+00  1.23755293E+01
  1.23755293E+01 -2.47510585E+01  0.00000000E+00  1.23755293E+01  1.23755293E+01
 -2.47510585E+01  0.00000000E+00  1.23755293E+01  1.23755293E+01 -2.47510585E+01
  0.00000000E+00  1.23755293E+01  1.23755293E+01 -2.47510585E+01  0.00000000E+00
  1.23755293E+01  1.23755293E+01 -2.47510585E+01  0.00000000E+00  1.23755293E+01
  1.23755293E+01 -2.47510585E+01  0.00000000E+00  1.23755293E+01  1.23755293E+01
 -2.47510585E+01  0.00000000E+00  1.23755293E+01  1.23755293E+01 -2.47510585E+01
  0.00000000E+00  1.23755293E+01  1.23755293E+01 -2.47510585E+01  0.00000000E+00
  1.23755293E+01  1.23755293E+01 -2.47510585E+01  0.00000000E+00  1.23755293E+01
  1.23755293E+01 -2.47510585E+01  0.00000000E+00  1.23755293E+01  1.23755293E+01
 -2.47510585E+01  0.00000000E+00  1.23755293E+01  1.23755293E+01 -2.47510585E+01
  0.00000000E+00  1.23755293E+01  1.23755293E+01 -2.47510585E+01  0.00000000E+00
  1.23755293E+01  1.23755293E+01 -2.47510585E+01  0.00000000E+00  1.23755293E+01
  1.23755293E+01 -2.47510585E+01  0.00000000E+00  1.23755293E+01  1.23755293E+01
 -2.47510585E+01  0.00000000E+00  1.23755293E+01  1.23755293E+01 -2.47510585E+01
  0.00000000E+00  1.23755293E+01  1.23755293E+01 -2.47510585E+01  0.00000000E+00
  1.23755293E+01  1.23755293E+01 -2.47510585E+01  0.00000000E+00  1.23755293E+01
  1.23755293E+01 -2.47510585E+01  0.00000000E+00  1.23755293E+01  1.23755293E+01
 -2.47510585E+01  0.00000000E+00  1.23755293E+01  1.23755293E+01 -2.47510585E+01
  0.00000000E+00  1.23755293E+01  1.23755293E+01 -2.47510585E+01  0.00000000E+00
  1.23755293E+01  1.23755293E+01 -2.47510585E+01  0.00000000E+00  1.23755293E+01
  1.23755293E+01 -2.47510585E+01  0.00000000E+00  1.23755293E+01  1.23755293E+01
 -2.47510585E+01  0.00000000E+00  1.23755293E+01  1.23755293E+01 -2.47510585E+01
  0.00000000E+00  1.23755293E+01  1.23755293E+01 -2.47510585E+01  0.00000000E+00
  1.23755293E+01  1.23755293E+01 -2.47510585E+01  0.00000000E+00  1.23755293E+01
  1.23755293E+01 -2.47510585E+01  0.00000000E+00  1.23755293E+01  1.23755293E+01
 -2.47510585E+01  0.00000000E+00  1.23755293E+01  1.23755293E+01 -2.47510585E+01
  0.00000000E+00  1.23755293E+01  1.23755293E+01 -2.47510585E+01  0.00000000E+00
  1.23755293E+01  1.23755293E+01 -2.47510585E+01  0.00000000E+00  1.23755293E+01
  1.23755293E+01 -2.47510585E+01  0.00000000E+00  1.23755293E+01  1.23755293E+01
 -2.47510585E+01  0.00000000E+00  1.23755293E+01  1.23755293E+01 -2.47510585E+01
  0.00000000E+00  1.23755293E+01  1.23755293E+01 -2.47510585E+01  0.00000000E+00
  1.23755293E+01  1.23755293E+01 -2.47510585E+01  0.00000000E+00  1.23755293E+01
  1.23755293E+01 -2.47510585E+01  0.00000000E+00  1.23755293E+01  1.23755293E+01
 -2.47510585E+01  0.00000000E+00  1.23755293E+01  1.23755293E+01 -2.47510585E+01
  0.00000000E+00  1.23755293E+01  1.23755293E+01 -2.47510585E+01  0.00000000E+00
  1.23755293E+01  1.23755293E+01 -2.47510585E+01  0.00000000E+00  1.23755293E+01
  1.23755293E+01 -2.47510585E+01  0.00000000E+00  1.23755293E+01  1.23755293E+01
 -2.47510585E+01  0.00000000E+00  1.23755293E+01  1.23755293E+01 -2.47510585E+01
  0.00000000E+00  1.23755293E+01  1.23755293E+01 -2.47510585E+01  0.00000000E+00
  1.23755293E+01  1.23755293E+01 -2.47510585E+01  0.00000000E+00  1.23755293E+01
  1.23755293E+01 -2.47510585E+01  0.00000000E+00  1.23755293E+01  1.23755293E+01
 -2.47510585E+01  0.00000000E+00  1.23755293E+01  1.23755293E+01 -2.47510585E+01
  0.00000000E+00  1.23755293E+01  1.23755293E+01 -2.47510585E+01  0.00000000E+00
  1.23755293E+01  1.23755293E+01 -2.47510585E+01  0.00000000E+00  1.23755293E+01
  1.23755293E+01 -2.47510585E+01  0.00000000E+00  1.23755293E+01  1.23755293E+01
 -2.47510585E+01  0.00000000E+00  1.23755293E+01  1.23755293E+01 -2.47510585E+01
  0.00000000E+00  1.23755293E+01  1.23755293E+01 -2.47510585E+01  0.00000000E+00
  1.23755293E+01  1.23755293E+01 -2.47510585E+01  0.00000000E+00  1.23755293E+01
  1.23755293E+01 -2.47510585E+01  0.00000000E+00  1.23755293E+01  1.23755293E+01
 -2.47510585E+01  0.00000000E+00  1.23755293E+01  1.23755293E+01 -2.47510585E+01
  0.00000000E+00  1.23755293E+01  1.23755293E+01 -2.47510585E+01  0.00000000E+00
  1.23755293E+01  1.23755293E+01 -2.47510585E+01  0.00000000E+00  1.23755293E+01
  1.23755293E+01 -2.47510585E+01  0.00000000E+00  1.23755293E+01  1.23755293E+01
 -2.47510585E+01  0.00000000E+00  1.23755293E+01  1.23755293E+01 -2.47510585E+01
  0.00000000E+00  1.23755293E+01  1.23755293E+01 -2.47510585E+01  0.00000000E+00
  1.23755293E+01  1.23755293E+01 -2.47510585E+01  0.00000000E+00  1.23755293E+01
  1.23755293E+01 -2.47510585E+01  0.00000000E+00  1.23755293E+01  1.23755293E+01
 -2.47510585E+01  0.00000000E+00  1.23755293E+01  1.23755293E+01 -2.47510585E+01
  0.00000000E+00  1.23755293E+01  1.23755293E+01 -2.47510585E+01  0.00000000E+00
  1.23755293E+01  1.23755293E+01 -2.47510585E+01  0.00000000E+00  1.23755293E+01
  1.23755293E+01 -2.47510585E+01  0.00000000E+00  1.23755293E+01  1.23755293E+01
 -2.47510585E+01  0.00000000E+00  1.23755293E+01  1.23755293E+01 -2.47510585E+01
  0.00000000E+00  1.23755293E+01  1.23755293E+01 -2.47510585E+01  0.00000000E+00
  1.23755293E+01  1.23755293E+01 -2.47510585E+01  0.00000000E+00  1.23755293E+01
  1.23755293E+01 -2.47510585E+01  0.00000000E+00  1.23755293E+01  1.23755293E+01
 -2.47510585E+01  0.00000000E+00  1.23755293E+01  1.23755293E+01 -2.47510585E+01
  0.00000000E+00  1.23755293E+01  1.23755293E+01 -2.47510585E+01  0.00000000E+00
  1.23755293E+01  1.23755293E+01 -2.47510585E+01  0.00000000E+00  1.23755293E+01
  1.23755293E+01 -2.47510585E+01  0.00000000E+00  1.23755293E+01  1.23755293E+01
 -2.47510585E+01  0.00000000E+00  1.23755293E+01  1.23755293E+01 -2.47510585E+01
  0.00000000E+00  1.23755293E+01  1.23755293E+01 -2.47510585E+01  0.00000000E+00
  1.23755293E+01  1.23755293E+01 -2.47510585E+01  0.00000000E+00  1.23755293E+01
  1.23755293E+01 -2.47510585E+01  0.00000000E+00  1.23755293E+01  1.23755293E+01
 -2.47510585E+01  0.00000000E+00  1.23755293E+01  1.23755293E+01 -2.47510585E+01
  0.00000000E+00  1.23755293E+01  1.23755293E+01 -2.47510585E+01  0.00000000E+00
  1.23755293E+01  1.23755293E+01 -2.47510585E+01  0.00000000E+00  1.23755293E+01
  1.23755293E+01 -2.47510585E+01  0.00000000E+00  1.23755293E+01  1.23755293E+01
 -2.47510585E+01  0.00000000E+00  1.23755293E+01  1.23755293E+01 -2.47510585E+01
  0.00000000E+00  1.23755293E+01  1.23755293E+01 -2.47510585E+01  0.00000000E+00
  1.23755293E+01  1.23755293E+01 -2.47510585E+01  0.00000000E+00  1.23755293E+01
  1.23755293E+01 -2.47510585E+01  0.00000000E+00  1.23755293E+01  1.23755293E+01
 -2.47510585E+01  0.00000000E+00  1.23755293E+01  1.23755293E+01 -2.47510585E+01
  0.00000000E+00  1.23755293E+01  1.23755293E+01 -2.47510585E+01  0.00000000E+00
  1.23755293E+01  1.23755293E+01 -2.47510585E+01  0.00000000E+00  1.23755293E+01
  1.23755293E+01 -2.47510585E+01  0.00000000E+00  1.23755293E+01  1.23755293E+01
 -2.47510585E+01  0.00000000E+00  1.23755293E+01  1.23755293E+01 -2.47510585E+01
  0.00000000E+00  1.23755293E+01  1.23755293E+01 -2.47510585E+01  0.00000000E+00
  1.23755293E+01  1.23755293E+01 -2.47510585E+01  0.00000000E+00  1.23755293E+01
  1.23755293E+01 -2.47510585E+01  0.00000000E+00  1.23755293E+01  1.23755293E+01
 -2.47510585E+01  0.00000000E+00  1.23755293E+01  1.23755293E+01 -2.47510585E+01
  0.00000000E+00  1.23755293E+01  1.23755293E+01 -2.47510585E+01  0.00000000E+00
  1.23755293E+01  1.23755293E+01 -2.47510585E+01  0.00000000E+00  1.23755293E+01
  1.23755293E+01 -2.47510585E+01  0.00000000E+00  1.23755293E+01  1.23755293E+01
 -2.47510585E+01  0.00000000E+00  1.23755293E+01  1.23755293E+01 -2.47510585E+01
  0.00000000E+00  1.23755293E+01  1.23755293E+01 -2.47510585E+01  0.00000000E+00
  1.23755293E+01  1.23755293E+01 -2.47510585E+01  0.00000000E+00  1.23755293E+01
  1.23755293E+01 -2.47510585E+01  0.00000000E+00  1.23755293E+01  1.23755293E+01
 -2.47510585E+01  0.00000000E+00  1.23755293E+01  1.23755293E+01 -2.47510585E+01
  0.00000000E+00  1.23755293E+01  1.23755293E+01 -2.47510585E+01  0.00000000E+00
  1.23755293E+01  1.23755293E+01 -2.47510585E+01  0.00000000E+00  1.23755293E+01
  1.23755293E+01 -2.47510585E+01  0.00000000E+00  1.23755293E+01  1.23755293E+01
 -2.47510585E+01  0.00000000E+00  1.23755293E+01  1.23755293E+01 -2.47510585E+01
  0.00000000E+00  1.23755293E+01  1.23755293E+01 -2.47510585E+01  0.00000000E+00
  1.23755293E+01  1.23755293E+01 -2.47510585E+01  0.00000000E+00  1.23755293E+01
  1.23755293E+01 -2.47510585E+01  0.00000000E+00  1.23755293E+01  1.23755293E+01
 -2.47510585E+01  0.00000000E+00  1.23755293E+01  1.23755293E+01 -2.47510585E+01
  0.00000000E+00  1.23755293E+01  1.23755293E+01 -2.47510585E+01  0.00000000E+00
  1.23755293E+01  1.23755293E+01 -2.47510585E+01  0.00000000E+00  1.23755293E+01
  1.23755293E+01 -2.47510585E+01  0.00000000E+00  1.23755293E+01  1.23755293E+01
 -2.47510585E+01  0.00000000E+00  1.23755293E+01  1.23755293E+01 -2.47510585E+01
  0.00000000E+00  1.23755293E+01  1.23755293E+01 -2.47510585E+01  0.00000000E+00
  1.23755293E+01  1.23755293E+01 -2.47510585E+01  0.00000000E+00  1.23755293E+01
  1.23755293E+01 -2.47510585E+01  0.00000000E+00  1.23755293E+01  1.23755293E+01
 -2.47510585E+01  0.00000000E+00  1.23755293E+01  1.23755293E+01 -2.47510585E+01
  0.00000000E+00  1.23755293E+01  1.23755293E+01 -2.47510585E+01  0.00000000E+00
  1.23755293E+01  1.23755293E+01 -2.47510585E+01  0.00000000E+00  1.23755293E+01
  1.23755293E+01 -2.47510585E+01  0.00000000E+00  1.23755293E+01  1.23755293E+01
 -2.47510585E+01  0.00000000E+00  1.23755293E+01  1.23755293E+01 -2.47510585E+01
  0.00000000E+00  1.23755293E+01  1.23755293E+01 -2.47510585E+01  0.00000000E+00
  1.23755293E+01  1.23755293E+01 -2.47510585E+01  0.00000000E+00  1.23755293E+01
  1.23755293E+01 -2.47510585E+01  0.00000000E+00  1.23755293E+01  1.23755293E+01
 -2.47510585E+01  0.00000000E+00  1.23755293E+01  1.23755293E+01 -2.47510585E+01
  0.00000000E+00  1.23755293E+01  1.23755293E+01 -2.47510585E+01  0.00000000E+00
  1.23755293E+01  1.23755293E+01 -2.47510585E+01  0.00000000E+00  1.23755293E+01
  1.23755293E+01 -2.47510585E+01  0.00000000E+00  1.23755293E+01  1.23755293E+01
 -2.47510585E+01  0.00000000E+00  1.23755293E+01  1.23755293E+01 -2.47510585E+01
  0.00000000E+00  1.23755293E+01  1.23755293E+01 -2.47510585E+01  0.00000000E+00
  1.23755293E+01  1.23755293E+01 -2.47510585E+01  0.00000000E+00  1.23755293E+01
  1.23755293E+01 -2.47510585E+01  0.00000000E+00  1.23755293E+01  1.23755293E+01
 -2.47510585E+01  0.00000000E+00  1.23755293E+01  1.23755293E+01 -2.47510585E+01
  0.00000000E+00  1.23755293E+01  1.23755293E+01 -2.47510585E+01  0.00000000E+00
  1.23755293E+01  1.23755293E+01 -2.47510585E+01  0.00000000E+00  1.23755293E+01
  1.23755293E+01 -2.47510585E+01  0.00000000E+00  1.23755293E+01  1.23755293E+01
 -2.47510585E+01  0.00000000E+00  1.23755293E+01  1.23755293E+01 -2.47510585E+01
  0.00000000E+00  1.23755293E+01  1.23755293E+01 -2.47510585E+01  0.00000000E+00
  1.23755293E+01  1.23755293E+01 -2.47510585E+01  0.00000000E+00  1.23755293E+01
  1.23755293E+01 -2.47510585E+01  0.00000000E+00  1.23755293E+01  1.23755293E+01
 -2.47510585E+01  0.00000000E+00  1.23755293E+01  1.23755293E+01 -2.47510585E+01
  0.00000000E+00  1.23755293E+01  1.23755293E+01 -2.47510585E+01  0.00000000E+00
  1.23755293E+01  1.23755293E+01 -2.47510585E+01  0.00000000E+00  1.23755293E+01
  1.23755293E+01 -2.47510585E+01  0.00000000E+00  1.23755293E+01  1.23755293E+01
 -2.47510585E+01  0.00000000E+00  1.23755293E+01  1.23755293E+01 -2.47510585E+01
  0.00000000E+00  1.23755293E+01  1.23755293E+01 -2.47510585E+01  0.00000000E+00
  1.23755293E+01  1.23755293E+01 -2.47510585E+01  0.00000000E+00  1.23755293E+01
  1.23755293E+01 -2.47510585E+01  0.00000000E+00  1.23755293E+01  1.23755293E+01
 -2.47510585E+01  0.00000000E+00  1.23755293E+01  1.23755293E+01 -2.47510585E+01
  0.00000000E+00  1.23755293E+01  1.23755293E+01 -2.47510585E+01  0.00000000E+00
  1.23755293E+01  1.23755293E+01 -2.47510585E+01  0.00000000E+00  1.23755293E+01
  1.23755293E+01 -2.47510585E+01  0.00000000E+00  1.23755293E+01  1.23755293E+01
 -2.47510585E+01  0.00000000E+00  1.23755293E+01  1.23755293E+01 -2.47510585E+01
  0.00000000E+00  1.23755293E+01  1.23755293E+01 -2.47510585E+01  0.00000000E+00
  1.23755293E+01  1.23755293E+01 -2.47510585E+01  0.00000000E+00  1.23755293E+01
  1.23755293E+01 -2.47510585E+01  0.00000000E+00  1.23755293E+01  1.23755293E+01
 -2.47510585E+01  0.00000000E+00  1.23755293E+01  1.23755293E+01 -2.47510585E+01
  0.00000000E+00  1.23755293E+01  1.23755293E+01 -2.47510585E+01  0.00000000E+00
  1.23755293E+01  1.23755293E+01 -2.47510585E+01  0.00000000E+00  1.23755293E+01
  1.23755293E+01 -2.47510585E+01  0.00000000E+00  1.23755293E+01  1.23755293E+01
 -2.47510585E+01  0.00000000E+00  1.23755293E+01  1.23755293E+01 -2.47510585E+01
  0.00000000E+00  1.23755293E+01  1.23755293E+01 -2.47510585E+01  0.00000000E+00
  1.23755293E+01  1.23755293E+01 -2.47510585E+01  0.00000000E+00  1.23755293E+01
  1.23755293E+01 -2.47510585E+01  0.00000000E+00  1.23755293E+01  1.23755293E+01
 -2.47510585E+01  0.00000000E+00  1.23755293E+01  1.23755293E+01 -2.47510585E+01
  0.00000000E+00  1.23755293E+01  1.23755293E+01 -2.47510585E+01  0.00000000E+00
  1.23755293E+01  1.23755293E+01 -2.47510585E+01  0.00000000E+00  1.23755293E+01
  1.23755293E+01 -2.47510585E+01  0.00000000E+00  1.23755293E+01  1.23755293E+01
 -2.47510585E+01  0.00000000E+00  1.23755293E+01  1.23755293E+01 -2.47510585E+01
  0.00000000E+00  1.23755293E+01  1.23755293E+01 -2.47510585E+01  0.00000000E+00
  1.23755293E+01  1.23755293E+01 -2.47510585E+01  0.00000000E+00  1.23755293E+01
  1.23755293E+01 -2.47510585E+01  0.00000000E+00  1.23755293E+01  1.23755293E+01
 -2.47510585E+01  0.00000000E+00  1.23755293E+01  1.23755293E+01 -2.47510585E+01
  0.00000000E+00  1.23755293E+01  1.23755293E+01 -2.47510585E+01  0.00000000E+00
  1.23755293E+01  1.23755293E+01 -2.47510585E+01  0.00000000E+00  1.23755293E+01
  1.23755293E+01 -2.47510585E+01  0.00000000E+00  1.23755293E+01  1.23755293E+01
 -2.47510585E+01  0.00000000E+00  1.23755293E+01  1.23755293E+01 -2.47510585E+01
  0.00000000E+00  1.23755293E+01  1.23755293E+01 -2.47510585E+01  0.00000000E+00
  1.23755293E+01  1.23755293E+01 -2.47510585E+01  0.00000000E+00  1.23755293E+01
  1.23755293E+01 -2.47510585E+01  0.00000000E+00  1.23755293E+01  1.23755293E+01
 -2.47510585E+01  0.00000000E+00  1.23755293E+01  1.23755293E+01 -2.47510585E+01
  0.00000000E+00  1.23755293E+01  1.23755293E+01 -2.47510585E+01  0.00000000E+00
  1.23755293E+01  1.23755293E+01 -2.47510585E+01  0.00000000E+00  1.23755293E+01
  1.23755293E+01 -2.47510585E+01  0.00000000E+00  1.23755293E+01  1.23755293E+01
 -2.47510585E+01  0.00000000E+00  1.23755293E+01  1.23755293E+01 -2.47510585E+01
  0.00000000E+00  1.23755293E+01  1.23755293E+01 -2.47510585E+01  0.00000000E+00
  1.23755293E+01  1.23755293E+01 -2.47510585E+01  0.00000000E+00  1.23755293E+01
  1.23755293E+01 -2.47510585E+01  0.00000000E+00  1.23755293E+01  1.23755293E+01
 -2.47510585E+01  0.00000000E+00  1.23755293E+01  1.23755293E+01 -2.47510585E+01
  0.00000000E+00  1.23755293E+01  1.23755293E+01 -2.47510585E+01  0.00000000E+00
  1.23755293E+01  1.23755293E+01 -2.47510585E+01  0.00000000E+00  1.23755293E+01
  1.23755293E+01 -2.47510585E+01  0.00000000E+00  1.23755293E+01  1.23755293E+01
 -2.47510585E+01  0.00000000E+00  1.23755293E+01  1.23755293E+01 -2.47510585E+01
  0.00000000E+00  1.23755293E+01  1.23755293E+01 -2.47510585E+01  0.00000000E+00
  1.23755293E+01  1.23755293E+01 -2.47510585E+01  0.00000000E+00  1.23755293E+01
  1.23755293E+01 -2.47510585E+01  0.00000000E+00  1.23755293E+01  1.23755293E+01
 -2.47510585E+01  0.00000000E+00  1.23755293E+01  1.23755293E+01 -2.47510585E+01
  0.00000000E+00  1.23755293E+01  1.23755293E+01 -2.47510585E+01  0.00000000E+00
  1.23755293E+01  1.23755293E+01 -2.47510585E+01  0.00000000E+00  1.23755293E+01
  1.23755293E+01 -2.47510585E+01  0.00000000E+00  1.23755293E+01  1.23755293E+01
 -2.47510585E+01  0.00000000E+00  1.23755293E+01  1.23755293E+01 -2.47510585E+01
  0.00000000E+00  1.23755293E+01  1.23755293E+01 -2.47510585E+01  0.00000000E+00
  1.23755293E+01  1.23755293E+01 -2.47510585E+01  0.00000000E+00  1.23755293E+01
  1.23755293E+01 -2.47510585E+01  0.00000000E+00  1.23755293E+01  1.23755293E+01
 -2.47510585E+01  0.00000000E+00  1.23755293E+01  1.23755293E+01 -2.47510585E+01
  0.00000000E+00  1.23755293E+01  1.23755293E+01 -2.47510585E+01  0.00000000E+00
  1.23755293E+01  1.23755293E+01 -2.47510585E+01  0.00000000E+00  1.23755293E+01
  1.23755293E+01 -2.47510585E+01  0.00000000E+00  1.23755293E+01  1.23755293E+01
 -2.47510585E+01  0.00000000E+00  1.23755293E+01  1.23755293E+01 -2.47510585E+01
  0.00000000E+00  1.23755293E+01  1.23755293E+01 -2.47510585E+01  0.00000000E+00
  1.23755293E+01  1.23755293E+01 -2.47510585E+01  0.00000000E+00  1.23755293E+01
  1.23755293E+01 -2.47510585E+01  0.00000000E+00  1.23755293E+01  1.23755293E+01
 -2.47510585E+01  0.00000000E+00  1.23755293E+01  1.23755293E+01 -2.47510585E+01
  0.00000000E+00  1.23755293E+01  1.23755293E+01 -2.47510585E+01  0.00000000E+00
  1.23755293E+01  1.23755293E+01 -2.47510585E+01  0.00000000E+00  1.23755293E+01
  1.23755293E+01 -2.47510585E+01  0.00000000E+00  1.23755293E+01  1.23755293E+01
 -2.47510585E+01  0.00000000E+00  1.23755293E+01  1.23755293E+01 -2.47510585E+01
  0.00000000E+00  1.23755293E+01  1.23755293E+01 -2.47510585E+01  0.00000000E+00
  1.23755293E+01  1.23755293E+01 -2.47510585E+01  0.00000000E+00  1.23755293E+01
  1.23755293E+01 -2.47510585E+01  0.00000000E+00  1.23755293E+01  1.23755293E+01
 -2.47510585E+01  0.00000000E+00  1.23755293E+01  1.23755293E+01 -2.47510585E+01
  0.00000000E+00  1.23755293E+01  1.23755293E+01 -2.47510585E+01  0.00000000E+00
  1.23755293E+01  1.23755293E+01 -2.47510585E+01  0.00000000E+00  1.23755293E+01
  1.23755293E+01 -2.47510585E+01  0.00000000E+00  1.23755293E+01  1.23755293E+01
 -2.47510585E+01  0.00000000E+00  1.23755293E+01  1.23755293E+01 -2.47510585E+01
  0.00000000E+00  1.23755293E+01  1.23755293E+01 -2.47510585E+01  0.00000000E+00
  1.23755293E+01  1.23755293E+01 -2.47510585E+01  0.00000000E+00  1.23755293E+01
  1.23755293E+01 -2.47510585E+01  0.00000000E+00  1.23755293E+01  1.23755293E+01
 -2.47510585E+01  0.00000000E+00  1.23755293E+01  1.23755293E+01 -2.47510585E+01
  0.00000000E+00  1.23755293E+01  1.23755293E+01 -2.47510585E+01  0.00000000E+00
  1.23755293E+01  1.23755293E+01 -2.47510585E+01  0.00000000E+00  1.23755293E+01
  1.23755293E+01 -2.47510585E+01  0.00000000E+00  1.23755293E+01  1.23755293E+01
 -2.47510585E+01  0.00000000E+00  1.23755293E+01  1.23755293E+01 -2.47510585E+01
  0.00000000E+00  1.23755293E+01  1.23755293E+01 -2.47510585E+01  0.00000000E+00
  1.23755293E+01  1.23755293E+01 -2.47510585E+01  0.00000000E+00  1.23755293E+01
  1.23755293E+01 -2.47510585E+01  0.00000000E+00  1.23755293E+01  1.23755293E+01
 -2.47510585E+01  0.00000000E+00  1.23755293E+01  1.23755293E+01 -2.47510585E+01
  0.00000000E+00  1.23755293E+01  1.23755293E+01 -2.47510585E+01  0.00000000E+00
  1.23755293E+01  1.23755293E+01 -2.47510585E+01  0.00000000E+00  1.23755293E+01
  1.23755293E+01 -2.47510585E+01  0.00000000E+00  1.23755293E+01  1.23755293E+01
 -2.47510585E+01  0.00000000E+00  1.23755293E+01  1.23755293E+01 -2.47510585E+01
  0.00000000E+00  1.23755293E+01  1.23755293E+01 -2.47510585E+01  0.00000000E+00
  1.23755293E+01  1.23755293E+01 -2.47510585E+01  0.00000000E+00  1.23755293E+01
  1.23755293E+01 -2.47510585E+01  0.00000000E+00  1.23755293E+01  1.23755293E+01
 -2.47510585E+01  0.00000000E+00  1.23755293E+01  1.23755293E+01 -2.47510585E+01
  0.00000000E+00  1.23755293E+01  1.23755293E+01 -2.47510585E+01  0.00000000E+00
  1.23755293E+01  1.23755293E+01 -2.47510585E+01  0.00000000E+00  1.23755293E+01
  1.23755293E+01 -2.47510585E+01  0.00000000E+00  1.23755293E+01  1.23755293E+01
 -2.47510585E+01  0.00000000E+00  1.23755293E+01  1.23755293E+01 -2.47510585E+01
  0.00000000E+00  1.23755293E+01  1.23755293E+01 -2.47510585E+01  0.00000000E+00
  1.23755293E+01  1.23755293E+01 -2.47510585E+01  0.00000000E+00  1.23755293E+01
  1.23755293E+01 -2.47510585E+01  0.00000000E+00  1.23755293E+01  1.23755293E+01
 -2.47510585E+01  0.00000000E+00  1.23755293E+01  1.23755293E+01 -2.47510585E+01
  0.00000000E+00  1.23755293E+01  1.23755293E+01 -2.47510585E+01  0.00000000E+00
  1.23755293E+01  1.23755293E+01 -2.47510585E+01  0.00000000E+00  1.23755293E+01
  1.23755293E+01 -2.47510585E+01  0.00000000E+00  1.23755293E+01  1.23755293E+01
 -2.47510585E+01  0.00000000E+00  1.23755293E+01  1.23755293E+01 -2.47510585E+01
  0.00000000E+00  1.23755293E+01  1.23755293E+01 -2.47510585E+01  0.00000000E+00
  1.23755293E+01  1.23755293E+01 -2.47510585E+01  0.00000000E+00  1.23755293E+01
  1.23755293E+01 -2.47510585E+01  0.00000000E+00  1.23755293E+01  1.23755293E+01
 -2.47510585E+01  0.00000000E+00  1.23755293E+01  1.23755293E+01 -2.47510585E+01
  0.00000000E+00  1.23755293E+01  1.23755293E+01 -2.47510585E+01  0.00000000E+00
  1.23755293E+01  1.23755293E+01 -2.47510585E+01  0.00000000E+00  1.23755293E+01
  1.23755293E+01 -2.47510585E+01  0.00000000E+00  1.23755293E+01  1.23755293E+01
 -2.47510585E+01  0.00000000E+00  1.23755293E+01  1.23755293E+01 -2.47510585E+01
  0.00000000E+00  1.23755293E+01  1.23755293E+01 -2.47510585E+01  0.00000000E+00
  1.23755293E+01  1.23755293E+01 -2.47510585E+01  0.00000000E+00  1.23755293E+01
  1.23755293E+01 -2.47510585E+01  0.00000000E+00  1.23755293E+01  1.23755293E+01
 -2.47510585E+01  0.00000000E+00  1.23755293E+01  1.23755293E+01 -2.47510585E+01
  0.00000000E+00  1.23755293E+01  1.23755293E+01 -2.47510585E+01  0.00000000E+00
  1.23755293E+01  1.23755293E+01 -2.47510585E+01  0.00000000E+00  1.23755293E+01
  1.23755293E+01 -2.47510585E+01  0.00000000E+00  1.23755293E+01  1.23755293E+01
 -2.47510585E+01  0.00000000E+00  1.23755293E+01  1.23755293E+01 -2.47510585E+01
  0.00000000E+00  1.23755293E+01  1.23755293E+01 -2.47510585E+01  0.00000000E+00
  1.23755293E+01  1.23755293E+01 -2.47510585E+01  0.00000000E+00  1.23755293E+01
  1.23755293E+01 -2.47510585E+01  0.00000000E+00  1.23755293E+01  1.23755293E+01
 -2.47510585E+01  0.00000000E+00  1.23755293E+01  1.23755293E+01 -2.47510585E+01
  0.00000000E+00  1.23755293E+01  1.23755293E+01 -2.47510585E+01  0.00000000E+00
  1.23755293E+01  1.23755293E+01 -2.47510585E+01  0.00000000E+00  1.23755293E+01
  1.23755293E+01 -2.47510585E+01  0.00000000E+00  1.23755293E+01  1.23755293E+01
 -2.47510585E+01  0.00000000E+00  1.23755293E+01  1.23755293E+01 -2.47510585E+01
  0.00000000E+00  1.23755293E+01  1.23755293E+01 -2.47510585E+01  0.00000000E+00
  1.23755293E+01  1.23755293E+01 -2.47510585E+01  0.00000000E+00  1.23755293E+01
  1.23755293E+01 -2.47510585E+01  0.00000000E+00  1.23755293E+01  1.23755293E+01
 -2.47510585E+01  0.00000000E+00  1.23755293E+01  1.23755293E+01 -2.47510585E+01
  0.00000000E+00  1.23755293E+01  1.23755293E+01 -2.47510585E+01  0.00000000E+00
  1.23755293E+01  1.23755293E+01 -2.47510585E+01  0.00000000E+00  1.23755293E+01
  1.23755293E+01 -2.47510585E+01  0.00000000E+00  1.23755293E+01  1.23755293E+01
 -2.47510585E+01  0.00000000E+00  1.23755293E+01  1.23755293E+01 -2.47510585E+01
  0.00000000E+00  1.23755293E+01  1.23755293E+01 -2.47510585E+01  0.00000000E+00
  1.23755293E+01  1.23755293E+01 -2.47510585E+01  0.00000000E+00  1.23755293E+01
  1.23755293E+01 -2.47510585E+01  0.00000000E+00  1.23755293E+01  1.23755293E+01
 -2.47510585E+01  0.00000000E+00  1.23755293E+01  1.23755293E+01 -2.47510585E+01
  0.00000000E+00  1.23755293E+01  1.23755293E+01 -2.47510585E+01  0.00000000E+00
  1.23755293E+01  1.23755293E+01 -2.47510585E+01  0.00000000E+00  1.23755293E+01
  1.23755293E+01 -2.47510585E+01  0.00000000E+00  1.23755293E+01  1.23755293E+01
 -2.47510585E+01  0.00000000E+00  1.23755293E+01  1.23755293E+01 -2.47510585E+01
  0.00000000E+00  1.23755293E+01  1.23755293E+01 -2.47510585E+01  0.00000000E+00
  1.23755293E+01  1.23755293E+01 -2.47510585E+01  0.00000000E+00  1.23755293E+01
  1.23755293E+01 -2.47510585E+01  0.00000000E+00  1.23755293E+01  1.23755293E+01
 -2.47510585E+01  0.00000000E+00  1.23755293E+01  1.23755293E+01 -2.47510585E+01
  0.00000000E+00  1.23755293E+01  1.23755293E+01 -2.47510585E+01  0.00000000E+00
  1.23755293E+01  1.23755293E+01 -2.47510585E+01  0.00000000E+00  1.23755293E+01
  1.23755293E+01 -2.47510585E+01  0.00000000E+00  1.23755293E+01  1.23755293E+01
 -2.47510585E+01  0.00000000E+00  1.23755293E+01  1.23755293E+01 -2.47510585E+01
  0.00000000E+00  1.23755293E+01  1.23755293E+01 -2.47510585E+01  0.00000000E+00
  1.23755293E+01  1.23755293E+01 -2.47510585E+01  0.00000000E+00  1.23755293E+01
  1.23755293E+01 -2.47510585E+01  0.00000000E+00  1.23755293E+01  1.23755293E+01
 -2.47510585E+01  0.00000000E+00  1.23755293E+01  1.23755293E+01 -2.47510585E+01
  0.00000000E+00  1.23755293E+01  1.23755293E+01 -2.47510585E+01  0.00000000E+00
  1.23755293E+01  1.23755293E+01 -2.47510585E+01  0.00000000E+00  1.23755293E+01
  1.23755293E+01 -2.47510585E+01  0.00000000E+00  1.23755293E+01  1.23755293E+01
 -2.47510585E+01  0.00000000E+00  1.23755293E+01  1.23755293E+01 -2.47510585E+01
  0.00000000E+00  1.23755293E+01  1.23755293E+01 -2.47510585E+01  0.00000000E+00
  1.23755293E+01  1.23755293E+01 -2.47510585E+01  0.00000000E+00  1.23755293E+01
  1.23755293E+01 -2.47510585E+01  0.00000000E+00  1.23755293E+01  1.23755293E+01
 -2.47510585E+01  0.00000000E+00  1.23755293E+01  1.23755293E+01 -2.47510585E+01
  0.00000000E+00  1.23755293E+01  1.23755293E+01 -2.47510585E+01  0.00000000E+00
  1.23755293E+01  1.23755293E+01 -2.47510585E+01  0.00000000E+00  1.23755293E+01
  1.23755293E+01 -2.47510585E+01  0.00000000E+00  1.23755293E+01  1.23755293E+01
 -2.47510585E+01  0.00000000E+00  1.23755293E+01  1.23755293E+01 -2.47510585E+01
  0.00000000E+00  1.23755293E+01  1.23755293E+01 -2.47510585E+01  0.00000000E+00
  1.23755293E+01  1.23755293E+01 -2.47510585E+01  0.00000000E+00  1.23755293E+01
  1.23755293E+01 -2.47510585E+01  0.00000000E+00  1.23755293E+01  1.23755293E+01
 -2.47510585E+01  0.00000000E+00  1.23755293E+01  1.23755293E+01 -2.47510585E+01
  0.00000000E+00  1.23755293E+01  1.23755293E+01 -2.47510585E+01  0.00000000E+00
  1.23755293E+01  1.23755293E+01 -2.47510585E+01  0.00000000E+00  1.23755293E+01
  1.23755293E+01 -2.47510585E+01  0.00000000E+00  1.23755293E+01  1.23755293E+01
 -2.47510585E+01  0.00000000E+00  1.23755293E+01  1.23755293E+01 -2.47510585E+01
  0.00000000E+00  1.23755293E+01  1.23755293E+01 -2.47510585E+01  0.00000000E+00
  1.23755293E+01  1.23755293E+01 -2.47510585E+01  0.00000000E+00  1.23755293E+01
  1.23755293E+01 -2.47510585E+01  0.00000000E+00  1.23755293E+01  1.23755293E+01
 -2.47510585E+01  0.00000000E+00  1.23755293E+01  1.23755293E+01 -2.47510585E+01
  0.00000000E+00  1.23755293E+01  1.23755293E+01 -2.47510585E+01  0.00000000E+00
  1.23755293E+01  1.23755293E+01 -2.47510585E+01  0.00000000E+00  1.23755293E+01
  1.23755293E+01 -2.47510585E+01  0.00000000E+00  1.23755293E+01  1.23755293E+01
 -2.47510585E+01  0.00000000E+00  1.23755293E+01  1.23755293E+01 -2.47510585E+01
  0.00000000E+00  1.23755293E+01  1.23755293E+01 -2.47510585E+01  0.00000000E+00
  1.23755293E+01  1.23755293E+01 -2.47510585E+01  0.00000000E+00  1.23755293E+01
  1.23755293E+01 -2.47510585E+01  0.00000000E+00  1.23755293E+01  1.23755293E+01
 -2.47510585E+01  0.00000000E+00  1.23755293E+01  1.23755293E+01 -2.47510585E+01
  0.00000000E+00  1.23755293E+01  1.23755293E+01 -2.47510585E+01  0.00000000E+00
  1.23755293E+01  1.23755293E+01 -2.47510585E+01  0.00000000E+00  1.23755293E+01
  1.23755293E+01 -2.47510585E+01  0.00000000E+00  1.23755293E+01  1.23755293E+01
 -2.47510585E+01  0.00000000E+00  1.23755293E+01  1.23755293E+01 -2.47510585E+01
  0.00000000E+00  1.23755293E+01  1.23755293E+01 -2.47510585E+01  0.00000000E+00
  1.23755293E+01  1.23755293E+01 -2.47510585E+01  0.00000000E+00  1.23755293E+01
  1.23755293E+01 -2.47510585E+01  0.00000000E+00  1.23755293E+01  1.23755293E+01
 -2.47510585E+01  0.00000000E+00  1.23755293E+01  1.23755293E+01 -2.47510585E+01
  0.00000000E+00  1.23755293E+01  1.23755293E+01 -2.47510585E+01  0.00000000E+00
  1.23755293E+01  1.23755293E+01 -2.47510585E+01  0.00000000E+00  1.23755293E+01
  1.23755293E+01 -2.47510585E+01  0.00000000E+00  1.23755293E+01  1.23755293E+01
 -2.47510585E+01  0.00000000E+00  1.23755293E+01  1.23755293E+01 -2.47510585E+01
  0.00000000E+00  1.23755293E+01  1.23755293E+01 -2.47510585E+01  0.00000000E+00
  1.23755293E+01  1.23755293E+01 -2.47510585E+01  0.00000000E+00  1.23755293E+01
  1.23755293E+01 -2.47510585E+01  0.00000000E+00  1.23755293E+01  1.23755293E+01
 -2.47510585E+01  0.00000000E+00  1.23755293E+01  1.23755293E+01 -2.47510585E+01
  0.00000000E+00  1.23755293E+01  1.23755293E+01 -2.47510585E+01  0.00000000E+00
  1.23755293E+01  1.23755293E+01 -2.47510585E+01  0.00000000E+00  1.23755293E+01
  1.23755293E+01 -2.47510585E+01  0.00000000E+00  1.23755293E+01  1.23755293E+01
 -2.47510585E+01  0.00000000E+00  1.23755293E+01  1.23755293E+01 -2.47510585E+01
  0.00000000E+00  1.23755293E+01  1.23755293E+01 -2.47510585E+01  0.00000000E+00
  1.23755293E+01  1.23755293E+01 -2.47510585E+01  0.00000000E+00  1.23755293E+01
  1.23755293E+01 -2.47510585E+01  0.00000000E+00  1.23755293E+01  1.23755293E+01
 -2.47510585E+01  0.00000000E+00  1.23755293E+01  1.23755293E+01 -2.47510585E+01
  0.00000000E+00  1.23755293E+01  1.23755293E+01 -2.47510585E+01  0.00000000E+00
  1.23755293E+01  1.23755293E+01 -2.47510585E+01  0.00000000E+00  1.23755293E+01
  1.23755293E+01 -2.47510585E+01  0.00000000E+00  1.23755293E+01  1.23755293E+01
 -2.47510585E+01  0.00000000E+00  1.23755293E+01  1.23755293E+01 -2.47510585E+01
  0.00000000E+00  1.23755293E+01  1.23755293E+01 -2.47510585E+01  0.00000000E+00
  1.23755293E+01  1.23755293E+01 -2.47510585E+01  0.00000000E+00  1.23755293E+01
  1.23755293E+01 -2.47510585E+01  0.00000000E+00  1.23755293E+01  1.23755293E+01
 -2.47510585E+01  0.00000000E+00  1.23755293E+01  1.23755293E+01 -2.47510585E+01
  0.00000000E+00  1.23755293E+01  1.23755293E+01 -2.47510585E+01  0.00000000E+00
  1.23755293E+01  1.23755293E+01 -2.47510585E+01  0.00000000E+00  1.23755293E+01
  1.23755293E+01 -2.47510585E+01  0.00000000E+00  1.23755293E+01  1.23755293E+01
 -2.47510585E+01  0.00000000E+00  1.23755293E+01  1.23755293E+01 -2.47510585E+01
  0.00000000E+00  1.23755293E+01  1.23755293E+01 -2.47510585E+01  0.00000000E+00
  1.23755293E+01  1.23755293E+01 -2.47510585E+01  0.00000000E+00  1.23755293E+01
  1.23755293E+01 -2.47510585E+01  0.00000000E+00  1.23755293E+01  1.23755293E+01
 -2.47510585E+01  0.00000000E+00  1.23755293E+01  1.23755293E+01 -2.47510585E+01
  0.00000000E+00  1.23755293E+01  1.23755293E+01 -2.47510585E+01  0.00000000E+00
  1.23755293E+01  1.23755293E+01 -2.47510585E+01  0.00000000E+00  1.23755293E+01
  1.23755293E+01 -2.47510585E+01  0.00000000E+00  1.23755293E+01  1.23755293E+01
 -2.47510585E+01  0.00000000E+00  1.23755293E+01  1.23755293E+01 -2.47510585E+01
  0.00000000E+00  1.23755293E+01  1.23755293E+01 -2.47510585E+01  0.00000000E+00
  1.23755293E+01  1.23755293E+01 -2.47510585E+01  0.00000000E+00  1.23755293E+01
  1.23755293E+01 -2.47510585E+01  0.00000000E+00  1.23755293E+01  1.23755293E+01
 -2.47510585E+01  0.00000000E+00  1.23755293E+01  1.23755293E+01 -2.47510585E+01
  0.00000000E+00  1.23755293E+01  1.23755293E+01 -2.47510585E+01  0.00000000E+00
  1.23755293E+01  1.23755293E+01 -2.47510585E+01  0.00000000E+00  1.23755293E+01
  1.23755293E+01 -2.47510585E+01  0.00000000E+00  1.23755293E+01  1.23755293E+01
 -2.47510585E+01  0.00000000E+00  1.23755293E+01  1.23755293E+01 -2.47510585E+01
  0.00000000E+00  1.23755293E+01  1.23755293E+01 -2.47510585E+01  0.00000000E+00
  1.23755293E+01  1.23755293E+01 -2.47510585E+01  0.00000000E+00  1.23755293E+01
  1.23755293E+01 -2.47510585E+01  0.00000000E+00  1.23755293E+01  1.23755293E+01
 -2.47510585E+01  0.00000000E+00  1.23755293E+01  1.23755293E+01 -2.47510585E+01
  0.00000000E+00  1.23755293E+01  1.23755293E+01 -2.47510585E+01  0.00000000E+00
  1.23755293E+01  1.23755293E+01 -2.47510585E+01  0.00000000E+00  1.23755293E+01
  1.23755293E+01 -2.47510585E+01  0.00000000E+00  1.23755293E+01  1.23755293E+01
 -2.47510585E+01  0.00000000E+00  1.23755293E+01  1.23755293E+01 -2.47510585E+01
  0.00000000E+00  1.23755293E+01  1.23755293E+01 -2.47510585E+01  0.00000000E+00
  1.23755293E+01  1.23755293E+01 -2.47510585E+01  0.00000000E+00  1.23755293E+01
  1.23755293E+01 -2.47510585E+01  0.00000000E+00  1.23755293E+01  1.23755293E+01
 -2.47510585E+01  0.00000000E+00  1.23755293E+01  1.23755293E+01 -2.47510585E+01
  0.00000000E+00  1.23755293E+01  1.23755293E+01 -2.47510585E+01  0.00000000E+00
  1.23755293E+01  1.23755293E+01 -2.47510585E+01  0.00000000E+00  1.23755293E+01
  1.23755293E+01 -2.47510585E+01  0.00000000E+00  1.23755293E+01  1.23755293E+01
 -2.47510585E+01  0.00000000E+00  1.23755293E+01  1.23755293E+01 -2.47510585E+01
  0.00000000E+00  1.23755293E+01  1.23755293E+01 -2.47510585E+01  0.00000000E+00
  1.23755293E+01  1.23755293E+01 -2.47510585E+01  0.00000000E+00  1.23755293E+01
  1.23755293E+01 -2.47510585E+01  0.00000000E+00  1.23755293E+01  1.23755293E+01
 -2.47510585E+01  0.00000000E+00  1.23755293E+01  1.23755293E+01 -2.47510585E+01
  0.00000000E+00  1.23755293E+01  1.23755293E+01 -2.47510585E+01  0.00000000E+00
  1.23755293E+01  1.23755293E+01 -2.47510585E+01  0.00000000E+00  1.23755293E+01
  1.23755293E+01 -2.47510585E+01  0.00000000E+00  1.23755293E+01  1.23755293E+01
 -2.47510585E+01  0.00000000E+00  1.23755293E+01  1.23755293E+01 -2.47510585E+01
  0.00000000E+00  1.23755293E+01  1.23755293E+01 -2.47510585E+01  0.00000000E+00
  1.23755293E+01  1.23755293E+01 -2.47510585E+01  0.00000000E+00  1.23755293E+01
  1.23755293E+01 -2.47510585E+01  0.00000000E+00  1.23755293E+01  1.23755293E+01
 -2.47510585E+01  0.00000000E+00  1.23755293E+01  1.23755293E+01 -2.47510585E+01
  0.00000000E+00  1.23755293E+01  1.23755293E+01 -2.47510585E+01  0.00000000E+00
  1.23755293E+01  1.23755293E+01 -2.47510585E+01  0.00000000E+00  1.23755293E+01
  1.23755293E+01 -2.47510585E+01  0.00000000E+00  1.23755293E+01  1.23755293E+01
 -2.47510585E+01  0.00000000E+00  1.23755293E+01  1.23755293E+01 -2.47510585E+01
  0.00000000E+00  1.23755293E+01  1.23755293E+01 -2.47510585E+01  0.00000000E+00
  1.23755293E+01  1.23755293E+01 -2.47510585E+01  0.00000000E+00  1.23755293E+01
  1.23755293E+01 -2.47510585E+01  0.00000000E+00  1.23755293E+01  1.23755293E+01
 -2.47510585E+01  0.00000000E+00  1.23755293E+01  1.23755293E+01 -2.47510585E+01
  0.00000000E+00  1.23755293E+01  1.23755293E+01 -2.47510585E+01  0.00000000E+00
  1.23755293E+01  1.23755293E+01 -2.47510585E+01  0.00000000E+00  1.23755293E+01
  1.23755293E+01 -2.47510585E+01  0.00000000E+00  1.23755293E+01  1.23755293E+01
 -2.47510585E+01  0.00000000E+00  1.23755293E+01  1.23755293E+01 -2.47510585E+01
  0.00000000E+00  1.23755293E+01  1.23755293E+01 -2.47510585E+01  0.00000000E+00
  1.23755293E+01  1.23755293E+01 -2.47510585E+01  0.00000000E+00  1.23755293E+01
  1.23755293E+01 -2.47510585E+01  0.00000000E+00  1.23755293E+01  1.23755293E+01
 -2.47510585E+01  0.00000000E+00  1.23755293E+01  1.23755293E+01 -2.47510585E+01
  0.00000000E+00  1.23755293E+01  1.23755293E+01 -2.47510585E+01  0.00000000E+00
  1.23755293E+01  1.23755293E+01 -2.47510585E+01  0.00000000E+00  1.23755293E+01
  1.23755293E+01 -2.47510585E+01  0.00000000E+00  1.23755293E+01  1.23755293E+01
 -2.47510585E+01  0.00000000E+00  1.23755293E+01  1.23755293E+01 -2.47510585E+01
  0.00000000E+00  1.23755293E+01  1.23755293E+01 -2.47510585E+01  0.00000000E+00
  1.23755293E+01  1.23755293E+01 -2.47510585E+01  0.00000000E+00  1.23755293E+01
  1.23755293E+01 -2.47510585E+01  0.00000000E+00  1.23755293E+01  1.23755293E+01
 -2.47510585E+01  0.00000000E+00  1.23755293E+01  1.23755293E+01 -2.47510585E+01
  0.00000000E+00  1.23755293E+01  1.23755293E+01 -2.47510585E+01  0.00000000E+00
  1.23755293E+01  1.23755293E+01 -2.47510585E+01  0.00000000E+00  1.23755293E+01
  1.23755293E+01 -2.47510585E+01  0.00000000E+00  1.23755293E+01  1.23755293E+01
 -2.47510585E+01  0.00000000E+00  1.23755293E+01  1.23755293E+01 -2.47510585E+01
  0.00000000E+00  1.23755293E+01  1.23755293E+01 -2.47510585E+01  0.00000000E+00
  1.23755293E+01  1.23755293E+01 -2.47510585E+01  0.00000000E+00  1.23755293E+01
  1.23755293E+01 -2.47510585E+01  0.00000000E+00  1.23755293E+01  1.23755293E+01
 -2.47510585E+01  0.00000000E+00  1.23755293E+01  1.23755293E+01 -2.47510585E+01
  0.00000000E+00  1.23755293E+01  1.23755293E+01 -2.47510585E+01  0.00000000E+00
  1.23755293E+01  1.23755293E+01 -2.47510585E+01  0.00000000E+00  1.23755293E+01
  1.23755293E+01 -2.47510585E+01  0.00000000E+00  1.23755293E+01  1.23755293E+01
 -2.47510585E+01  0.00000000E+00  1.23755293E+01  1.23755293E+01 -2.47510585E+01
  0.00000000E+00  1.23755293E+01  1.23755293E+01 -2.47510585E+01  0.00000000E+00
  1.23755293E+01  1.23755293E+01 -2.47510585E+01  0.00000000E+00  1.23755293E+01
  1.23755293E+01 -2.47510585E+01  0.00000000E+00  1.23755293E+01  1.23755293E+01
 -2.47510585E+01  0.00000000E+00  1.23755293E+01  1.23755293E+01 -2.47510585E+01
  0.00000000E+00  1.23755293E+01  1.23755293E+01 -2.47510585E+01  0.00000000E+00
  1.23755293E+01  1.23755293E+01 -2.47510585E+01  0.00000000E+00  1.23755293E+01
  1.23755293E+01 -2.47510585E+01  0.00000000E+00  1.23755293E+01  1.23755293E+01
 -2.47510585E+01  0.00000000E+00  1.23755293E+01  1.23755293E+01 -2.47510585E+01
  0.00000000E+00  1.23755293E+01  1.23755293E+01 -2.47510585E+01  0.00000000E+00
  1.23755293E+01  1.23755293E+01 -2.47510585E+01  0.00000000E+00  1.23755293E+01
  1.23755293E+01 -2.47510585E+01  0.00000000E+00  1.23755293E+01  1.23755293E+01
 -2.47510585E+01  0.00000000E+00  1.23755293E+01  1.23755293E+01 -2.47510585E+01
  0.00000000E+00  1.23755293E+01  1.23755293E+01 -2.47510585E+01  0.00000000E+00
  1.23755293E+01  1.23755293E+01 -2.47510585E+01  0.00000000E+00  1.23755293E+01
  1.23755293E+01 -2.47510585E+01  0.00000000E+00  1.23755293E+01  1.23755293E+01
 -2.47510585E+01  0.00000000E+00  1.23755293E+01  1.23755293E+01 -2.47510585E+01
  0.00000000E+00  1.23755293E+01  1.23755293E+01 -2.47510585E+01  0.00000000E+00
  1.23755293E+01  1.23755293E+01 -2.47510585E+01  0.00000000E+00  1.23755293E+01
  1.23755293E+01 -2.47510585E+01  0.00000000E+00  1.23755293E+01  1.23755293E+01
 -2.47510585E+01  0.00000000E+00  1.23755293E+01  1.23755293E+01 -2.47510585E+01
  0.00000000E+00  1.23755293E+01  1.23755293E+01 -2.47510585E+01  0.00000000E+00
  1.23755293E+01  1.23755293E+01 -2.47510585E+01  0.00000000E+00  1.23755293E+01
  1.23755293E+01 -2.47510585E+01  0.00000000E+00  1.23755293E+01  1.23755293E+01
 -2.47510585E+01  0.00000000E+00  1.23755293E+01  1.23755293E+01 -2.47510585E+01
  0.00000000E+00  1.23755293E+01  1.23755293E+01 -2.47510585E+01  0.00000000E+00
  1.23755293E+01  1.23755293E+01 -2.47510585E+01  0.00000000E+00  1.23755293E+01
  1.23755293E+01 -2.47510585E+01  0.00000000E+00  1.23755293E+01  1.23755293E+01
 -2.47510585E+01  0.00000000E+00  1.23755293E+01  1.23755293E+01 -2.47510585E+01
  0.00000000E+00  1.23755293E+01  1.23755293E+01 -2.47510585E+01  0.00000000E+00
  1.23755293E+01  1.23755293E+01 -2.47510585E+01  0.00000000E+00  1.23755293E+01
  1.23755293E+01 -2.47510585E+01  0.00000000E+00  1.23755293E+01  1.23755293E+01
 -2.47510585E+01  0.00000000E+00  1.23755293E+01  1.23755293E+01 -2.47510585E+01
  0.00000000E+00  1.23755293E+01  1.23755293E+01 -2.47510585E+01  0.00000000E+00
  1.23755293E+01  1.23755293E+01 -2.47510585E+01  0.00000000E+00  1.23755293E+01
  1.23755293E+01 -2.47510585E+01  0.00000000E+00  1.23755293E+01  1.23755293E+01
 -2.47510585E+01  0.00000000E+00  1.23755293E+01  1.23755293E+01 -2.47510585E+01
  0.00000000E+00  1.23755293E+01  1.23755293E+01 -2.47510585E+01  0.00000000E+00
  1.23755293E+01  1.23755293E+01 -2.47510585E+01  0.00000000E+00  1.23755293E+01
  1.23755293E+01 -2.47510585E+01  0.00000000E+00  1.23755293E+01  1.23755293E+01
 -2.47510585E+01  0.00000000E+00  1.23755293E+01  1.23755293E+01 -2.47510585E+01
  0.00000000E+00  1.23755293E+01  1.23755293E+01 -2.47510585E+01  0.00000000E+00
  1.23755293E+01  1.23755293E+01 -2.47510585E+01  0.00000000E+00  1.23755293E+01
  1.23755293E+01 -2.47510585E+01  0.00000000E+00  1.23755293E+01  1.23755293E+01
 -2.47510585E+01  0.00000000E+00  1.23755293E+01  1.23755293E+01 -2.47510585E+01
  0.00000000E+00  1.23755293E+01  1.23755293E+01 -2.47510585E+01  0.00000000E+00
  1.23755293E+01  1.23755293E+01 -2.47510585E+01  0.00000000E+00  1.23755293E+01
  1.23755293E+01 -2.47510585E+01  0.00000000E+00  1.23755293E+01  1.23755293E+01
 -2.47510585E+01  0.00000000E+00  1.23755293E+01  1.23755293E+01 -2.47510585E+01
  0.00000000E+00  1.23755293E+01  1.23755293E+01 -2.47510585E+01  0.00000000E+00
  1.23755293E+01  1.23755293E+01 -2.47510585E+01  0.00000000E+00  1.23755293E+01
  1.23755293E+01 -2.47510585E+01  0.00000000E+00  1.23755293E+01  1.23755293E+01
 -2.47510585E+01  0.00000000E+00  1.23755293E+01  1.23755293E+01 -2.47510585E+01
  0.00000000E+00  1.23755293E+01  1.23755293E+01 -2.47510585E+01  0.00000000E+00
  1.23755293E+01  1.23755293E+01 -2.47510585E+01  0.00000000E+00  1.23755293E+01
  1.23755293E+01 -2.47510585E+01  0.00000000E+00  1.23755293E+01  1.23755293E+01
 -2.47510585E+01  0.00000000E+00  1.23755293E+01  1.23755293E+01 -2.47510585E+01
  0.00000000E+00  1.23755293E+01  1.23755293E+01 -2.47510585E+01  0.00000000E+00
  1.23755293E+01  1.23755293E+01 -2.47510585E+01  0.00000000E+00  1.23755293E+01
  1.23755293E+01 -2.47510585E+01  0.00000000E+00  1.23755293E+01  1.23755293E+01
 -2.47510585E+01  0.00000000E+00  1.23755293E+01  1.23755293E+01 -2.47510585E+01
  0.00000000E+00  1.23755293E+01  1.23755293E+01 -2.47510585E+01  0.00000000E+00
  1.23755293E+01  1.23755293E+01 -2.47510585E+01  0.00000000E+00  1.23755293E+01
  1.23755293E+01 -2.47510585E+01  0.00000000E+00  1.23755293E+01  1.23755293E+01
 -2.47510585E+01  0.00000000E+00  1.23755293E+01  1.23755293E+01 -2.47510585E+01
  0.00000000E+00  1.23755293E+01  1.23755293E+01 -2.47510585E+01  0.00000000E+00
  1.23755293E+01  1.23755293E+01 -2.47510585E+01  0.00000000E+00  1.23755293E+01
  1.23755293E+01 -2.47510585E+01  0.00000000E+00  1.23755293E+01  1.23755293E+01
 -2.47510585E+01  0.00000000E+00  1.23755293E+01  1.23755293E+01 -2.47510585E+01
  0.00000000E+00  1.23755293E+01  1.23755293E+01 -2.47510585E+01  0.00000000E+00
  1.23755293E+01  1.23755293E+01 -2.47510585E+01  0.00000000E+00  1.23755293E+01
  1.23755293E+01 -2.47510585E+01  0.00000000E+00  1.23755293E+01  1.23755293E+01
 -2.47510585E+01  0.00000000E+00  1.23755293E+01  1.23755293E+01 -2.47510585E+01
  0.00000000E+00  1.23755293E+01  1.23755293E+01 -2.47510585E+01  0.00000000E+00
  1.23755293E+01  1.23755293E+01 -2.47510585E+01  0.00000000E+00  1.23755293E+01
  1.23755293E+01 -2.47510585E+01  0.00000000E+00  1.23755293E+01  1.23755293E+01
 -2.47510585E+01  0.00000000E+00  1.23755293E+01  1.23755293E+01 -2.47510585E+01
  0.00000000E+00  1.23755293E+01  1.23755293E+01 -2.47510585E+01  0.00000000E+00
  1.23755293E+01  1.23755293E+01 -2.47510585E+01  0.00000000E+00  1.23755293E+01
  1.23755293E+01 -2.47510585E+01  0.00000000E+00  1.23755293E+01  1.23755293E+01
 -2.47510585E+01  0.00000000E+00  1.23755293E+01  1.23755293E+01 -2.47510585E+01
  0.00000000E+00  1.23755293E+01  1.23755293E+01 -2.47510585E+01  0.00000000E+00
  1.23755293E+01  1.23755293E+01 -2.47510585E+01  0.00000000E+00  1.23755293E+01
  1.23755293E+01 -2.47510585E+01  0.00000000E+00  1.23755293E+01  1.23755293E+01
 -2.47510585E+01  0.00000000E+00  1.23755293E+01  1.23755293E+01 -2.47510585E+01
  0.00000000E+00  1.23755293E+01  1.23755293E+01 -2.47510585E+01  0.00000000E+00
  1.23755293E+01  1.23755293E+01 -2.47510585E+01  0.00000000E+00  1.23755293E+01
  1.23755293E+01 -2.47510585E+01  0.00000000E+00  1.23755293E+01  1.23755293E+01
 -2.47510585E+01  0.00000000E+00  1.23755293E+01  1.23755293E+01 -2.47510585E+01
  0.00000000E+00  1.23755293E+01  1.23755293E+01 -2.47510585E+01  0.00000000E+00
  1.23755293E+01  1.23755293E+01 -2.47510585E+01  0.00000000E+00  1.23755293E+01
  1.23755293E+01 -2.47510585E+01  0.00000000E+00  1.23755293E+01  1.23755293E+01
 -2.47510585E+01  0.00000000E+00  1.23755293E+01  1.23755293E+01 -2.47510585E+01
  0.00000000E+00  1.23755293E+01  1.23755293E+01 -2.47510585E+01  0.00000000E+00
  1.23755293E+01  1.23755293E+01 -2.47510585E+01  0.00000000E+00  1.23755293E+01
  1.23755293E+01 -2.47510585E+01  0.00000000E+00  1.23755293E+01  1.23755293E+01
 -2.47510585E+01  0.00000000E+00  1.23755293E+01  1.23755293E+01 -2.47510585E+01
  0.00000000E+00  1.23755293E+01  1.23755293E+01 -2.47510585E+01  0.00000000E+00
  1.23755293E+01  1.23755293E+01 -2.47510585E+01  0.00000000E+00  1.23755293E+01
  1.23755293E+01 -2.47510585E+01  0.00000000E+00  1.23755293E+01  1.23755293E+01
 -2.47510585E+01  0.00000000E+00  1.23755293E+01  1.23755293E+01 -2.47510585E+01
  0.00000000E+00  1.23755293E+01  1.23755293E+01 -2.47510585E+01  0.00000000E+00
  1.23755293E+01  1.23755293E+01 -2.47510585E+01  0.00000000E+00  1.23755293E+01
  1.23755293E+01 -2.47510585E+01  0.00000000E+00  1.23755293E+01  1.23755293E+01
 -2.47510585E+01  0.00000000E+00  1.23755293E+01  1.23755293E+01 -2.47510585E+01
  0.00000000E+00  1.23755293E+01  1.23755293E+01 -2.47510585E+01  0.00000000E+00
  1.23755293E+01  1.23755293E+01 -2.47510585E+01  0.00000000E+00  1.23755293E+01
  1.23755293E+01 -2.47510585E+01  0.00000000E+00  1.23755293E+01  1.23755293E+01
 -2.47510585E+01  0.00000000E+00  1.23755293E+01  1.23755293E+01 -2.47510585E+01
  0.00000000E+00  1.23755293E+01  1.23755293E+01 -2.47510585E+01  0.00000000E+00
  1.23755293E+01  1.23755293E+01 -2.47510585E+01  0.00000000E+00  1.23755293E+01
  1.23755293E+01 -2.47510585E+01  0.00000000E+00  1.23755293E+01  1.23755293E+01
 -2.47510585E+01  0.00000000E+00  1.23755293E+01  1.23755293E+01 -2.47510585E+01
  0.00000000E+00  1.23755293E+01  1.23755293E+01 -2.47510585E+01  0.00000000E+00
  1.23755293E+01  1.23755293E+01 -2.47510585E+01  0.00000000E+00  1.23755293E+01
  1.23755293E+01 -2.47510585E+01  0.00000000E+00  1.23755293E+01  1.23755293E+01
 -2.47510585E+01  0.00000000E+00  1.23755293E+01  1.23755293E+01 -2.47510585E+01
  0.00000000E+00  1.23755293E+01  1.23755293E+01 -2.47510585E+01  0.00000000E+00
  1.23755293E+01  1.23755293E+01 -2.47510585E+01  0.00000000E+00  1.23755293E+01
  1.23755293E+01 -2.47510585E+01  0.00000000E+00  1.23755293E+01  1.23755293E+01
 -2.47510585E+01  0.00000000E+00  1.23755293E+01  1.23755293E+01 -2.47510585E+01
  0.00000000E+00  1.23755293E+01  1.23755293E+01 -2.47510585E+01  0.00000000E+00
  1.23755293E+01  1.23755293E+01 -2.47510585E+01  0.00000000E+00  1.23755293E+01
  1.23755293E+01 -2.47510585E+01  0.00000000E+00  1.23755293E+01  1.23755293E+01
 -2.47510585E+01  0.00000000E+00  1.23755293E+01  1.23755293E+01 -2.47510585E+01
  0.00000000E+00  1.23755293E+01  1.23755293E+01 -2.47510585E+01  0.00000000E+00
  1.23755293E+01  1.23755293E+01 -2.47510585E+01  0.00000000E+00  1.23755293E+01
  1.23755293E+01 -2.47510585E+01  0.00000000E+00  1.23755293E+01  1.23755293E+01
 -2.47510585E+01  0.00000000E+00  1.23755293E+01  1.23755293E+01 -2.47510585E+01
  0.00000000E+00  1.23755293E+01  1.23755293E+01 -2.47510585E+01  0.00000000E+00
  1.23755293E+01  1.23755293E+01 -2.47510585E+01  0.00000000E+00  1.23755293E+01
  1.23755293E+01 -2.47510585E+01  0.00000000E+00  1.23755293E+01  1.23755293E+01
 -2.47510585E+01  0.00000000E+00  1.23755293E+01  1.23755293E+01 -2.47510585E+01
  0.00000000E+00  1.23755293E+01  1.23755293E+01 -2.47510585E+01  0.00000000E+00
  1.23755293E+01  1.23755293E+01 -2.47510585E+01  0.00000000E+00  1.23755293E+01
  1.23755293E+01 -2.47510585E+01  0.00000000E+00  1.23755293E+01  1.23755293E+01
 -2.47510585E+01  0.00000000E+00  1.23755293E+01  1.23755293E+01 -2.47510585E+01
  0.00000000E+00  1.23755293E+01  1.23755293E+01 -2.47510585E+01  0.00000000E+00
  1.23755293E+01  1.23755293E+01 -2.47510585E+01  0.00000000E+00  1.23755293E+01
  1.23755293E+01 -2.47510585E+01  0.00000000E+00  1.23755293E+01  1.23755293E+01
 -2.47510585E+01  0.00000000E+00  1.23755293E+01  1.23755293E+01 -2.47510585E+01
  0.00000000E+00  1.23755293E+01  1.23755293E+01 -2.47510585E+01  0.00000000E+00
  1.23755293E+01  1.23755293E+01 -2.47510585E+01  0.00000000E+00  1.23755293E+01
  1.23755293E+01 -2.47510585E+01  0.00000000E+00  1.23755293E+01  1.23755293E+01
 -2.47510585E+01  0.00000000E+00  1.23755293E+01  1.23755293E+01 -2.47510585E+01
  0.00000000E+00  1.23755293E+01  1.23755293E+01 -2.47510585E+01  0.00000000E+00
  1.23755293E+01  1.23755293E+01 -2.47510585E+01  0.00000000E+00  1.23755293E+01
  1.23755293E+01 -2.47510585E+01  0.00000000E+00  1.23755293E+01  1.23755293E+01
 -2.47510585E+01  0.00000000E+00  1.23755293E+01  1.23755293E+01 -2.47510585E+01
  0.00000000E+00  1.23755293E+01  1.23755293E+01 -2.47510585E+01  0.00000000E+00
  1.23755293E+01  1.23755293E+01 -2.47510585E+01  0.00000000E+00  1.23755293E+01
  1.23755293E+01 -2.47510585E+01  0.00000000E+00  1.23755293E+01  1.23755293E+01
 -2.47510585E+01  0.00000000E+00  1.23755293E+01  1.23755293E+01 -2.47510585E+01
  0.00000000E+00  1.23755293E+01  1.23755293E+01 -2.47510585E+01  0.00000000E+00
  1.23755293E+01  1.23755293E+01 -2.47510585E+01  0.00000000E+00  1.23755293E+01
  1.23755293E+01 -2.47510585E+01  0.00000000E+00  1.23755293E+01  1.23755293E+01
 -2.47510585E+01  0.00000000E+00  1.23755293E+01  1.23755293E+01 -2.47510585E+01
  0.00000000E+00  1.23755293E+01  1.23755293E+01 -2.47510585E+01  0.00000000E+00
  1.23755293E+01  1.23755293E+01 -2.47510585E+01  0.00000000E+00  1.23755293E+01
  1.23755293E+01 -2.47510585E+01  0.00000000E+00  1.23755293E+01  1.23755293E+01
 -2.47510585E+01  0.00000000E+00  1.23755293E+01  1.23755293E+01 -2.47510585E+01
  0.00000000E+00  1.23755293E+01  1.23755293E+01 -2.47510585E+01  0.00000000E+00
  1.23755293E+01  1.23755293E+01 -2.47510585E+01  0.00000000E+00  1.23755293E+01
  1.23755293E+01 -2.47510585E+01  0.00000000E+00  1.23755293E+01  1.23755293E+01
 -2.47510585E+01  0.00000000E+00  1.23755293E+01  1.23755293E+01 -2.47510585E+01
  0.00000000E+00  1.23755293E+01  1.23755293E+01 -2.47510585E+01  0.00000000E+00
  1.23755293E+01  1.23755293E+01 -2.47510585E+01  0.00000000E+00  1.23755293E+01
  1.23755293E+01 -2.47510585E+01  0.00000000E+00  1.23755293E+01  1.23755293E+01
 -2.47510585E+01  0.00000000E+00  1.23755293E+01  1.23755293E+01 -2.47510585E+01
  0.00000000E+00  1.23755293E+01  1.23755293E+01 -2.47510585E+01  0.00000000E+00
  1.23755293E+01  1.23755293E+01 -2.47510585E+01  0.00000000E+00  1.23755293E+01
  1.23755293E+01 -2.47510585E+01  0.00000000E+00  1.23755293E+01  1.23755293E+01
 -2.47510585E+01  0.00000000E+00  1.23755293E+01  1.23755293E+01 -2.47510585E+01
  0.00000000E+00  1.23755293E+01  1.23755293E+01 -2.47510585E+01  0.00000000E+00
  1.23755293E+01  1.23755293E+01 -2.47510585E+01  0.00000000E+00  1.23755293E+01
  1.23755293E+01 -2.47510585E+01  0.00000000E+00  1.23755293E+01  1.23755293E+01
 -2.47510585E+01  0.00000000E+00  1.23755293E+01  1.23755293E+01 -2.47510585E+01
  0.00000000E+00  1.23755293E+01  1.23755293E+01 -2.47510585E+01  0.00000000E+00
  1.23755293E+01  1.23755293E+01 -2.47510585E+01  0.00000000E+00  1.23755293E+01
  1.23755293E+01 -2.47510585E+01  0.00000000E+00  1.23755293E+01  1.23755293E+01
 -2.47510585E+01  0.00000000E+00  1.23755293E+01  1.23755293E+01 -2.47510585E+01
  0.00000000E+00  1.23755293E+01  1.23755293E+01 -2.47510585E+01  0.00000000E+00
  1.23755293E+01  1.23755293E+01 -2.47510585E+01  0.00000000E+00  1.23755293E+01
  1.23755293E+01 -2.47510585E+01  0.00000000E+00  1.23755293E+01  1.23755293E+01
 -2.47510585E+01  0.00000000E+00  1.23755293E+01  1.23755293E+01 -2.47510585E+01
  0.00000000E+00  1.23755293E+01  1.23755293E+01 -2.47510585E+01  0.00000000E+00
  1.23755293E+01  1.23755293E+01 -2.47510585E+01  0.00000000E+00  1.23755293E+01
  1.23755293E+01 -2.47510585E+01  0.00000000E+00  1.23755293E+01  1.23755293E+01
 -2.47510585E+01  0.00000000E+00  1.23755293E+01  1.23755293E+01 -2.47510585E+01
  0.00000000E+00  1.23755293E+01  1.23755293E+01 -2.47510585E+01  0.00000000E+00
  1.23755293E+01  1.23755293E+01 -2.47510585E+01  0.00000000E+00  1.23755293E+01
  1.23755293E+01 -2.47510585E+01  0.00000000E+00  1.23755293E+01  1.23755293E+01
 -2.47510585E+01  0.00000000E+00  1.23755293E+01  1.23755293E+01 -2.47510585E+01
  0.00000000E+00  1.23755293E+01  1.23755293E+01 -2.47510585E+01  0.00000000E+00
  1.23755293E+01  1.23755293E+01 -2.47510585E+01  0.00000000E+00  1.23755293E+01
  1.23755293E+01 -2.47510585E+01  0.00000000E+00  1.23755293E+01  1.23755293E+01
 -2.47510585E+01  0.00000000E+00  1.23755293E+01  1.23755293E+01 -2.47510585E+01
  0.00000000E+00  1.23755293E+01  1.23755293E+01 -2.47510585E+01  0.00000000E+00
  1.23755293E+01  1.23755293E+01 -2.47510585E+01  0.00000000E+00  1.23755293E+01
  1.23755293E+01 -2.47510585E+01  0.00000000E+00  1.23755293E+01  1.23755293E+01
 -2.47510585E+01  0.00000000E+00  1.23755293E+01  1.23755293E+01 -2.47510585E+01
  0.00000000E+00  1.23755293E+01  1.23755293E+01 -2.47510585E+01  0.00000000E+00
  1.23755293E+01  1.23755293E+01 -2.47510585E+01  0.00000000E+00  1.23755293E+01
  1.23755293E+01 -2.47510585E+01  0.00000000E+00  1.23755293E+01  1.23755293E+01
 -2.47510585E+01  0.00000000E+00  1.23755293E+01  1.23755293E+01 -2.47510585E+01
  0.00000000E+00  1.23755293E+01  1.23755293E+01 -2.47510585E+01  0.00000000E+00
  1.23755293E+01  1.23755293E+01 -2.47510585E+01  0.00000000E+00  1.23755293E+01
  1.23755293E+01 -2.47510585E+01  0.00000000E+00  1.23755293E+01  1.23755293E+01
 -2.47510585E+01  0.00000000E+00  1.23755293E+01  1.23755293E+01 -2.47510585E+01
  0.00000000E+00  1.23755293E+01  1.23755293E+01 -2.47510585E+01  0.00000000E+00
  1.23755293E+01  1.23755293E+01 -2.47510585E+01  0.00000000E+00  1.23755293E+01
  1.23755293E+01 -2.47510585E+01  0.00000000E+00  1.23755293E+01  1.23755293E+01
 -2.47510585E+01  0.00000000E+00  1.23755293E+01  1.23755293E+01 -2.47510585E+01
  0.00000000E+00  1.23755293E+01  1.23755293E+01 -2.47510585E+01  0.00000000E+00
  1.23755293E+01  1.23755293E+01 -2.47510585E+01  0.00000000E+00  1.23755293E+01
  1.23755293E+01 -2.47510585E+01  0.00000000E+00  1.23755293E+01  1.23755293E+01
 -2.47510585E+01  0.00000000E+00  1.23755293E+01  1.23755293E+01 -2.47510585E+01
  0.00000000E+00  1.23755293E+01  1.23755293E+01 -2.47510585E+01  0.00000000E+00
  1.23755293E+01  1.23755293E+01 -2.47510585E+01  0.00000000E+00  1.23755293E+01
  1.23755293E+01 -2.47510585E+01  0.00000000E+00  1.23755293E+01  1.23755293E+01
 -2.47510585E+01  0.00000000E+00  1.23755293E+01  1.23755293E+01 -2.47510585E+01
  0.00000000E+00  1.23755293E+01  1.23755293E+01 -2.47510585E+01  0.00000000E+00
  1.23755293E+01  1.23755293E+01 -2.47510585E+01  0.00000000E+00  1.23755293E+01
  1.23755293E+01 -2.47510585E+01  0.00000000E+00  1.23755293E+01  1.23755293E+01
 -2.47510585E+01  0.00000000E+00  1.23755293E+01  1.23755293E+01 -2.47510585E+01
  0.00000000E+00  1.23755293E+01  1.23755293E+01 -2.47510585E+01  0.00000000E+00
  1.23755293E+01  1.23755293E+01 -2.47510585E+01  0.00000000E+00  1.23755293E+01
  1.23755293E+01 -2.47510585E+01  0.00000000E+00  1.23755293E+01  1.23755293E+01
 -2.47510585E+01  0.00000000E+00  1.23755293E+01  1.23755293E+01 -2.47510585E+01
  0.00000000E+00  1.23755293E+01  1.23755293E+01 -2.47510585E+01  0.00000000E+00
  1.23755293E+01  1.23755293E+01 -2.47510585E+01  0.00000000E+00  1.23755293E+01
  1.23755293E+01 -2.47510585E+01  0.00000000E+00  1.23755293E+01  1.23755293E+01
 -2.47510585E+01  0.00000000E+00  1.23755293E+01  1.23755293E+01 -2.47510585E+01
  0.00000000E+00  1.23755293E+01  1.23755293E+01 -2.47510585E+01  0.00000000E+00
  1.23755293E+01  1.23755293E+01 -2.47510585E+01  0.00000000E+00  1.23755293E+01
  1.23755293E+01 -2.47510585E+01  0.00000000E+00  1.23755293E+01  1.23755293E+01
 -2.47510585E+01  0.00000000E+00  1.23755293E+01  1.23755293E+01 -2.47510585E+01
  0.00000000E+00  1.23755293E+01  1.23755293E+01 -2.47510585E+01  0.00000000E+00
  1.23755293E+01  1.23755293E+01 -2.47510585E+01  0.00000000E+00  1.23755293E+01
  1.23755293E+01 -2.47510585E+01  0.00000000E+00  1.23755293E+01  1.23755293E+01
 -2.47510585E+01  0.00000000E+00  1.23755293E+01  1.23755293E+01 -2.47510585E+01
  0.00000000E+00  1.23755293E+01  1.23755293E+01 -2.47510585E+01  0.00000000E+00
  1.23755293E+01  1.23755293E+01 -2.47510585E+01  0.00000000E+00  1.23755293E+01
  1.23755293E+01 -2.47510585E+01  0.00000000E+00  1.23755293E+01  1.23755293E+01
 -2.47510585E+01  0.00000000E+00  1.23755293E+01  1.23755293E+01 -2.47510585E+01
  0.00000000E+00  1.23755293E+01  1.23755293E+01 -2.47510585E+01  0.00000000E+00
  1.23755293E+01  1.23755293E+01 -2.47510585E+01  0.00000000E+00  1.23755293E+01
  1.23755293E+01 -2.47510585E+01  0.00000000E+00  1.23755293E+01  1.23755293E+01
 -2.47510585E+01  0.00000000E+00  1.23755293E+01  1.23755293E+01 -2.47510585E+01
  0.00000000E+00  1.23755293E+01  1.23755293E+01 -2.47510585E+01  0.00000000E+00
  1.23755293E+01  1.23755293E+01 -2.47510585E+01  0.00000000E+00  1.23755293E+01
  1.23755293E+01 -2.47510585E+01  0.00000000E+00  1.23755293E+01  1.23755293E+01
 -2.47510585E+01  0.00000000E+00  1.23755293E+01  1.23755293E+01 -2.47510585E+01
  0.00000000E+00  1.23755293E+01  1.23755293E+01 -2.47510585E+01  0.00000000E+00
  1.23755293E+01  1.23755293E+01 -2.47510585E+01  0.00000000E+00  1.23755293E+01
  1.23755293E+01 -2.47510585E+01  0.00000000E+00  1.23755293E+01  1.23755293E+01
 -2.47510585E+01  0.00000000E+00  1.23755293E+01  1.23755293E+01 -2.47510585E+01
  0.00000000E+00  1.23755293E+01  1.23755293E+01 -2.47510585E+01  0.00000000E+00
  1.23755293E+01  1.23755293E+01 -2.47510585E+01  0.00000000E+00  1.23755293E+01
  1.23755293E+01 -2.47510585E+01  0.00000000E+00  1.23755293E+01  1.23755293E+01
 -2.47510585E+01  0.00000000E+00  1.23755293E+01  1.23755293E+01 -2.47510585E+01
  0.00000000E+00  1.23755293E+01  1.23755293E+01 -2.47510585E+01  0.00000000E+00
  1.23755293E+01  1.23755293E+01 -2.47510585E+01  0.00000000E+00  1.23755293E+01
  1.23755293E+01 -2.47510585E+01  0.00000000E+00  1.23755293E+01  1.23755293E+01
 -2.47510585E+01  0.00000000E+00  1.23755293E+01  1.23755293E+01 -2.47510585E+01
  0.00000000E+00  1.23755293E+01  1.23755293E+01 -2.47510585E+01  0.00000000E+00
  1.23755293E+01  1.23755293E+01 -2.47510585E+01  0.00000000E+00  1.23755293E+01
  1.23755293E+01 -2.47510585E+01  0.00000000E+00  1.23755293E+01  1.23755293E+01
 -2.47510585E+01  0.00000000E+00  1.23755293E+01  1.23755293E+01 -2.47510585E+01
  0.00000000E+00  1.23755293E+01  1.23755293E+01 -2.47510585E+01  0.00000000E+00
  1.23755293E+01  1.23755293E+01 -2.47510585E+01  0.00000000E+00  1.23755293E+01
  1.23755293E+01 -2.47510585E+01  0.00000000E+00  1.23755293E+01  1.23755293E+01
 -2.47510585E+01  0.00000000E+00  1.23755293E+01  1.23755293E+01 -2.47510585E+01
  0.00000000E+00  1.23755293E+01  1.23755293E+01 -2.47510585E+01  0.00000000E+00
  1.23755293E+01  1.23755293E+01 -2.47510585E+01  0.00000000E+00  1.23755293E+01
  1.23755293E+01 -2.47510585E+01  0.00000000E+00  1.23755293E+01  1.23755293E+01
 -2.47510585E+01  0.00000000E+00  1.23755293E+01  1.23755293E+01 -2.47510585E+01
  0.00000000E+00  1.23755293E+01  1.23755293E+01 -2.47510585E+01  0.00000000E+00
  1.23755293E+01  1.23755293E+01 -2.47510585E+01  0.00000000E+00  1.23755293E+01
  1.23755293E+01 -2.47510585E+01  0.00000000E+00  1.23755293E+01  1.23755293E+01
 -2.47510585E+01  0.00000000E+00  1.23755293E+01  1.23755293E+01 -2.47510585E+01
  0.00000000E+00  1.23755293E+01  1.23755293E+01 -2.47510585E+01  0.00000000E+00
  1.23755293E+01  1.23755293E+01 -2.47510585E+01  0.00000000E+00  1.23755293E+01
  1.23755293E+01 -2.47510585E+01  0.00000000E+00  1.23755293E+01  1.23755293E+01
 -2.47510585E+01  0.00000000E+00  1.23755293E+01  1.23755293E+01 -2.47510585E+01
  0.00000000E+00  1.23755293E+01  1.23755293E+01 -2.47510585E+01  0.00000000E+00
  1.23755293E+01  1.23755293E+01 -2.47510585E+01  0.00000000E+00  1.23755293E+01
  1.23755293E+01 -2.47510585E+01  0.00000000E+00  1.23755293E+01  1.23755293E+01
 -2.47510585E+01  0.00000000E+00  1.23755293E+01  1.23755293E+01 -2.47510585E+01
  0.00000000E+00  1.23755293E+01  1.23755293E+01 -2.47510585E+01  0.00000000E+00
  1.23755293E+01  1.23755293E+01 -2.47510585E+01  0.00000000E+00  1.23755293E+01
  1.23755293E+01 -2.47510585E+01  0.00000000E+00  1.23755293E+01  1.23755293E+01
 -2.47510585E+01  0.00000000E+00  1.23755293E+01  1.23755293E+01 -2.47510585E+01
  0.00000000E+00  1.23755293E+01  1.23755293E+01 -2.47510585E+01  0.00000000E+00
  1.23755293E+01  1.23755293E+01 -2.47510585E+01  0.00000000E+00  1.23755293E+01
  1.23755293E+01 -2.47510585E+01  0.00000000E+00  1.23755293E+01  1.23755293E+01
 -2.47510585E+01  0.00000000E+00  1.23755293E+01  1.23755293E+01 -2.47510585E+01
  0.00000000E+00  1.23755293E+01  1.23755293E+01 -2.47510585E+01  0.00000000E+00
  1.23755293E+01  1.23755293E+01 -2.47510585E+01  0.00000000E+00  1.23755293E+01
  1.23755293E+01 -2.47510585E+01  0.00000000E+00  1.23755293E+01  1.23755293E+01
 -2.47510585E+01  0.00000000E+00  1.23755293E+01  1.23755293E+01 -2.47510585E+01
  0.00000000E+00  1.23755293E+01  1.23755293E+01 -2.47510585E+01  0.00000000E+00
  1.23755293E+01  1.23755293E+01 -2.47510585E+01  0.00000000E+00  1.23755293E+01
  1.23755293E+01 -2.47510585E+01  0.00000000E+00  1.23755293E+01  1.23755293E+01
 -2.47510585E+01  0.00000000E+00  1.23755293E+01  1.23755293E+01 -2.47510585E+01
  0.00000000E+00  1.23755293E+01  1.23755293E+01 -2.47510585E+01  0.00000000E+00
  1.23755293E+01  1.23755293E+01 -2.47510585E+01  0.00000000E+00  1.23755293E+01
  1.23755293E+01 -2.47510585E+01  0.00000000E+00  1.23755293E+01  1.23755293E+01
 -2.47510585E+01  0.00000000E+00  1.23755293E+01  1.23755293E+01 -2.47510585E+01
  0.00000000E+00  1.23755293E+01  1.23755293E+01 -2.47510585E+01  0.00000000E+00
  1.23755293E+01  1.23755293E+01 -2.47510585E+01  0.00000000E+00  1.23755293E+01
  1.23755293E+01 -2.47510585E+01  0.00000000E+00  1.23755293E+01  1.23755293E+01
 -2.47510585E+01  0.00000000E+00  1.23755293E+01  1.23755293E+01 -2.47510585E+01
  0.00000000E+00  1.23755293E+01  1.23755293E+01 -2.47510585E+01  0.00000000E+00
  1.23755293E+01  1.23755293E+01 -2.47510585E+01  0.00000000E+00  1.23755293E+01
  1.23755293E+01 -2.47510585E+01  0.00000000E+00  1.23755293E+01  1.23755293E+01
 -2.47510585E+01  0.00000000E+00  1.23755293E+01  1.23755293E+01 -2.47510585E+01
  0.00000000E+00  1.23755293E+01  1.23755293E+01 -2.47510585E+01  0.00000000E+00
  1.23755293E+01  1.23755293E+01 -2.47510585E+01  0.00000000E+00  1.23755293E+01
  1.23755293E+01 -2.47510585E+01  0.00000000E+00  1.23755293E+01  1.23755293E+01
 -2.47510585E+01  0.00000000E+00  1.23755293E+01  1.23755293E+01 -2.47510585E+01
  0.00000000E+00  1.23755293E+01  1.23755293E+01 -2.47510585E+01  0.00000000E+00
  1.23755293E+01  1.23755293E+01 -2.47510585E+01  0.00000000E+00  1.23755293E+01
  1.23755293E+01 -2.47510585E+01  0.00000000E+00  1.23755293E+01  1.23755293E+01
 -2.47510585E+01  0.00000000E+00  1.23755293E+01  1.23755293E+01 -2.47510585E+01
  0.00000000E+00  1.23755293E+01  1.23755293E+01 -2.47510585E+01  0.00000000E+00
  1.23755293E+01  1.23755293E+01 -2.47510585E+01  0.00000000E+00  1.23755293E+01
  1.23755293E+01 -2.47510585E+01  0.00000000E+00  1.23755293E+01  1.23755293E+01
 -2.47510585E+01  0.00000000E+00  1.23755293E+01  1.23755293E+01 -2.47510585E+01
  0.00000000E+00  1.23755293E+01  1.23755293E+01 -2.47510585E+01  0.00000000E+00
  1.23755293E+01  1.23755293E+01 -2.47510585E+01  0.00000000E+00  1.23755293E+01
  1.23755293E+01 -2.47510585E+01  0.00000000E+00  1.23755293E+01  1.23755293E+01
 -2.47510585E+01  0.00000000E+00  1.23755293E+01  1.23755293E+01 -2.47510585E+01
  0.00000000E+00  1.23755293E+01  1.23755293E+01 -2.47510585E+01  0.00000000E+00
  1.23755293E+01  1.23755293E+01 -2.47510585E+01  0.00000000E+00  1.23755293E+01
  1.23755293E+01 -2.47510585E+01  0.00000000E+00  1.23755293E+01  1.23755293E+01
 -2.47510585E+01  0.00000000E+00  1.23755293E+01  1.23755293E+01 -2.47510585E+01
  0.00000000E+00  1.23755293E+01  1.23755293E+01 -2.47510585E+01  0.00000000E+00
  1.23755293E+01  1.23755293E+01 -2.47510585E+01  0.00000000E+00  1.23755293E+01
  1.23755293E+01 -2.47510585E+01  0.00000000E+00  1.23755293E+01  1.23755293E+01
 -2.47510585E+01  0.00000000E+00  1.23755293E+01  1.23755293E+01 -2.47510585E+01
  0.00000000E+00  1.23755293E+01  1.23755293E+01 -2.47510585E+01  0.00000000E+00
  1.23755293E+01  1.23755293E+01 -2.47510585E+01  0.00000000E+00  1.23755293E+01
  1.23755293E+01 -2.47510585E+01  0.00000000E+00  1.23755293E+01  1.23755293E+01
 -2.47510585E+01  0.00000000E+00  1.23755293E+01  1.23755293E+01 -2.47510585E+01
  0.00000000E+00  1.23755293E+01  1.23755293E+01 -2.47510585E+01  0.00000000E+00
  1.23755293E+01  1.23755293E+01 -2.47510585E+01  0.00000000E+00  1.23755293E+01
  1.23755293E+01 -2.47510585E+01  0.00000000E+00  1.23755293E+01  1.23755293E+01
 -2.47510585E+01  0.00000000E+00  1.23755293E+01  1.23755293E+01 -2.47510585E+01
  0.00000000E+00  1.23755293E+01  1.23755293E+01 -2.47510585E+01  0.00000000E+00
  1.23755293E+01  1.23755293E+01 -2.47510585E+01  0.00000000E+00  1.23755293E+01
  1.23755293E+01 -2.47510585E+01  0.00000000E+00  1.23755293E+01  1.23755293E+01
 -2.47510585E+01  0.00000000E+00  1.23755293E+01  1.23755293E+01 -2.47510585E+01
  0.00000000E+00  1.23755293E+01  1.23755293E+01 -2.47510585E+01  0.00000000E+00
  1.23755293E+01  1.23755293E+01 -2.47510585E+01  0.00000000E+00  1.23755293E+01
  1.23755293E+01 -2.47510585E+01  0.00000000E+00  1.23755293E+01  1.23755293E+01
 -2.47510585E+01  0.00000000E+00  1.23755293E+01  1.23755293E+01 -2.47510585E+01
  0.00000000E+00  1.23755293E+01  1.23755293E+01 -2.47510585E+01  0.00000000E+00
  1.23755293E+01  1.23755293E+01 -2.47510585E+01  0.00000000E+00  1.23755293E+01
  1.23755293E+01 -2.47510585E+01  0.00000000E+00  1.23755293E+01  1.23755293E+01
 -2.47510585E+01  0.00000000E+00  1.23755293E+01  1.23755293E+01 -2.47510585E+01
  0.00000000E+00  1.23755293E+01  1.23755293E+01 -2.47510585E+01  0.00000000E+00
  1.23755293E+01  1.23755293E+01 -2.47510585E+01  0.00000000E+00  1.23755293E+01
  1.23755293E+01 -2.47510585E+01  0.00000000E+00  1.23755293E+01  1.23755293E+01
 -2.47510585E+01  0.00000000E+00  1.23755293E+01  1.23755293E+01 -2.47510585E+01
  0.00000000E+00  1.23755293E+01  1.23755293E+01 -2.47510585E+01  0.00000000E+00
  1.23755293E+01  1.23755293E+01 -2.47510585E+01  0.00000000E+00  1.23755293E+01
  1.23755293E+01 -2.47510585E+01  0.00000000E+00  1.23755293E+01  1.23755293E+01
 -2.47510585E+01  0.00000000E+00  1.23755293E+01  1.23755293E+01 -2.47510585E+01
  0.00000000E+00  1.23755293E+01  1.23755293E+01 -2.47510585E+01  0.00000000E+00
  1.23755293E+01  1.23755293E+01 -2.47510585E+01  0.00000000E+00  1.23755293E+01
  1.23755293E+01 -2.47510585E+01  0.00000000E+00  1.23755293E+01  1.23755293E+01
 -2.47510585E+01  0.00000000E+00  1.23755293E+01  1.23755293E+01 -2.47510585E+01
  0.00000000E+00  1.23755293E+01  1.23755293E+01 -2.47510585E+01  0.00000000E+00
  1.23755293E+01  1.23755293E+01 -2.47510585E+01  0.00000000E+00  1.23755293E+01
  1.23755293E+01 -2.47510585E+01  0.00000000E+00  1.23755293E+01  1.23755293E+01
 -2.47510585E+01  0.00000000E+00  1.23755293E+01  1.23755293E+01 -2.47510585E+01
  0.00000000E+00  1.23755293E+01  1.23755293E+01 -2.47510585E+01  0.00000000E+00
  1.23755293E+01  1.23755293E+01 -2.47510585E+01  0.00000000E+00  1.23755293E+01
  1.23755293E+01 -2.47510585E+01  0.00000000E+00  1.23755293E+01  1.23755293E+01
 -2.47510585E+01  0.00000000E+00  1.23755293E+01  1.23755293E+01 -2.47510585E+01
  0.00000000E+00  1.23755293E+01  1.23755293E+01 -2.47510585E+01  0.00000000E+00
  1.23755293E+01  1.23755293E+01 -2.47510585E+01  0.00000000E+00  1.23755293E+01
  1.23755293E+01 -2.47510585E+01  0.00000000E+00  1.23755293E+01  1.23755293E+01
 -2.47510585E+01  0.00000000E+00  1.23755293E+01  1.23755293E+01 -2.47510585E+01
  0.00000000E+00  1.23755293E+01  1.23755293E+01 -2.47510585E+01  0.00000000E+00
  1.23755293E+01  1.23755293E+01 -2.47510585E+01  0.00000000E+00  1.23755293E+01
  1.23755293E+01 -2.47510585E+01  0.00000000E+00  1.23755293E+01  1.23755293E+01
 -2.47510585E+01  0.00000000E+00  1.23755293E+01  1.23755293E+01 -2.47510585E+01
  0.00000000E+00  1.23755293E+01  1.23755293E+01 -2.47510585E+01  0.00000000E+00
  1.23755293E+01  1.23755293E+01 -2.47510585E+01  0.00000000E+00  1.23755293E+01
  1.23755293E+01 -2.47510585E+01  0.00000000E+00  1.23755293E+01  1.23755293E+01
 -2.47510585E+01  0.00000000E+00  1.23755293E+01  1.23755293E+01 -2.47510585E+01
  0.00000000E+00  1.23755293E+01  1.23755293E+01 -2.47510585E+01  0.00000000E+00
  1.23755293E+01  1.23755293E+01 -2.47510585E+01  0.00000000E+00  1.23755293E+01
  1.23755293E+01 -2.47510585E+01  0.00000000E+00  1.23755293E+01  1.23755293E+01
 -2.47510585E+01  0.00000000E+00  1.23755293E+01  1.23755293E+01 -2.47510585E+01
  0.00000000E+00  1.23755293E+01  1.23755293E+01 -2.47510585E+01  0.00000000E+00
  1.23755293E+01  1.23755293E+01 -2.47510585E+01  0.00000000E+00  1.23755293E+01
  1.23755293E+01 -2.47510585E+01  0.00000000E+00  1.23755293E+01  1.23755293E+01
 -2.47510585E+01  0.00000000E+00  1.23755293E+01  1.23755293E+01 -2.47510585E+01
  0.00000000E+00  1.23755293E+01  1.23755293E+01 -2.47510585E+01  0.00000000E+00
  1.23755293E+01  1.23755293E+01 -2.47510585E+01  0.00000000E+00  1.23755293E+01
  1.23755293E+01 -2.47510585E+01  0.00000000E+00  1.23755293E+01  1.23755293E+01
 -2.47510585E+01  0.00000000E+00  1.23755293E+01  1.23755293E+01 -2.47510585E+01
  0.00000000E+00  1.23755293E+01  1.23755293E+01 -2.47510585E+01  0.00000000E+00
  1.23755293E+01  1.23755293E+01 -2.47510585E+01  0.00000000E+00  1.23755293E+01
  1.23755293E+01 -2.47510585E+01  0.00000000E+00  1.23755293E+01  1.23755293E+01
 -2.47510585E+01  0.00000000E+00  1.23755293E+01  1.23755293E+01 -2.47510585E+01
  0.00000000E+00  1.23755293E+01  1.23755293E+01 -2.47510585E+01  0.00000000E+00
  1.23755293E+01  1.23755293E+01 -2.47510585E+01  0.00000000E+00  1.23755293E+01
  1.23755293E+01 -2.47510585E+01  0.00000000E+00  1.23755293E+01  1.23755293E+01
 -2.47510585E+01  0.00000000E+00  1.23755293E+01  1.23755293E+01 -2.47510585E+01
  0.00000000E+00  1.23755293E+01  1.23755293E+01 -2.47510585E+01  0.00000000E+00
  1.23755293E+01  1.23755293E+01 -2.47510585E+01  0.00000000E+00  1.23755293E+01
  1.23755293E+01 -2.47510585E+01  0.00000000E+00  1.23755293E+01  1.23755293E+01
 -2.47510585E+01  0.00000000E+00  1.23755293E+01  1.23755293E+01 -2.47510585E+01
  0.00000000E+00  1.23755293E+01  1.23755293E+01 -2.47510585E+01  0.00000000E+00
  1.23755293E+01  1.23755293E+01 -2.47510585E+01  0.00000000E+00  1.23755293E+01
  1.23755293E+01 -2.47510585E+01  0.00000000E+00  1.23755293E+01  1.23755293E+01
 -2.47510585E+01  0.00000000E+00  1.23755293E+01  1.23755293E+01 -2.47510585E+01
  0.00000000E+00  1.23755293E+01  1.23755293E+01 -2.47510585E+01  0.00000000E+00
  1.23755293E+01  1.23755293E+01 -2.47510585E+01  0.00000000E+00  1.23755293E+01
  1.23755293E+01 -2.47510585E+01  0.00000000E+00  1.23755293E+01  1.23755293E+01
 -2.47510585E+01  0.00000000E+00  1.23755293E+01  1.23755293E+01 -2.47510585E+01
  0.00000000E+00  1.23755293E+01  1.23755293E+01 -2.47510585E+01  0.00000000E+00
  1.23755293E+01  1.23755293E+01 -2.47510585E+01  0.00000000E+00  1.23755293E+01
  1.23755293E+01 -2.47510585E+01  0.00000000E+00  1.23755293E+01  1.23755293E+01
 -2.47510585E+01  0.00000000E+00  1.23755293E+01  1.23755293E+01 -2.47510585E+01
  0.00000000E+00  1.23755293E+01  1.23755293E+01 -2.47510585E+01  0.00000000E+00
  1.23755293E+01  1.23755293E+01 -2.47510585E+01  0.00000000E+00  1.23755293E+01
  1.23755293E+01 -2.47510585E+01  0.00000000E+00  1.23755293E+01  1.23755293E+01
 -2.47510585E+01  0.00000000E+00  1.23755293E+01  1.23755293E+01 -2.47510585E+01
  0.00000000E+00  1.23755293E+01  1.23755293E+01 -2.47510585E+01  0.00000000E+00
  1.23755293E+01  1.23755293E+01 -2.47510585E+01  0.00000000E+00  1.23755293E+01
  1.23755293E+01 -2.47510585E+01  0.00000000E+00  1.23755293E+01  1.23755293E+01
 -2.47510585E+01  0.00000000E+00  1.23755293E+01  1.23755293E+01 -2.47510585E+01
  0.00000000E+00  1.23755293E+01  1.23755293E+01 -2.47510585E+01  0.00000000E+00
  1.23755293E+01  1.23755293E+01 -2.47510585E+01  0.00000000E+00  1.23755293E+01
  1.23755293E+01 -2.47510585E+01  0.00000000E+00  1.23755293E+01  1.23755293E+01
 -2.47510585E+01  0.00000000E+00  1.23755293E+01  1.23755293E+01 -2.47510585E+01
  0.00000000E+00  1.23755293E+01  1.23755293E+01 -2.47510585E+01  0.00000000E+00
  1.23755293E+01  1.23755293E+01 -2.47510585E+01  0.00000000E+00  1.23755293E+01
  1.23755293E+01 -2.47510585E+01  0.00000000E+00  1.23755293E+01  1.23755293E+01
 -2.47510585E+01  0.00000000E+00  1.23755293E+01  1.23755293E+01 -2.47510585E+01
  0.00000000E+00  1.23755293E+01  1.23755293E+01 -2.47510585E+01  0.00000000E+00
  1.23755293E+01  1.23755293E+01 -2.47510585E+01  0.00000000E+00  1.23755293E+01
  1.23755293E+01 -2.47510585E+01  0.00000000E+00  1.23755293E+01  1.23755293E+01
 -2.47510585E+01  0.00000000E+00  1.23755293E+01  1.23755293E+01 -2.47510585E+01
  0.00000000E+00  1.23755293E+01  1.23755293E+01 -2.47510585E+01  0.00000000E+00
  1.23755293E+01  1.23755293E+01 -2.47510585E+01  0.00000000E+00  1.23755293E+01
  1.23755293E+01 -2.47510585E+01  0.00000000E+00  1.23755293E+01  1.23755293E+01
 -2.47510585E+01  0.00000000E+00  1.23755293E+01  1.23755293E+01 -2.47510585E+01
  0.00000000E+00  1.23755293E+01  1.23755293E+01 -2.47510585E+01  0.00000000E+00
  1.23755293E+01  1.23755293E+01 -2.47510585E+01  0.00000000E+00  1.23755293E+01
  1.23755293E+01 -2.47510585E+01  0.00000000E+00  1.23755293E+01  1.23755293E+01
 -2.47510585E+01  0.00000000E+00  1.23755293E+01  1.23755293E+01 -2.47510585E+01
  0.00000000E+00  1.23755293E+01  1.23755293E+01 -2.47510585E+01  0.00000000E+00
  1.23755293E+01  1.23755293E+01 -2.47510585E+01  0.00000000E+00  1.23755293E+01
  1.23755293E+01 -2.47510585E+01  0.00000000E+00  1.23755293E+01  1.23755293E+01
 -2.47510585E+01  0.00000000E+00  1.23755293E+01  1.23755293E+01 -2.47510585E+01
  0.00000000E+00  1.23755293E+01  1.23755293E+01 -2.47510585E+01  0.00000000E+00
  1.23755293E+01  1.23755293E+01 -2.47510585E+01  0.00000000E+00  1.23755293E+01
  1.23755293E+01 -2.47510585E+01  0.00000000E+00  1.23755293E+01  1.23755293E+01
 -2.47510585E+01  0.00000000E+00  1.23755293E+01  1.23755293E+01 -2.47510585E+01
  0.00000000E+00  1.23755293E+01  1.23755293E+01 -2.47510585E+01  0.00000000E+00
  1.23755293E+01  1.23755293E+01 -2.47510585E+01  0.00000000E+00  1.23755293E+01
  1.23755293E+01 -2.47510585E+01  0.00000000E+00  1.23755293E+01  1.23755293E+01
 -2.47510585E+01  0.00000000E+00  1.23755293E+01  1.23755293E+01 -2.47510585E+01
  0.00000000E+00  1.23755293E+01  1.23755293E+01 -2.47510585E+01  0.00000000E+00
  1.23755293E+01  1.23755293E+01 -2.47510585E+01  0.00000000E+00  1.23755293E+01
  1.23755293E+01 -2.47510585E+01  0.00000000E+00  1.23755293E+01  1.23755293E+01
 -2.47510585E+01  0.00000000E+00  1.23755293E+01  1.23755293E+01 -2.47510585E+01
  0.00000000E+00  1.23755293E+01  1.23755293E+01 -2.47510585E+01  0.00000000E+00
  1.23755293E+01  1.23755293E+01 -2.47510585E+01  0.00000000E+00  1.23755293E+01
  1.23755293E+01 -2.47510585E+01  0.00000000E+00  1.23755293E+01  1.23755293E+01
 -2.47510585E+01  0.00000000E+00  1.23755293E+01  1.23755293E+01 -2.47510585E+01
  0.00000000E+00  1.23755293E+01  1.23755293E+01 -2.47510585E+01  0.00000000E+00
  1.23755293E+01  1.23755293E+01 -2.47510585E+01  0.00000000E+00  1.23755293E+01
  1.23755293E+01 -2.47510585E+01  0.00000000E+00  1.23755293E+01  1.23755293E+01
 -2.47510585E+01  0.00000000E+00  1.23755293E+01  1.23755293E+01 -2.47510585E+01
  0.00000000E+00  1.23755293E+01  1.23755293E+01 -2.47510585E+01  0.00000000E+00
  1.23755293E+01  1.23755293E+01 -2.47510585E+01  0.00000000E+00  1.23755293E+01
  1.23755293E+01 -2.47510585E+01  0.00000000E+00  1.23755293E+01  1.23755293E+01
 -2.47510585E+01  0.00000000E+00  1.23755293E+01  1.23755293E+01 -2.47510585E+01
  0.00000000E+00  1.23755293E+01  1.23755293E+01 -2.47510585E+01  0.00000000E+00
  1.23755293E+01  1.23755293E+01 -2.47510585E+01  0.00000000E+00  1.23755293E+01
  1.23755293E+01 -2.47510585E+01  0.00000000E+00  1.23755293E+01  1.23755293E+01
 -2.47510585E+01  0.00000000E+00  1.23755293E+01  1.23755293E+01 -2.47510585E+01
  0.00000000E+00  1.23755293E+01  1.23755293E+01 -2.47510585E+01  0.00000000E+00
  1.23755293E+01  1.23755293E+01 -2.47510585E+01  0.00000000E+00  1.23755293E+01
  1.23755293E+01 -2.47510585E+01  0.00000000E+00  1.23755293E+01  1.23755293E+01
 -2.47510585E+01  0.00000000E+00  1.23755293E+01  1.23755293E+01 -2.47510585E+01
  0.00000000E+00  1.23755293E+01  1.23755293E+01 -2.47510585E+01  0.00000000E+00
  1.23755293E+01  1.23755293E+01 -2.47510585E+01  0.00000000E+00  1.23755293E+01
  1.23755293E+01 -2.47510585E+01  0.00000000E+00  1.23755293E+01  1.23755293E+01
 -2.47510585E+01  0.00000000E+00  1.23755293E+01  1.23755293E+01 -2.47510585E+01
  0.00000000E+00  1.23755293E+01  1.23755293E+01 -2.47510585E+01  0.00000000E+00
  1.23755293E+01  1.23755293E+01 -2.47510585E+01  0.00000000E+00  1.23755293E+01
  1.23755293E+01 -2.47510585E+01  0.00000000E+00  1.23755293E+01  1.23755293E+01
 -2.47510585E+01  0.00000000E+00  1.23755293E+01  1.23755293E+01 -2.47510585E+01
  0.00000000E+00  1.23755293E+01  1.23755293E+01 -2.47510585E+01  0.00000000E+00
  1.23755293E+01  1.23755293E+01 -2.47510585E+01  0.00000000E+00  1.23755293E+01
  1.23755293E+01 -2.47510585E+01  0.00000000E+00  1.23755293E+01  1.23755293E+01
 -2.47510585E+01  0.00000000E+00  1.23755293E+01  1.23755293E+01 -2.47510585E+01
  0.00000000E+00  1.23755293E+01  1.23755293E+01 -2.47510585E+01  0.00000000E+00
  1.23755293E+01  1.23755293E+01 -2.47510585E+01  0.00000000E+00  1.23755293E+01
  1.23755293E+01 -2.47510585E+01  0.00000000E+00  1.23755293E+01  1.23755293E+01
 -2.47510585E+01  0.00000000E+00  1.23755293E+01  1.23755293E+01 -2.47510585E+01
  0.00000000E+00  1.23755293E+01  1.23755293E+01 -2.47510585E+01  0.00000000E+00
  1.23755293E+01  1.23755293E+01 -2.47510585E+01  0.00000000E+00  1.23755293E+01
  1.23755293E+01 -2.47510585E+01  0.00000000E+00  1.23755293E+01  1.23755293E+01
 -2.47510585E+01  0.00000000E+00  1.23755293E+01  1.23755293E+01 -2.47510585E+01
  0.00000000E+00  1.23755293E+01  1.23755293E+01 -2.47510585E+01  0.00000000E+00
  1.23755293E+01  1.23755293E+01 -2.47510585E+01  0.00000000E+00  1.23755293E+01
  1.23755293E+01 -2.47510585E+01  0.00000000E+00  1.23755293E+01  1.23755293E+01
 -2.47510585E+01  0.00000000E+00  1.23755293E+01  1.23755293E+01 -2.47510585E+01
  0.00000000E+00  1.23755293E+01  1.23755293E+01 -2.47510585E+01  0.00000000E+00
  1.23755293E+01  1.23755293E+01 -2.47510585E+01  0.00000000E+00  1.23755293E+01
  1.23755293E+01 -2.47510585E+01  0.00000000E+00  1.23755293E+01  1.23755293E+01
 -2.47510585E+01  0.00000000E+00  1.23755293E+01  1.23755293E+01 -2.47510585E+01
  0.00000000E+00  1.23755293E+01  1.23755293E+01 -2.47510585E+01  0.00000000E+00
  1.23755293E+01  1.23755293E+01 -2.47510585E+01  0.00000000E+00  1.23755293E+01
  1.23755293E+01 -2.47510585E+01  0.00000000E+00  1.23755293E+01  1.23755293E+01
 -2.47510585E+01  0.00000000E+00  1.23755293E+01  1.23755293E+01 -2.47510585E+01
  0.00000000E+00  1.23755293E+01  1.23755293E+01 -2.47510585E+01  0.00000000E+00
  1.23755293E+01  1.23755293E+01 -2.47510585E+01  0.00000000E+00  1.23755293E+01
  1.23755293E+01 -2.47510585E+01  0.00000000E+00  1.23755293E+01  1.23755293E+01
 -2.47510585E+01  0.00000000E+00  1.23755293E+01  1.23755293E+01 -2.47510585E+01
  0.00000000E+00  1.23755293E+01  1.23755293E+01 -2.47510585E+01  0.00000000E+00
  1.23755293E+01  1.23755293E+01 -2.47510585E+01  0.00000000E+00  1.23755293E+01
  1.23755293E+01 -2.47510585E+01  0.00000000E+00  1.23755293E+01  1.23755293E+01
 -2.47510585E+01  0.00000000E+00  1.23755293E+01  1.23755293E+01 -2.47510585E+01
  0.00000000E+00  1.23755293E+01  1.23755293E+01 -2.47510585E+01  0.00000000E+00
  1.23755293E+01  1.23755293E+01 -2.47510585E+01  0.00000000E+00  1.23755293E+01
  1.23755293E+01 -2.47510585E+01  0.00000000E+00  1.23755293E+01  1.23755293E+01
 -2.47510585E+01  0.00000000E+00  1.23755293E+01  1.23755293E+01 -2.47510585E+01
  0.00000000E+00  1.23755293E+01  1.23755293E+01 -2.47510585E+01  0.00000000E+00
  1.23755293E+01  1.23755293E+01 -2.47510585E+01  0.00000000E+00  1.23755293E+01
  1.23755293E+01 -2.47510585E+01  0.00000000E+00  1.23755293E+01  1.23755293E+01
 -2.47510585E+01  0.00000000E+00  1.23755293E+01  1.23755293E+01 -2.47510585E+01
  0.00000000E+00  1.23755293E+01  1.23755293E+01 -2.47510585E+01  0.00000000E+00
  1.23755293E+01  1.23755293E+01 -2.47510585E+01  0.00000000E+00  1.23755293E+01
  1.23755293E+01 -2.47510585E+01  0.00000000E+00  1.23755293E+01  1.23755293E+01
 -2.47510585E+01  0.00000000E+00  1.23755293E+01  1.23755293E+01 -2.47510585E+01
  0.00000000E+00  1.23755293E+01  1.23755293E+01 -2.47510585E+01  0.00000000E+00
  1.23755293E+01  1.23755293E+01 -2.47510585E+01  0.00000000E+00  1.23755293E+01
  1.23755293E+01 -2.47510585E+01  0.00000000E+00  1.23755293E+01  1.23755293E+01
 -2.47510585E+01  0.00000000E+00  1.23755293E+01  1.23755293E+01 -2.47510585E+01
  0.00000000E+00  1.23755293E+01  1.23755293E+01 -2.47510585E+01  0.00000000E+00
  1.23755293E+01  1.23755293E+01 -2.47510585E+01  0.00000000E+00  1.23755293E+01
  1.23755293E+01 -2.47510585E+01  0.00000000E+00  1.23755293E+01  1.23755293E+01
 -2.47510585E+01  0.00000000E+00  1.23755293E+01  1.23755293E+01 -2.47510585E+01
  0.00000000E+00  1.23755293E+01  1.23755293E+01 -2.47510585E+01  0.00000000E+00
  1.23755293E+01  1.23755293E+01 -2.47510585E+01  0.00000000E+00  1.23755293E+01
  1.23755293E+01 -2.47510585E+01  0.00000000E+00  1.23755293E+01  1.23755293E+01
 -2.47510585E+01  0.00000000E+00  1.23755293E+01  1.23755293E+01 -2.47510585E+01
  0.00000000E+00  1.23755293E+01  1.23755293E+01 -2.47510585E+01  0.00000000E+00
  1.23755293E+01  1.23755293E+01 -2.47510585E+01  0.00000000E+00  1.23755293E+01
  1.23755293E+01 -2.47510585E+01  0.00000000E+00  1.23755293E+01  1.23755293E+01
 -2.47510585E+01  0.00000000E+00  1.23755293E+01  1.23755293E+01 -2.47510585E+01
  0.00000000E+00  1.23755293E+01  1.23755293E+01 -2.47510585E+01  0.00000000E+00
  1.23755293E+01  1.23755293E+01 -2.47510585E+01  0.00000000E+00  1.23755293E+01
  1.23755293E+01 -2.47510585E+01  0.00000000E+00  1.23755293E+01  1.23755293E+01
 -2.47510585E+01  0.00000000E+00  1.23755293E+01  1.23755293E+01 -2.47510585E+01
  0.00000000E+00  1.23755293E+01  1.23755293E+01 -2.47510585E+01  0.00000000E+00
  1.23755293E+01  1.23755293E+01 -2.47510585E+01  0.00000000E+00  1.23755293E+01
  1.23755293E+01 -2.47510585E+01  0.00000000E+00  1.23755293E+01  1.23755293E+01
 -2.47510585E+01  0.00000000E+00  1.23755293E+01  1.23755293E+01 -2.47510585E+01
  0.00000000E+00  1.23755293E+01  1.23755293E+01 -2.47510585E+01  0.00000000E+00
  1.23755293E+01  1.23755293E+01 -2.47510585E+01  0.00000000E+00  1.23755293E+01
  1.23755293E+01 -2.47510585E+01  0.00000000E+00  1.23755293E+01  1.23755293E+01
 -2.47510585E+01  0.00000000E+00  1.23755293E+01  1.23755293E+01 -2.47510585E+01
  0.00000000E+00  1.23755293E+01  1.23755293E+01 -2.47510585E+01  0.00000000E+00
  1.23755293E+01  1.23755293E+01 -2.47510585E+01  0.00000000E+00  1.23755293E+01
  1.23755293E+01 -2.47510585E+01  0.00000000E+00  1.23755293E+01  1.23755293E+01
 -2.47510585E+01  0.00000000E+00  1.23755293E+01  1.23755293E+01 -2.47510585E+01
  0.00000000E+00  1.23755293E+01  1.23755293E+01 -2.47510585E+01  0.00000000E+00
  1.23755293E+01  1.23755293E+01 -2.47510585E+01  0.00000000E+00  1.23755293E+01
  1.23755293E+01 -2.47510585E+01  0.00000000E+00  1.23755293E+01  1.23755293E+01
 -2.47510585E+01  0.00000000E+00  1.23755293E+01  1.23755293E+01 -2.47510585E+01
  0.00000000E+00  1.23755293E+01  1.23755293E+01 -2.47510585E+01  0.00000000E+00
  1.23755293E+01  1.23755293E+01 -2.47510585E+01  0.00000000E+00  1.23755293E+01
  1.23755293E+01 -2.47510585E+01  0.00000000E+00  1.23755293E+01  1.23755293E+01
 -2.47510585E+01  0.00000000E+00  1.23755293E+01  1.23755293E+01 -2.47510585E+01
  0.00000000E+00  1.23755293E+01  1.23755293E+01 -2.47510585E+01  0.00000000E+00
  1.23755293E+01  1.23755293E+01 -2.47510585E+01  0.00000000E+00  1.23755293E+01
  1.23755293E+01 -2.47510585E+01  0.00000000E+00  1.23755293E+01  1.23755293E+01
 -2.47510585E+01  0.00000000E+00  1.23755293E+01  1.23755293E+01 -2.47510585E+01
  0.00000000E+00  1.23755293E+01  1.23755293E+01 -2.47510585E+01  0.00000000E+00
  1.23755293E+01  1.23755293E+01 -2.47510585E+01  0.00000000E+00  1.23755293E+01
  1.23755293E+01 -2.47510585E+01  0.00000000E+00  1.23755293E+01  1.23755293E+01
 -2.47510585E+01  0.00000000E+00  1.23755293E+01  1.23755293E+01 -2.47510585E+01
  0.00000000E+00  1.23755293E+01  1.23755293E+01 -2.47510585E+01  0.00000000E+00
  1.23755293E+01  1.23755293E+01 -2.47510585E+01  0.00000000E+00  1.23755293E+01
  1.23755293E+01 -2.47510585E+01  0.00000000E+00  1.23755293E+01  1.23755293E+01
 -2.47510585E+01  0.00000000E+00  1.23755293E+01  1.23755293E+01 -2.47510585E+01
  0.00000000E+00  1.23755293E+01  1.23755293E+01 -2.47510585E+01  0.00000000E+00
  1.23755293E+01  1.23755293E+01 -2.47510585E+01  0.00000000E+00  1.23755293E+01
  1.23755293E+01 -2.47510585E+01  0.00000000E+00  1.23755293E+01  1.23755293E+01
 -2.47510585E+01  0.00000000E+00  1.23755293E+01  1.23755293E+01 -2.47510585E+01
  0.00000000E+00  1.23755293E+01  1.23755293E+01 -2.47510585E+01  0.00000000E+00
  1.23755293E+01  1.23755293E+01 -2.47510585E+01  0.00000000E+00  1.23755293E+01
  1.23755293E+01 -2.47510585E+01  0.00000000E+00  1.23755293E+01  1.23755293E+01
 -2.47510585E+01  0.00000000E+00  1.23755293E+01  1.23755293E+01 -2.47510585E+01
  0.00000000E+00  1.23755293E+01  1.23755293E+01 -2.47510585E+01  0.00000000E+00
  1.23755293E+01  1.23755293E+01 -2.47510585E+01  0.00000000E+00  1.23755293E+01
  1.23755293E+01 -2.47510585E+01  0.00000000E+00  1.23755293E+01  1.23755293E+01
 -2.47510585E+01  0.00000000E+00  1.23755293E+01  1.23755293E+01 -2.47510585E+01
  0.00000000E+00  1.23755293E+01  1.23755293E+01 -2.47510585E+01  0.00000000E+00
  1.23755293E+01  1.23755293E+01 -2.47510585E+01  0.00000000E+00  1.23755293E+01
  1.23755293E+01 -2.47510585E+01  0.00000000E+00  1.23755293E+01  1.23755293E+01
 -2.47510585E+01  0.00000000E+00  1.23755293E+01  1.23755293E+01 -2.47510585E+01
  0.00000000E+00  1.23755293E+01  1.23755293E+01 -2.47510585E+01  0.00000000E+00
  1.23755293E+01  1.23755293E+01 -2.47510585E+01  0.00000000E+00  1.23755293E+01
  1.23755293E+01 -2.47510585E+01  0.00000000E+00  1.23755293E+01  1.23755293E+01
 -2.47510585E+01  0.00000000E+00  1.23755293E+01  1.23755293E+01 -2.47510585E+01
  0.00000000E+00  1.23755293E+01  1.23755293E+01 -2.47510585E+01  0.00000000E+00
  1.23755293E+01  1.23755293E+01 -2.47510585E+01  0.00000000E+00  1.23755293E+01
  1.23755293E+01 -2.47510585E+01  0.00000000E+00  1.23755293E+01  1.23755293E+01
 -2.47510585E+01  0.00000000E+00  1.23755293E+01  1.23755293E+01 -2.47510585E+01
  0.00000000E+00  1.23755293E+01  1.23755293E+01 -2.47510585E+01  0.00000000E+00
  1.23755293E+01  1.23755293E+01 -2.47510585E+01  0.00000000E+00  1.23755293E+01
  1.23755293E+01 -2.47510585E+01  0.00000000E+00  1.23755293E+01  1.23755293E+01
 -2.47510585E+01  0.00000000E+00  1.23755293E+01  1.23755293E+01 -2.47510585E+01
  0.00000000E+00  1.23755293E+01  1.23755293E+01 -2.47510585E+01  0.00000000E+00
  1.23755293E+01  1.23755293E+01 -2.47510585E+01  0.00000000E+00  1.23755293E+01
  1.23755293E+01 -2.47510585E+01  0.00000000E+00  1.23755293E+01  1.23755293E+01
 -2.47510585E+01  0.00000000E+00  1.23755293E+01  1.23755293E+01 -2.47510585E+01
  0.00000000E+00  1.23755293E+01  1.23755293E+01 -2.47510585E+01  0.00000000E+00
  1.23755293E+01  1.23755293E+01 -2.47510585E+01  0.00000000E+00  1.23755293E+01
  1.23755293E+01 -2.47510585E+01  0.00000000E+00  1.23755293E+01  1.23755293E+01
 -2.47510585E+01  0.00000000E+00  1.23755293E+01  1.23755293E+01 -2.47510585E+01
  0.00000000E+00  1.23755293E+01  1.23755293E+01 -2.47510585E+01  0.00000000E+00
  1.23755293E+01  1.23755293E+01 -2.47510585E+01  0.00000000E+00  1.23755293E+01
  1.23755293E+01 -2.47510585E+01  0.00000000E+00  1.23755293E+01  1.23755293E+01
 -2.47510585E+01  0.00000000E+00  1.23755293E+01  1.23755293E+01 -2.47510585E+01
  0.00000000E+00  1.23755293E+01  1.23755293E+01 -2.47510585E+01  0.00000000E+00
  1.23755293E+01  1.23755293E+01 -2.47510585E+01  0.00000000E+00  1.23755293E+01
  1.23755293E+01 -2.47510585E+01  0.00000000E+00  1.23755293E+01  1.23755293E+01
 -2.47510585E+01  0.00000000E+00  1.23755293E+01  1.23755293E+01 -2.47510585E+01
  0.00000000E+00  1.23755293E+01  1.23755293E+01 -2.47510585E+01  0.00000000E+00
  1.23755293E+01  1.23755293E+01 -2.47510585E+01  0.00000000E+00  1.23755293E+01
  1.23755293E+01 -2.47510585E+01  0.00000000E+00  1.23755293E+01  1.23755293E+01
 -2.47510585E+01  0.00000000E+00  1.23755293E+01  1.23755293E+01 -2.47510585E+01
  0.00000000E+00  1.23755293E+01  1.23755293E+01 -2.47510585E+01  0.00000000E+00
  1.23755293E+01  1.23755293E+01 -2.47510585E+01  0.00000000E+00  1.23755293E+01
  1.23755293E+01 -2.47510585E+01  0.00000000E+00  1.23755293E+01  1.23755293E+01
 -2.47510585E+01  0.00000000E+00  1.23755293E+01  1.23755293E+01 -2.47510585E+01
  0.00000000E+00  1.23755293E+01  1.23755293E+01 -2.47510585E+01  0.00000000E+00
  1.23755293E+01  1.23755293E+01 -2.47510585E+01  0.00000000E+00  1.23755293E+01
  1.23755293E+01 -2.47510585E+01  0.00000000E+00  1.23755293E+01  1.23755293E+01
 -2.47510585E+01  0.00000000E+00  1.23755293E+01  1.23755293E+01 -2.47510585E+01
  0.00000000E+00  1.23755293E+01  1.23755293E+01 -2.47510585E+01  0.00000000E+00
  1.23755293E+01  1.23755293E+01 -2.47510585E+01  0.00000000E+00  1.23755293E+01
  1.23755293E+01 -2.47510585E+01  0.00000000E+00  1.23755293E+01  1.23755293E+01
 -2.47510585E+01  0.00000000E+00  1.23755293E+01  1.23755293E+01 -2.47510585E+01
  0.00000000E+00  1.23755293E+01  1.23755293E+01 -2.47510585E+01  0.00000000E+00
  1.23755293E+01  1.23755293E+01 -2.47510585E+01  0.00000000E+00  1.23755293E+01
  1.23755293E+01 -2.47510585E+01  0.00000000E+00  1.23755293E+01  1.23755293E+01
 -2.47510585E+01  0.00000000E+00  1.23755293E+01  1.23755293E+01 -2.47510585E+01
  0.00000000E+00  1.23755293E+01  1.23755293E+01 -2.47510585E+01  0.00000000E+00
  1.23755293E+01  1.23755293E+01 -2.47510585E+01  0.00000000E+00  1.23755293E+01
  1.23755293E+01 -2.47510585E+01  0.00000000E+00  1.23755293E+01  1.23755293E+01
 -2.47510585E+01  0.00000000E+00  1.23755293E+01  1.23755293E+01 -2.47510585E+01
  0.00000000E+00  1.23755293E+01  1.23755293E+01 -2.47510585E+01  0.00000000E+00
  1.23755293E+01  1.23755293E+01 -2.47510585E+01  0.00000000E+00  1.23755293E+01
  1.23755293E+01 -2.47510585E+01  0.00000000E+00  1.23755293E+01  1.23755293E+01
 -2.47510585E+01  0.00000000E+00  1.23755293E+01  1.23755293E+01 -2.47510585E+01
  0.00000000E+00  1.23755293E+01  1.23755293E+01 -2.47510585E+01  0.00000000E+00
  1.23755293E+01  1.23755293E+01 -2.47510585E+01  0.00000000E+00  1.23755293E+01
  1.23755293E+01 -2.47510585E+01  0.00000000E+00  1.23755293E+01  1.23755293E+01
 -2.47510585E+01  0.00000000E+00  1.23755293E+01  1.23755293E+01 -2.47510585E+01
  0.00000000E+00  1.23755293E+01  1.23755293E+01 -2.47510585E+01  0.00000000E+00
  1.23755293E+01  1.23755293E+01 -2.47510585E+01  0.00000000E+00  1.23755293E+01
  1.23755293E+01 -2.47510585E+01  0.00000000E+00  1.23755293E+01  1.23755293E+01
 -2.47510585E+01  0.00000000E+00  1.23755293E+01  1.23755293E+01 -2.47510585E+01
  0.00000000E+00  1.23755293E+01  1.23755293E+01 -2.47510585E+01  0.00000000E+00
  1.23755293E+01  1.23755293E+01 -2.47510585E+01  0.00000000E+00  1.23755293E+01
  1.23755293E+01 -2.47510585E+01  0.00000000E+00  1.23755293E+01  1.23755293E+01
 -2.47510585E+01  0.00000000E+00  1.23755293E+01  1.23755293E+01 -2.47510585E+01
  0.00000000E+00  1.23755293E+01  1.23755293E+01 -2.47510585E+01  0.00000000E+00
  1.23755293E+01  1.23755293E+01 -2.47510585E+01  0.00000000E+00  1.23755293E+01
  1.23755293E+01 -2.47510585E+01  0.00000000E+00  1.23755293E+01  1.23755293E+01
 -2.47510585E+01  0.00000000E+00  1.23755293E+01  1.23755293E+01 -2.47510585E+01
  0.00000000E+00  1.23755293E+01  1.23755293E+01 -2.47510585E+01  0.00000000E+00
  1.23755293E+01  1.23755293E+01 -2.47510585E+01  0.00000000E+00  1.23755293E+01
  1.23755293E+01 -2.47510585E+01  0.00000000E+00  1.23755293E+01  1.23755293E+01
 -2.47510585E+01  0.00000000E+00  1.23755293E+01  1.23755293E+01 -2.47510585E+01
  0.00000000E+00  1.23755293E+01  1.23755293E+01 -2.47510585E+01  0.00000000E+00
  1.23755293E+01  1.23755293E+01 -2.47510585E+01  0.00000000E+00  1.23755293E+01
  1.23755293E+01 -2.47510585E+01  0.00000000E+00  1.23755293E+01  1.23755293E+01
 -2.47510585E+01  0.00000000E+00  1.23755293E+01  1.23755293E+01 -2.47510585E+01
  0.00000000E+00  1.23755293E+01  1.23755293E+01 -2.47510585E+01  0.00000000E+00
  1.23755293E+01  1.23755293E+01 -2.47510585E+01  0.00000000E+00  1.23755293E+01
  1.23755293E+01 -2.47510585E+01  0.00000000E+00  1.23755293E+01  1.23755293E+01
 -2.47510585E+01  0.00000000E+00  1.23755293E+01  1.23755293E+01 -2.47510585E+01
  0.00000000E+00  1.23755293E+01  1.23755293E+01 -2.47510585E+01  0.00000000E+00
  1.23755293E+01  1.23755293E+01 -2.47510585E+01  0.00000000E+00  1.23755293E+01
  1.23755293E+01 -2.47510585E+01  0.00000000E+00  1.23755293E+01  1.23755293E+01
 -2.47510585E+01  0.00000000E+00  1.23755293E+01  1.23755293E+01 -2.47510585E+01
  0.00000000E+00  1.23755293E+01  1.23755293E+01 -2.47510585E+01  0.00000000E+00
  1.23755293E+01  1.23755293E+01 -2.47510585E+01  0.00000000E+00  1.23755293E+01
  1.23755293E+01 -2.47510585E+01  0.00000000E+00  1.23755293E+01  1.23755293E+01
 -2.47510585E+01  0.00000000E+00  1.23755293E+01  1.23755293E+01 -2.47510585E+01
  0.00000000E+00  1.23755293E+01  1.23755293E+01 -2.47510585E+01  0.00000000E+00
  1.23755293E+01  1.23755293E+01 -2.47510585E+01  0.00000000E+00  1.23755293E+01
  1.23755293E+01 -2.47510585E+01  0.00000000E+00  1.23755293E+01  1.23755293E+01
 -2.47510585E+01  0.00000000E+00  1.23755293E+01  1.23755293E+01 -2.47510585E+01
  0.00000000E+00  1.23755293E+01  1.23755293E+01 -2.47510585E+01  0.00000000E+00
  1.23755293E+01  1.23755293E+01 -2.47510585E+01  0.00000000E+00  1.23755293E+01
  1.23755293E+01 -2.47510585E+01  0.00000000E+00  1.23755293E+01  1.23755293E+01
 -2.47510585E+01  0.00000000E+00  1.23755293E+01  1.23755293E+01 -2.47510585E+01
  0.00000000E+00  1.23755293E+01  1.23755293E+01 -2.47510585E+01  0.00000000E+00
  1.23755293E+01  1.23755293E+01 -2.47510585E+01  0.00000000E+00  1.23755293E+01
  1.23755293E+01 -2.47510585E+01  0.00000000E+00  1.23755293E+01  1.23755293E+01
 -2.47510585E+01  0.00000000E+00  1.23755293E+01  1.23755293E+01 -2.47510585E+01
  0.00000000E+00  1.23755293E+01  1.23755293E+01 -2.47510585E+01  0.00000000E+00
  1.23755293E+01  1.23755293E+01 -2.47510585E+01  0.00000000E+00  1.23755293E+01
  1.23755293E+01 -2.47510585E+01  0.00000000E+00  1.23755293E+01  1.23755293E+01
 -2.47510585E+01  0.00000000E+00  1.23755293E+01  1.23755293E+01 -2.47510585E+01
  0.00000000E+00  1.23755293E+01  1.23755293E+01 -2.47510585E+01  0.00000000E+00
  1.23755293E+01  1.23755293E+01 -2.47510585E+01  0.00000000E+00  1.23755293E+01
  1.23755293E+01 -2.47510585E+01  0.00000000E+00  1.23755293E+01  1.23755293E+01
 -2.47510585E+01  0.00000000E+00  1.23755293E+01  1.23755293E+01 -2.47510585E+01
  0.00000000E+00  1.23755293E+01  1.23755293E+01 -2.47510585E+01  0.00000000E+00
  1.23755293E+01  1.23755293E+01 -2.47510585E+01  0.00000000E+00  1.23755293E+01
  1.23755293E+01 -2.47510585E+01  0.00000000E+00  1.23755293E+01  1.23755293E+01
 -2.47510585E+01  0.00000000E+00  1.23755293E+01  1.23755293E+01 -2.47510585E+01
  0.00000000E+00  1.23755293E+01  1.23755293E+01 -2.47510585E+01  0.00000000E+00
  1.23755293E+01  1.23755293E+01 -2.47510585E+01  0.00000000E+00  1.23755293E+01
  1.23755293E+01 -2.47510585E+01  0.00000000E+00  1.23755293E+01  1.23755293E+01
 -2.47510585E+01  0.00000000E+00  1.23755293E+01  1.23755293E+01 -2.47510585E+01
  0.00000000E+00  1.23755293E+01  1.23755293E+01 -2.47510585E+01  0.00000000E+00
  1.23755293E+01  1.23755293E+01 -2.47510585E+01  0.00000000E+00  1.23755293E+01
  1.23755293E+01 -2.47510585E+01  0.00000000E+00  1.23755293E+01  1.23755293E+01
 -2.47510585E+01  0.00000000E+00  1.23755293E+01  1.23755293E+01 -2.47510585E+01
  0.00000000E+00  1.23755293E+01  1.23755293E+01 -2.47510585E+01  0.00000000E+00
  1.23755293E+01  1.23755293E+01 -2.47510585E+01  0.00000000E+00  1.23755293E+01
  1.23755293E+01 -2.47510585E+01  0.00000000E+00  1.23755293E+01  1.23755293E+01
 -2.47510585E+01  0.00000000E+00  1.23755293E+01  1.23755293E+01 -2.47510585E+01
  0.00000000E+00  1.23755293E+01  1.23755293E+01 -2.47510585E+01  0.00000000E+00
  1.23755293E+01  1.23755293E+01 -2.47510585E+01  0.00000000E+00  1.23755293E+01
  1.23755293E+01 -2.47510585E+01  0.00000000E+00  1.23755293E+01  1.23755293E+01
 -2.47510585E+01  0.00000000E+00  1.23755293E+01  1.23755293E+01 -2.47510585E+01
  0.00000000E+00  1.23755293E+01  1.23755293E+01 -2.47510585E+01  0.00000000E+00
  1.23755293E+01  1.23755293E+01 -2.47510585E+01  0.00000000E+00  1.23755293E+01
  1.23755293E+01 -2.47510585E+01  0.00000000E+00  1.23755293E+01  1.23755293E+01
 -2.47510585E+01  0.00000000E+00  1.23755293E+01  1.23755293E+01 -2.47510585E+01
  0.00000000E+00  1.23755293E+01  1.23755293E+01 -2.47510585E+01  0.00000000E+00
  1.23755293E+01  1.23755293E+01 -2.47510585E+01  0.00000000E+00  1.23755293E+01
  1.23755293E+01 -2.47510585E+01  0.00000000E+00  1.23755293E+01  1.23755293E+01
 -2.47510585E+01  0.00000000E+00  1.23755293E+01  1.23755293E+01 -2.47510585E+01
  0.00000000E+00  1.23755293E+01  1.23755293E+01 -2.47510585E+01  0.00000000E+00
  1.23755293E+01  1.23755293E+01 -2.47510585E+01  0.00000000E+00  1.23755293E+01
  1.23755293E+01 -2.47510585E+01  0.00000000E+00  1.23755293E+01  1.23755293E+01
 -2.47510585E+01  0.00000000E+00  1.23755293E+01  1.23755293E+01 -2.47510585E+01
  0.00000000E+00  1.23755293E+01  1.23755293E+01 -2.47510585E+01  0.00000000E+00
  1.23755293E+01  1.23755293E+01 -2.47510585E+01  0.00000000E+00  1.23755293E+01
  1.23755293E+01 -2.47510585E+01  0.00000000E+00  1.23755293E+01  1.23755293E+01
 -2.47510585E+01  0.00000000E+00  1.23755293E+01  1.23755293E+01 -2.47510585E+01
  0.00000000E+00  1.23755293E+01  1.23755293E+01 -2.47510585E+01  0.00000000E+00
  1.23755293E+01  1.23755293E+01 -2.47510585E+01  0.00000000E+00  1.23755293E+01
  1.23755293E+01 -2.47510585E+01  0.00000000E+00  1.23755293E+01  1.23755293E+01
 -2.47510585E+01  0.00000000E+00  1.23755293E+01  1.23755293E+01 -2.47510585E+01
  0.00000000E+00  1.23755293E+01  1.23755293E+01 -2.47510585E+01  0.00000000E+00
  1.23755293E+01  1.23755293E+01 -2.47510585E+01  0.00000000E+00  1.23755293E+01
  1.23755293E+01 -2.47510585E+01  0.00000000E+00  1.23755293E+01  1.23755293E+01
 -2.47510585E+01  0.00000000E+00  1.23755293E+01  1.23755293E+01 -2.47510585E+01
  0.00000000E+00  1.23755293E+01  1.23755293E+01 -2.47510585E+01  0.00000000E+00
  1.23755293E+01  1.23755293E+01 -2.47510585E+01  0.00000000E+00  1.23755293E+01
  1.23755293E+01 -2.47510585E+01  0.00000000E+00  1.23755293E+01  1.23755293E+01
 -2.47510585E+01  0.00000000E+00  1.23755293E+01  1.23755293E+01 -2.47510585E+01
  0.00000000E+00  1.23755293E+01  1.23755293E+01 -2.47510585E+01  0.00000000E+00
  1.23755293E+01  1.23755293E+01 -2.47510585E+01  0.00000000E+00  1.23755293E+01
  1.23755293E+01 -2.47510585E+01  0.00000000E+00  1.23755293E+01  1.23755293E+01
 -2.47510585E+01  0.00000000E+00  1.23755293E+01  1.23755293E+01 -2.47510585E+01
  0.00000000E+00  1.23755293E+01  1.23755293E+01 -2.47510585E+01  0.00000000E+00
  1.23755293E+01  1.23755293E+01 -2.47510585E+01  0.00000000E+00  1.23755293E+01
  1.23755293E+01 -2.47510585E+01  0.00000000E+00  1.23755293E+01  1.23755293E+01
 -2.47510585E+01  0.00000000E+00  1.23755293E+01  1.23755293E+01 -2.47510585E+01
  0.00000000E+00  1.23755293E+01  1.23755293E+01 -2.47510585E+01  0.00000000E+00
  1.23755293E+01  1.23755293E+01 -2.47510585E+01  0.00000000E+00  1.23755293E+01
  1.23755293E+01 -2.47510585E+01  0.00000000E+00  1.23755293E+01  1.23755293E+01
 -2.47510585E+01  0.00000000E+00  1.23755293E+01  1.23755293E+01 -2.47510585E+01
  0.00000000E+00  1.23755293E+01  1.23755293E+01 -2.47510585E+01  0.00000000E+00
  1.23755293E+01  1.23755293E+01 -2.47510585E+01  0.00000000E+00  1.23755293E+01
  1.23755293E+01 -2.47510585E+01  0.00000000E+00  1.23755293E+01  1.23755293E+01
 -2.47510585E+01  0.00000000E+00  1.23755293E+01  1.23755293E+01 -2.47510585E+01
  0.00000000E+00  1.23755293E+01  1.23755293E+01 -2.47510585E+01  0.00000000E+00
  1.23755293E+01  1.23755293E+01 -2.47510585E+01  0.00000000E+00  1.23755293E+01
  1.23755293E+01 -2.47510585E+01  0.00000000E+00  1.23755293E+01  1.23755293E+01
 -2.47510585E+01  0.00000000E+00  1.23755293E+01  1.23755293E+01 -2.47510585E+01
  0.00000000E+00  1.23755293E+01  1.23755293E+01 -2.47510585E+01  0.00000000E+00
  1.23755293E+01  1.23755293E+01 -2.47510585E+01  0.00000000E+00  1.23755293E+01
  1.23755293E+01 -2.47510585E+01  0.00000000E+00  1.23755293E+01  1.23755293E+01
 -2.47510585E+01  0.00000000E+00  1.23755293E+01  1.23755293E+01 -2.47510585E+01
  0.00000000E+00  1.23755293E+01  1.23755293E+01 -2.47510585E+01  0.00000000E+00
  1.23755293E+01  1.23755293E+01 -2.47510585E+01  0.00000000E+00  1.23755293E+01
  1.23755293E+01 -2.47510585E+01  0.00000000E+00  1.23755293E+01  1.23755293E+01
 -2.47510585E+01  0.00000000E+00  1.23755293E+01  1.23755293E+01 -2.47510585E+01
  0.00000000E+00  1.23755293E+01  1.23755293E+01 -2.47510585E+01  0.00000000E+00
  1.23755293E+01  1.23755293E+01 -2.47510585E+01  0.00000000E+00  1.23755293E+01
  1.23755293E+01 -2.47510585E+01  0.00000000E+00  1.23755293E+01  1.23755293E+01
 -2.47510585E+01  0.00000000E+00  1.23755293E+01  1.23755293E+01 -2.47510585E+01
  0.00000000E+00  1.23755293E+01  1.23755293E+01 -2.47510585E+01  0.00000000E+00
  1.23755293E+01  1.23755293E+01 -2.47510585E+01  0.00000000E+00  1.23755293E+01
  1.23755293E+01 -2.47510585E+01  0.00000000E+00  1.23755293E+01  1.23755293E+01
 -2.47510585E+01  0.00000000E+00  1.23755293E+01  1.23755293E+01 -2.47510585E+01
  0.00000000E+00  1.23755293E+01  1.23755293E+01 -2.47510585E+01  0.00000000E+00
  1.23755293E+01  1.23755293E+01 -2.47510585E+01  0.00000000E+00  1.23755293E+01
  1.23755293E+01 -2.47510585E+01  0.00000000E+00  1.23755293E+01  1.23755293E+01
 -2.47510585E+01  0.00000000E+00  1.23755293E+01  1.23755293E+01 -2.47510585E+01
  0.00000000E+00  1.23755293E+01  1.23755293E+01 -2.47510585E+01  0.00000000E+00
  1.23755293E+01  1.23755293E+01 -2.47510585E+01  0.00000000E+00  1.23755293E+01
  1.23755293E+01 -2.47510585E+01  0.00000000E+00  1.23755293E+01  1.23755293E+01
 -2.47510585E+01  0.00000000E+00  1.23755293E+01  1.23755293E+01 -2.47510585E+01
  0.00000000E+00  1.23755293E+01  1.23755293E+01 -2.47510585E+01  0.00000000E+00
  1.23755293E+01  1.23755293E+01 -2.47510585E+01  0.00000000E+00  1.23755293E+01
  1.23755293E+01 -2.47510585E+01  0.00000000E+00  1.23755293E+01  1.23755293E+01
 -2.47510585E+01  0.00000000E+00  1.23755293E+01  1.23755293E+01 -2.47510585E+01
  0.00000000E+00  1.23755293E+01  1.23755293E+01 -2.47510585E+01  0.00000000E+00
  1.23755293E+01  1.23755293E+01 -2.47510585E+01  0.00000000E+00  1.23755293E+01
  1.23755293E+01 -2.47510585E+01  0.00000000E+00  1.23755293E+01  1.23755293E+01
 -2.47510585E+01  0.00000000E+00  1.23755293E+01  1.23755293E+01 -2.47510585E+01
  0.00000000E+00  1.23755293E+01  1.23755293E+01 -2.47510585E+01  0.00000000E+00
  1.23755293E+01  1.23755293E+01 -2.47510585E+01  0.00000000E+00  1.23755293E+01
  1.23755293E+01 -2.47510585E+01  0.00000000E+00  1.23755293E+01  1.23755293E+01
 -2.47510585E+01  0.00000000E+00  1.23755293E+01  1.23755293E+01 -2.47510585E+01
  0.00000000E+00  1.23755293E+01  1.23755293E+01 -2.47510585E+01  0.00000000E+00
  1.23755293E+01  1.23755293E+01 -2.47510585E+01  0.00000000E+00  1.23755293E+01
  1.23755293E+01 -2.47510585E+01  0.00000000E+00  1.23755293E+01  1.23755293E+01
 -2.47510585E+01  0.00000000E+00  1.23755293E+01  1.23755293E+01 -2.47510585E+01
  0.00000000E+00  1.23755293E+01  1.23755293E+01 -2.47510585E+01  0.00000000E+00
  1.23755293E+01  1.23755293E+01 -2.47510585E+01  0.00000000E+00  1.23755293E+01
  1.23755293E+01 -2.47510585E+01  0.00000000E+00  1.23755293E+01  1.23755293E+01
 -2.47510585E+01  0.00000000E+00  1.23755293E+01  1.23755293E+01 -2.47510585E+01
  0.00000000E+00  1.23755293E+01  1.23755293E+01 -2.47510585E+01  0.00000000E+00
  1.23755293E+01  1.23755293E+01 -2.47510585E+01  0.00000000E+00  1.23755293E+01
  1.23755293E+01 -2.47510585E+01  0.00000000E+00  1.23755293E+01  1.23755293E+01
 -2.47510585E+01  0.00000000E+00  1.23755293E+01  1.23755293E+01 -2.47510585E+01
  0.00000000E+00  1.23755293E+01  1.23755293E+01 -2.47510585E+01  0.00000000E+00
  1.23755293E+01  1.23755293E+01 -2.47510585E+01  0.00000000E+00  1.23755293E+01
  1.23755293E+01 -2.47510585E+01  0.00000000E+00  1.23755293E+01  1.23755293E+01
 -2.47510585E+01  0.00000000E+00  1.23755293E+01  1.23755293E+01 -2.47510585E+01
  0.00000000E+00  1.23755293E+01  1.23755293E+01 -2.47510585E+01  0.00000000E+00
  1.23755293E+01  1.23755293E+01 -2.47510585E+01  0.00000000E+00  1.23755293E+01
  1.23755293E+01 -2.47510585E+01  0.00000000E+00  1.23755293E+01  1.23755293E+01
 -2.47510585E+01  0.00000000E+00  1.23755293E+01  1.23755293E+01 -2.47510585E+01
  0.00000000E+00  1.23755293E+01  1.23755293E+01 -2.47510585E+01  0.00000000E+00
  1.23755293E+01  1.23755293E+01 -2.47510585E+01  0.00000000E+00  1.23755293E+01
  1.23755293E+01 -2.47510585E+01  0.00000000E+00  1.23755293E+01  1.23755293E+01
 -2.47510585E+01  0.00000000E+00  1.23755293E+01  1.23755293E+01 -2.47510585E+01
  0.00000000E+00  1.23755293E+01  1.23755293E+01 -2.47510585E+01  0.00000000E+00
  1.23755293E+01  1.23755293E+01 -2.47510585E+01  0.00000000E+00  1.23755293E+01
  1.23755293E+01 -2.47510585E+01  0.00000000E+00  1.23755293E+01  1.23755293E+01
 -2.47510585E+01  0.00000000E+00  1.23755293E+01  1.23755293E+01 -2.47510585E+01
  0.00000000E+00  1.23755293E+01  1.23755293E+01 -2.47510585E+01  0.00000000E+00
  1.23755293E+01  1.23755293E+01 -2.47510585E+01  0.00000000E+00  1.23755293E+01
  1.23755293E+01 -2.47510585E+01  0.00000000E+00  1.23755293E+01  1.23755293E+01
 -2.47510585E+01  0.00000000E+00  1.23755293E+01  1.23755293E+01 -2.47510585E+01
  0.00000000E+00  1.23755293E+01  1.23755293E+01 -2.47510585E+01  0.00000000E+00
  1.23755293E+01  1.23755293E+01 -2.47510585E+01  0.00000000E+00  1.23755293E+01
  1.23755293E+01 -2.47510585E+01  0.00000000E+00  1.23755293E+01  1.23755293E+01
 -2.47510585E+01  0.00000000E+00  1.23755293E+01  1.23755293E+01 -2.47510585E+01
  0.00000000E+00  1.23755293E+01  1.23755293E+01 -2.47510585E+01  0.00000000E+00
  1.23755293E+01  1.23755293E+01 -2.47510585E+01  0.00000000E+00  1.23755293E+01
  1.23755293E+01 -2.47510585E+01  0.00000000E+00  1.23755293E+01  1.23755293E+01
 -2.47510585E+01  0.00000000E+00  1.23755293E+01  1.23755293E+01 -2.47510585E+01
  0.00000000E+00  1.23755293E+01  1.23755293E+01 -2.47510585E+01  0.00000000E+00
  1.23755293E+01  1.23755293E+01 -2.47510585E+01  0.00000000E+00  1.23755293E+01
  1.23755293E+01 -2.47510585E+01  0.00000000E+00  1.23755293E+01  1.23755293E+01
 -2.47510585E+01  0.00000000E+00  1.23755293E+01  1.23755293E+01 -2.47510585E+01
  0.00000000E+00  1.23755293E+01  1.23755293E+01 -2.47510585E+01  0.00000000E+00
  1.23755293E+01  1.23755293E+01 -2.47510585E+01  0.00000000E+00  1.23755293E+01
  1.23755293E+01 -2.47510585E+01  0.00000000E+00  1.23755293E+01  1.23755293E+01
 -2.47510585E+01  0.00000000E+00  1.23755293E+01  1.23755293E+01 -2.47510585E+01
  0.00000000E+00  1.23755293E+01  1.23755293E+01 -2.47510585E+01  0.00000000E+00
  1.23755293E+01  1.23755293E+01 -2.47510585E+01  0.00000000E+00  1.23755293E+01
  1.23755293E+01 -2.47510585E+01  0.00000000E+00  1.23755293E+01  1.23755293E+01
 -2.47510585E+01  0.00000000E+00  1.23755293E+01  1.23755293E+01 -2.47510585E+01
  0.00000000E+00  1.23755293E+01  1.23755293E+01 -2.47510585E+01  0.00000000E+00
  1.23755293E+01  1.23755293E+01 -2.47510585E+01  0.00000000E+00  1.23755293E+01
  1.23755293E+01 -2.47510585E+01  0.00000000E+00  1.23755293E+01  1.23755293E+01
 -2.47510585E+01  0.00000000E+00  1.23755293E+01  1.23755293E+01 -2.47510585E+01
  0.00000000E+00  1.23755293E+01  1.23755293E+01 -2.47510585E+01  0.00000000E+00
  1.23755293E+01  1.23755293E+01 -2.47510585E+01  0.00000000E+00  1.23755293E+01
  1.23755293E+01 -2.47510585E+01  0.00000000E+00  1.23755293E+01  1.23755293E+01
 -2.47510585E+01  0.00000000E+00  1.23755293E+01  1.23755293E+01 -2.47510585E+01
  0.00000000E+00  1.23755293E+01  1.23755293E+01 -2.47510585E+01  0.00000000E+00
  1.23755293E+01  1.23755293E+01 -2.47510585E+01  0.00000000E+00  1.23755293E+01
  1.23755293E+01 -2.47510585E+01  0.00000000E+00  1.23755293E+01  1.23755293E+01
 -2.47510585E+01  0.00000000E+00  1.23755293E+01  1.23755293E+01 -2.47510585E+01
  0.00000000E+00  1.23755293E+01  1.23755293E+01 -2.47510585E+01  0.00000000E+00
  1.23755293E+01  1.23755293E+01 -2.47510585E+01  0.00000000E+00  1.23755293E+01
  1.23755293E+01 -2.47510585E+01  0.00000000E+00  1.23755293E+01  1.23755293E+01
 -2.47510585E+01  0.00000000E+00  1.23755293E+01  1.23755293E+01 -2.47510585E+01
  0.00000000E+00  1.23755293E+01  1.23755293E+01 -2.47510585E+01  0.00000000E+00
  1.23755293E+01  1.23755293E+01 -2.47510585E+01  0.00000000E+00  1.23755293E+01
  1.23755293E+01 -2.47510585E+01  0.00000000E+00  1.23755293E+01  1.23755293E+01
 -2.47510585E+01  0.00000000E+00  1.23755293E+01  1.23755293E+01 -2.47510585E+01
  0.00000000E+00  1.23755293E+01  1.23755293E+01 -2.47510585E+01  0.00000000E+00
  1.23755293E+01  1.23755293E+01 -2.47510585E+01  0.00000000E+00  1.23755293E+01
  1.23755293E+01 -2.47510585E+01  0.00000000E+00  1.23755293E+01  1.23755293E+01
 -2.47510585E+01  0.00000000E+00  1.23755293E+01  1.23755293E+01 -2.47510585E+01
  0.00000000E+00  1.23755293E+01  1.23755293E+01 -2.47510585E+01  0.00000000E+00
  1.23755293E+01  1.23755293E+01 -2.47510585E+01  0.00000000E+00  1.23755293E+01
  1.23755293E+01 -2.47510585E+01  0.00000000E+00  1.23755293E+01  1.23755293E+01
 -2.47510585E+01  0.00000000E+00  1.23755293E+01  1.23755293E+01 -2.47510585E+01
  0.00000000E+00  1.23755293E+01  1.23755293E+01 -2.47510585E+01  0.00000000E+00
  1.23755293E+01  1.23755293E+01 -2.47510585E+01  0.00000000E+00  1.23755293E+01
  1.23755293E+01 -2.47510585E+01  0.00000000E+00  1.23755293E+01  1.23755293E+01
 -2.47510585E+01  0.00000000E+00  1.23755293E+01  1.23755293E+01 -2.47510585E+01
  0.00000000E+00  1.23755293E+01  1.23755293E+01 -2.47510585E+01  0.00000000E+00
  1.23755293E+01  1.23755293E+01 -2.47510585E+01  0.00000000E+00  1.23755293E+01
  1.23755293E+01 -2.47510585E+01  0.00000000E+00  1.23755293E+01  1.23755293E+01
 -2.47510585E+01  0.00000000E+00  1.23755293E+01  1.23755293E+01 -2.47510585E+01
  0.00000000E+00  1.23755293E+01  1.23755293E+01 -2.47510585E+01  0.00000000E+00
  1.23755293E+01  1.23755293E+01 -2.47510585E+01  0.00000000E+00  1.23755293E+01
  1.23755293E+01 -2.47510585E+01  0.00000000E+00  1.23755293E+01  1.23755293E+01
 -2.47510585E+01  0.00000000E+00  1.23755293E+01  1.23755293E+01 -2.47510585E+01
  0.00000000E+00  1.23755293E+01  1.23755293E+01 -2.47510585E+01  0.00000000E+00
  1.23755293E+01  1.23755293E+01 -2.47510585E+01  0.00000000E+00  1.23755293E+01
  1.23755293E+01 -2.47510585E+01  0.00000000E+00  1.23755293E+01  1.23755293E+01
 -2.47510585E+01  0.00000000E+00  1.23755293E+01  1.23755293E+01 -2.47510585E+01
  0.00000000E+00  1.23755293E+01  1.23755293E+01 -2.47510585E+01  0.00000000E+00
  1.23755293E+01  1.23755293E+01 -2.47510585E+01  0.00000000E+00  1.23755293E+01
  1.23755293E+01 -2.47510585E+01  0.00000000E+00  1.23755293E+01  1.23755293E+01
 -2.47510585E+01  0.00000000E+00  1.23755293E+01  1.23755293E+01 -2.47510585E+01
  0.00000000E+00  1.23755293E+01  1.23755293E+01 -2.47510585E+01  0.00000000E+00
  1.23755293E+01  1.23755293E+01 -2.47510585E+01  0.00000000E+00  1.23755293E+01
  1.23755293E+01 -2.47510585E+01  0.00000000E+00  1.23755293E+01  1.23755293E+01
 -2.47510585E+01  0.00000000E+00  1.23755293E+01  1.23755293E+01 -2.47510585E+01
  0.00000000E+00  1.23755293E+01  1.23755293E+01 -2.47510585E+01  0.00000000E+00
  1.23755293E+01  1.23755293E+01 -2.47510585E+01  0.00000000E+00  1.23755293E+01
  1.23755293E+01 -2.47510585E+01  0.00000000E+00  1.23755293E+01  1.23755293E+01
 -2.47510585E+01  0.00000000E+00  1.23755293E+01  1.23755293E+01 -2.47510585E+01
  0.00000000E+00  1.23755293E+01  1.23755293E+01 -2.47510585E+01  0.00000000E+00
  1.23755293E+01  1.23755293E+01 -2.47510585E+01  0.00000000E+00  1.23755293E+01
  1.23755293E+01 -2.47510585E+01  0.00000000E+00  1.23755293E+01  1.23755293E+01
 -2.47510585E+01  0.00000000E+00  1.23755293E+01  1.23755293E+01 -2.47510585E+01
  0.00000000E+00  1.23755293E+01  1.23755293E+01 -2.47510585E+01  0.00000000E+00
  1.23755293E+01  1.23755293E+01 -2.47510585E+01  0.00000000E+00  1.23755293E+01
  1.23755293E+01 -2.47510585E+01  0.00000000E+00  1.23755293E+01  1.23755293E+01
 -2.47510585E+01  0.00000000E+00  1.23755293E+01  1.23755293E+01 -2.47510585E+01
  0.00000000E+00  1.23755293E+01  1.23755293E+01 -2.47510585E+01  0.00000000E+00
  1.23755293E+01  1.23755293E+01 -2.47510585E+01  0.00000000E+00  1.23755293E+01
  1.23755293E+01 -2.47510585E+01  0.00000000E+00  1.23755293E+01  1.23755293E+01
 -2.47510585E+01  0.00000000E+00  1.23755293E+01  1.23755293E+01 -2.47510585E+01
  0.00000000E+00  1.23755293E+01  1.23755293E+01 -2.47510585E+01  0.00000000E+00
  1.23755293E+01  1.23755293E+01 -2.47510585E+01  0.00000000E+00  1.23755293E+01
  1.23755293E+01 -2.47510585E+01  0.00000000E+00  1.23755293E+01  1.23755293E+01
 -2.47510585E+01  0.00000000E+00  1.23755293E+01  1.23755293E+01 -2.47510585E+01
  0.00000000E+00  1.23755293E+01  1.23755293E+01 -2.47510585E+01  0.00000000E+00
  1.23755293E+01  1.23755293E+01 -2.47510585E+01  0.00000000E+00  1.23755293E+01
  1.23755293E+01 -2.47510585E+01  0.00000000E+00  1.23755293E+01  1.23755293E+01
 -2.47510585E+01  0.00000000E+00  1.23755293E+01  1.23755293E+01 -2.47510585E+01
  0.00000000E+00  1.23755293E+01  1.23755293E+01 -2.47510585E+01  0.00000000E+00
  1.23755293E+01  1.23755293E+01 -2.47510585E+01  0.00000000E+00  1.23755293E+01
  1.23755293E+01 -2.47510585E+01  0.00000000E+00  1.23755293E+01  1.23755293E+01
 -2.47510585E+01  0.00000000E+00  1.23755293E+01  1.23755293E+01 -2.47510585E+01
  0.00000000E+00  1.23755293E+01  1.23755293E+01 -2.47510585E+01  0.00000000E+00
  1.23755293E+01  1.23755293E+01 -2.47510585E+01  0.00000000E+00  1.23755293E+01
  1.23755293E+01 -2.47510585E+01  0.00000000E+00  1.23755293E+01  1.23755293E+01
 -2.47510585E+01  0.00000000E+00  1.23755293E+01  1.23755293E+01 -2.47510585E+01
  0.00000000E+00  1.23755293E+01  1.23755293E+01 -2.47510585E+01  0.00000000E+00
  1.23755293E+01  1.23755293E+01 -2.47510585E+01  0.00000000E+00  1.23755293E+01
  1.23755293E+01 -2.47510585E+01  0.00000000E+00  1.23755293E+01  1.23755293E+01
 -2.47510585E+01  0.00000000E+00  1.23755293E+01  1.23755293E+01 -2.47510585E+01
  0.00000000E+00  1.23755293E+01  1.23755293E+01 -2.47510585E+01  0.00000000E+00
  1.23755293E+01  1.23755293E+01 -2.47510585E+01  0.00000000E+00  1.23755293E+01
  1.23755293E+01 -2.47510585E+01  0.00000000E+00  1.23755293E+01  1.23755293E+01
 -2.47510585E+01  0.00000000E+00  1.23755293E+01  1.23755293E+01 -2.47510585E+01
  0.00000000E+00  1.23755293E+01  1.23755293E+01 -2.47510585E+01  0.00000000E+00
  1.23755293E+01  1.23755293E+01 -2.47510585E+01  0.00000000E+00  1.23755293E+01
  1.23755293E+01 -2.47510585E+01  0.00000000E+00  1.23755293E+01  1.23755293E+01
 -2.47510585E+01  0.00000000E+00  1.23755293E+01  1.23755293E+01 -2.47510585E+01
  0.00000000E+00  1.23755293E+01  1.23755293E+01 -2.47510585E+01  0.00000000E+00
  1.23755293E+01  1.23755293E+01 -2.47510585E+01  0.00000000E+00  1.23755293E+01
  1.23755293E+01 -2.47510585E+01  0.00000000E+00  1.23755293E+01  1.23755293E+01
 -2.47510585E+01  0.00000000E+00  1.23755293E+01  1.23755293E+01 -2.47510585E+01
  0.00000000E+00  1.23755293E+01  1.23755293E+01 -2.47510585E+01  0.00000000E+00
  1.23755293E+01  1.23755293E+01 -2.47510585E+01  0.00000000E+00  1.23755293E+01
  1.23755293E+01 -2.47510585E+01  0.00000000E+00  1.23755293E+01  1.23755293E+01
 -2.47510585E+01  0.00000000E+00  1.23755293E+01  1.23755293E+01 -2.47510585E+01
  0.00000000E+00  1.23755293E+01  1.23755293E+01 -2.47510585E+01  0.00000000E+00
  1.23755293E+01  1.23755293E+01 -2.47510585E+01  0.00000000E+00  1.23755293E+01
  1.23755293E+01 -2.47510585E+01  0.00000000E+00  1.23755293E+01  1.23755293E+01
 -2.47510585E+01  0.00000000E+00  1.23755293E+01  1.23755293E+01 -2.47510585E+01
  0.00000000E+00  1.23755293E+01  1.23755293E+01 -2.47510585E+01  0.00000000E+00
  1.23755293E+01  1.23755293E+01 -2.47510585E+01  0.00000000E+00  1.23755293E+01
  1.23755293E+01 -2.47510585E+01  0.00000000E+00  1.23755293E+01  1.23755293E+01
 -2.47510585E+01  0.00000000E+00  1.23755293E+01  1.23755293E+01 -2.47510585E+01
  0.00000000E+00  1.23755293E+01  1.23755293E+01 -2.47510585E+01  0.00000000E+00
  1.23755293E+01  1.23755293E+01 -2.47510585E+01  0.00000000E+00  1.23755293E+01
  1.23755293E+01 -2.47510585E+01  0.00000000E+00  1.23755293E+01  1.23755293E+01
 -2.47510585E+01  0.00000000E+00  1.23755293E+01  1.23755293E+01 -2.47510585E+01
  0.00000000E+00  1.23755293E+01  1.23755293E+01 -2.47510585E+01  0.00000000E+00
  1.23755293E+01  1.23755293E+01 -2.47510585E+01  0.00000000E+00  1.23755293E+01
  1.23755293E+01 -2.47510585E+01  0.00000000E+00  1.23755293E+01  1.23755293E+01
 -2.47510585E+01  0.00000000E+00  1.23755293E+01  1.23755293E+01 -2.47510585E+01
  0.00000000E+00  1.23755293E+01  1.23755293E+01 -2.47510585E+01  0.00000000E+00
  1.23755293E+01  1.23755293E+01 -2.47510585E+01  0.00000000E+00  1.23755293E+01
  1.23755293E+01 -2.47510585E+01  0.00000000E+00  1.23755293E+01  1.23755293E+01
 -2.47510585E+01  0.00000000E+00  1.23755293E+01  1.23755293E+01 -2.47510585E+01
  0.00000000E+00  1.23755293E+01  1.23755293E+01 -2.47510585E+01  0.00000000E+00
  1.23755293E+01  1.23755293E+01 -2.47510585E+01  0.00000000E+00  1.23755293E+01
  1.23755293E+01 -2.47510585E+01  0.00000000E+00  1.23755293E+01  1.23755293E+01
 -2.47510585E+01  0.00000000E+00  1.23755293E+01  1.23755293E+01 -2.47510585E+01
  0.00000000E+00  1.23755293E+01  1.23755293E+01 -2.47510585E+01  0.00000000E+00
  1.23755293E+01  1.23755293E+01 -2.47510585E+01  0.00000000E+00  1.23755293E+01
  1.23755293E+01 -2.47510585E+01  0.00000000E+00  1.23755293E+01  1.23755293E+01
 -2.47510585E+01  0.00000000E+00  1.23755293E+01  1.23755293E+01 -2.47510585E+01
  0.00000000E+00  1.23755293E+01  1.23755293E+01 -2.47510585E+01  0.00000000E+00
  1.23755293E+01  1.23755293E+01 -2.47510585E+01  0.00000000E+00  1.23755293E+01
  1.23755293E+01 -2.47510585E+01  0.00000000E+00  1.23755293E+01  1.23755293E+01
 -2.47510585E+01  0.00000000E+00  1.23755293E+01  1.23755293E+01 -2.47510585E+01
  0.00000000E+00  1.23755293E+01  1.23755293E+01 -2.47510585E+01  0.00000000E+00
  1.23755293E+01  1.23755293E+01 -2.47510585E+01  0.00000000E+00  1.23755293E+01
  1.23755293E+01 -2.47510585E+01  0.00000000E+00  1.23755293E+01  1.23755293E+01
 -2.47510585E+01  0.00000000E+00  1.23755293E+01  1.23755293E+01 -2.47510585E+01
  0.00000000E+00  1.23755293E+01  1.23755293E+01 -2.47510585E+01  0.00000000E+00
  1.23755293E+01  1.23755293E+01 -2.47510585E+01  0.00000000E+00  1.23755293E+01
  1.23755293E+01 -2.47510585E+01  0.00000000E+00  1.23755293E+01  1.23755293E+01
 -2.47510585E+01  0.00000000E+00  1.23755293E+01  1.23755293E+01 -2.47510585E+01
  0.00000000E+00  1.23755293E+01  1.23755293E+01 -2.47510585E+01  0.00000000E+00
  1.23755293E+01  1.23755293E+01 -2.47510585E+01  0.00000000E+00  1.23755293E+01
  1.23755293E+01 -2.47510585E+01  0.00000000E+00  1.23755293E+01  1.23755293E+01
 -2.47510585E+01  0.00000000E+00  1.23755293E+01  1.23755293E+01 -2.47510585E+01
  0.00000000E+00  1.23755293E+01  1.23755293E+01 -2.47510585E+01  0.00000000E+00
  1.23755293E+01  1.23755293E+01 -2.47510585E+01  0.00000000E+00  1.23755293E+01
  1.23755293E+01 -2.47510585E+01  0.00000000E+00  1.23755293E+01  1.23755293E+01
 -2.47510585E+01  0.00000000E+00  1.23755293E+01  1.23755293E+01 -2.47510585E+01
  0.00000000E+00  1.23755293E+01  1.23755293E+01 -2.47510585E+01  0.00000000E+00
  1.23755293E+01  1.23755293E+01 -2.47510585E+01  0.00000000E+00  1.23755293E+01
  1.23755293E+01 -2.47510585E+01  0.00000000E+00  1.23755293E+01  1.23755293E+01
 -2.47510585E+01  0.00000000E+00  1.23755293E+01  1.23755293E+01 -2.47510585E+01
  0.00000000E+00  1.23755293E+01  1.23755293E+01 -2.47510585E+01  0.00000000E+00
  1.23755293E+01  1.23755293E+01 -2.47510585E+01  0.00000000E+00  1.23755293E+01
  1.23755293E+01 -2.47510585E+01  0.00000000E+00  1.23755293E+01  1.23755293E+01
 -2.47510585E+01  0.00000000E+00  1.23755293E+01  1.23755293E+01 -2.47510585E+01
  0.00000000E+00  1.23755293E+01  1.23755293E+01 -2.47510585E+01  0.00000000E+00
  1.23755293E+01  1.23755293E+01 -2.47510585E+01  0.00000000E+00  1.23755293E+01
  1.23755293E+01 -2.47510585E+01  0.00000000E+00  1.23755293E+01  1.23755293E+01
 -2.47510585E+01  0.00000000E+00  1.23755293E+01  1.23755293E+01 -2.47510585E+01
  0.00000000E+00  1.23755293E+01  1.23755293E+01 -2.47510585E+01  0.00000000E+00
  1.23755293E+01  1.23755293E+01 -2.47510585E+01  0.00000000E+00  1.23755293E+01
  1.23755293E+01 -2.47510585E+01  0.00000000E+00  1.23755293E+01  1.23755293E+01
 -2.47510585E+01  0.00000000E+00  1.23755293E+01  1.23755293E+01 -2.47510585E+01
  0.00000000E+00  1.23755293E+01  1.23755293E+01 -2.47510585E+01  0.00000000E+00
  1.23755293E+01  1.23755293E+01 -2.47510585E+01  0.00000000E+00  1.23755293E+01
  1.23755293E+01 -2.47510585E+01  0.00000000E+00  1.23755293E+01  1.23755293E+01
 -2.47510585E+01  0.00000000E+00  1.23755293E+01  1.23755293E+01 -2.47510585E+01
  0.00000000E+00  1.23755293E+01  1.23755293E+01 -2.47510585E+01  0.00000000E+00
  1.23755293E+01  1.23755293E+01 -2.47510585E+01  0.00000000E+00  1.23755293E+01
  1.23755293E+01 -2.47510585E+01  0.00000000E+00  1.23755293E+01  1.23755293E+01
 -2.47510585E+01  0.00000000E+00  1.23755293E+01  1.23755293E+01 -2.47510585E+01
  0.00000000E+00  1.23755293E+01  1.23755293E+01 -2.47510585E+01  0.00000000E+00
  1.23755293E+01  1.23755293E+01 -2.47510585E+01  0.00000000E+00  1.23755293E+01
  1.23755293E+01 -2.47510585E+01  0.00000000E+00  1.23755293E+01  1.23755293E+01
 -2.47510585E+01  0.00000000E+00  1.23755293E+01  1.23755293E+01 -2.47510585E+01
  0.00000000E+00  1.23755293E+01  1.23755293E+01 -2.47510585E+01  0.00000000E+00
  1.23755293E+01  1.23755293E+01 -2.47510585E+01  0.00000000E+00  1.23755293E+01
  1.23755293E+01 -2.47510585E+01  0.00000000E+00  1.23755293E+01  1.23755293E+01
 -2.47510585E+01  0.00000000E+00  1.23755293E+01  1.23755293E+01 -2.47510585E+01
  0.00000000E+00  1.23755293E+01  1.23755293E+01 -2.47510585E+01  0.00000000E+00
  1.23755293E+01  1.23755293E+01 -2.47510585E+01  0.00000000E+00  1.23755293E+01
  1.23755293E+01 -2.47510585E+01  0.00000000E+00  1.23755293E+01  1.23755293E+01
 -2.47510585E+01  0.00000000E+00  1.23755293E+01  1.23755293E+01 -2.47510585E+01
  0.00000000E+00  1.23755293E+01  1.23755293E+01 -2.47510585E+01  0.00000000E+00
  1.23755293E+01  1.23755293E+01 -2.47510585E+01  0.00000000E+00  1.23755293E+01
  1.23755293E+01 -2.47510585E+01  0.00000000E+00  1.23755293E+01  1.23755293E+01
 -2.47510585E+01  0.00000000E+00  1.23755293E+01  1.23755293E+01 -2.47510585E+01
  0.00000000E+00  1.23755293E+01  1.23755293E+01 -2.47510585E+01  0.00000000E+00
  1.23755293E+01  1.23755293E+01 -2.47510585E+01  0.00000000E+00  1.23755293E+01
  1.23755293E+01 -2.47510585E+01  0.00000000E+00  1.23755293E+01  1.23755293E+01
 -2.47510585E+01  0.00000000E+00  1.23755293E+01  1.23755293E+01 -2.47510585E+01
  0.00000000E+00  1.23755293E+01  1.23755293E+01 -2.47510585E+01  0.00000000E+00
  1.23755293E+01  1.23755293E+01 -2.47510585E+01  0.00000000E+00  1.23755293E+01
  1.23755293E+01 -2.47510585E+01  0.00000000E+00  1.23755293E+01  1.23755293E+01
 -2.47510585E+01  0.00000000E+00  1.23755293E+01  1.23755293E+01 -2.47510585E+01
  0.00000000E+00  1.23755293E+01  1.23755293E+01 -2.47510585E+01  0.00000000E+00
  1.23755293E+01  1.23755293E+01 -2.47510585E+01  0.00000000E+00  1.23755293E+01
  1.23755293E+01 -2.47510585E+01  0.00000000E+00  1.23755293E+01  1.23755293E+01
 -2.47510585E+01  0.00000000E+00  1.23755293E+01  1.23755293E+01 -2.47510585E+01
  0.00000000E+00  1.23755293E+01  1.23755293E+01 -2.47510585E+01  0.00000000E+00
  1.23755293E+01  1.23755293E+01 -2.47510585E+01  0.00000000E+00  1.23755293E+01
  1.23755293E+01 -2.47510585E+01  0.00000000E+00  1.23755293E+01  1.23755293E+01
 -2.47510585E+01  0.00000000E+00  1.23755293E+01  1.23755293E+01 -2.47510585E+01
  0.00000000E+00  1.23755293E+01  1.23755293E+01 -2.47510585E+01  0.00000000E+00
  1.23755293E+01  1.23755293E+01 -2.47510585E+01  0.00000000E+00  1.23755293E+01
  1.23755293E+01 -2.47510585E+01  0.00000000E+00  1.23755293E+01  1.23755293E+01
 -2.47510585E+01  0.00000000E+00  1.23755293E+01  1.23755293E+01 -2.47510585E+01
  0.00000000E+00  1.23755293E+01  1.23755293E+01 -2.47510585E+01  0.00000000E+00
  1.23755293E+01  1.23755293E+01 -2.47510585E+01  0.00000000E+00  1.23755293E+01
  1.23755293E+01 -2.47510585E+01  0.00000000E+00  1.23755293E+01  1.23755293E+01
 -2.47510585E+01  0.00000000E+00  1.23755293E+01  1.23755293E+01 -2.47510585E+01
  0.00000000E+00  1.23755293E+01  1.23755293E+01 -2.47510585E+01  0.00000000E+00
  1.23755293E+01  1.23755293E+01 -2.47510585E+01  0.00000000E+00  1.23755293E+01
  1.23755293E+01 -2.47510585E+01  0.00000000E+00  1.23755293E+01  1.23755293E+01
 -2.47510585E+01  0.00000000E+00  1.23755293E+01  1.23755293E+01 -2.47510585E+01
  0.00000000E+00  1.23755293E+01  1.23755293E+01 -2.47510585E+01  0.00000000E+00
  1.23755293E+01  1.23755293E+01 -2.47510585E+01  0.00000000E+00  1.23755293E+01
  1.23755293E+01 -2.47510585E+01  0.00000000E+00  1.23755293E+01  1.23755293E+01
 -2.47510585E+01  0.00000000E+00  1.23755293E+01  1.23755293E+01 -2.47510585E+01
  0.00000000E+00  1.23755293E+01  1.23755293E+01 -2.47510585E+01  0.00000000E+00
  1.23755293E+01  1.23755293E+01 -2.47510585E+01  0.00000000E+00  1.23755293E+01
  1.23755293E+01 -2.47510585E+01  0.00000000E+00  1.23755293E+01  1.23755293E+01
 -2.47510585E+01  0.00000000E+00  1.23755293E+01  1.23755293E+01 -2.47510585E+01
  0.00000000E+00  1.23755293E+01  1.23755293E+01 -2.47510585E+01  0.00000000E+00
  1.23755293E+01  1.23755293E+01 -2.47510585E+01  0.00000000E+00  1.23755293E+01
  1.23755293E+01 -2.47510585E+01  0.00000000E+00  1.23755293E+01  1.23755293E+01
 -2.47510585E+01  0.00000000E+00  1.23755293E+01  1.23755293E+01 -2.47510585E+01
  0.00000000E+00  1.23755293E+01  1.23755293E+01 -2.47510585E+01  0.00000000E+00
  1.23755293E+01  1.23755293E+01 -2.47510585E+01  0.00000000E+00  1.23755293E+01
  1.23755293E+01 -2.47510585E+01  0.00000000E+00  1.23755293E+01  1.23755293E+01
 -2.47510585E+01  0.00000000E+00  1.23755293E+01  1.23755293E+01 -2.47510585E+01
  0.00000000E+00  1.23755293E+01  1.23755293E+01 -2.47510585E+01  0.00000000E+00
  1.23755293E+01  1.23755293E+01 -2.47510585E+01  0.00000000E+00  1.23755293E+01
  1.23755293E+01 -2.47510585E+01  0.00000000E+00  1.23755293E+01  1.23755293E+01
 -2.47510585E+01  0.00000000E+00  1.23755293E+01  1.23755293E+01 -2.47510585E+01
  0.00000000E+00  1.23755293E+01  1.23755293E+01 -2.47510585E+01  0.00000000E+00
  1.23755293E+01  1.23755293E+01 -2.47510585E+01  0.00000000E+00  1.23755293E+01
  1.23755293E+01 -2.47510585E+01  0.00000000E+00  1.23755293E+01  1.23755293E+01
 -2.47510585E+01  0.00000000E+00  1.23755293E+01  1.23755293E+01 -2.47510585E+01
  0.00000000E+00  1.23755293E+01  1.23755293E+01 -2.47510585E+01  0.00000000E+00
  1.23755293E+01  1.23755293E+01 -2.47510585E+01  0.00000000E+00  1.23755293E+01
  1.23755293E+01 -2.47510585E+01  0.00000000E+00  1.23755293E+01  1.23755293E+01
 -2.47510585E+01  0.00000000E+00  1.23755293E+01  1.23755293E+01 -2.47510585E+01
  0.00000000E+00  1.23755293E+01  1.23755293E+01 -2.47510585E+01  0.00000000E+00
  1.23755293E+01  1.23755293E+01 -2.47510585E+01  0.00000000E+00  1.23755293E+01
  1.23755293E+01 -2.47510585E+01  0.00000000E+00  1.23755293E+01  1.23755293E+01
 -2.47510585E+01  0.00000000E+00  1.23755293E+01  1.23755293E+01 -2.47510585E+01
  0.00000000E+00  1.23755293E+01  1.23755293E+01 -2.47510585E+01  0.00000000E+00
  1.23755293E+01  1.23755293E+01 -2.47510585E+01  0.00000000E+00  1.23755293E+01
  1.23755293E+01 -2.47510585E+01  0.00000000E+00  1.23755293E+01  1.23755293E+01
 -2.47510585E+01  0.00000000E+00  1.23755293E+01  1.23755293E+01 -2.47510585E+01
  0.00000000E+00  1.23755293E+01  1.23755293E+01 -2.47510585E+01  0.00000000E+00
  1.23755293E+01  1.23755293E+01 -2.47510585E+01  0.00000000E+00  1.23755293E+01
  1.23755293E+01 -2.47510585E+01  0.00000000E+00  1.23755293E+01  1.23755293E+01
 -2.47510585E+01  0.00000000E+00  1.23755293E+01  1.23755293E+01 -2.47510585E+01
  0.00000000E+00  1.23755293E+01  1.23755293E+01 -2.47510585E+01  0.00000000E+00
  1.23755293E+01  1.23755293E+01 -2.47510585E+01  0.00000000E+00  1.23755293E+01
  1.23755293E+01 -2.47510585E+01  0.00000000E+00  1.23755293E+01  1.23755293E+01
 -2.47510585E+01  0.00000000E+00  1.23755293E+01  1.23755293E+01 -2.47510585E+01
  0.00000000E+00  1.23755293E+01  1.23755293E+01 -2.47510585E+01  0.00000000E+00
  1.23755293E+01  1.23755293E+01 -2.47510585E+01  0.00000000E+00  1.23755293E+01
  1.23755293E+01 -2.47510585E+01  0.00000000E+00  1.23755293E+01  1.23755293E+01
 -2.47510585E+01  0.00000000E+00  1.23755293E+01  1.23755293E+01 -2.47510585E+01
  0.00000000E+00  1.23755293E+01  1.23755293E+01 -2.47510585E+01  0.00000000E+00
  1.23755293E+01  1.23755293E+01 -2.47510585E+01  0.00000000E+00  1.23755293E+01
  1.23755293E+01 -2.47510585E+01  0.00000000E+00  1.23755293E+01  1.23755293E+01
 -2.47510585E+01  0.00000000E+00  1.23755293E+01  1.23755293E+01 -2.47510585E+01
  0.00000000E+00  1.23755293E+01  1.23755293E+01 -2.47510585E+01  0.00000000E+00
  1.23755293E+01  1.23755293E+01 -2.47510585E+01  0.00000000E+00  1.23755293E+01
  1.23755293E+01 -2.47510585E+01  0.00000000E+00  1.23755293E+01  1.23755293E+01
 -2.47510585E+01  0.00000000E+00  1.23755293E+01  1.23755293E+01 -2.47510585E+01
  0.00000000E+00  1.23755293E+01  1.23755293E+01 -2.47510585E+01  0.00000000E+00
  1.23755293E+01  1.23755293E+01 -2.47510585E+01  0.00000000E+00  1.23755293E+01
  1.23755293E+01 -2.47510585E+01  0.00000000E+00  1.23755293E+01  1.23755293E+01
 -2.47510585E+01  0.00000000E+00  1.23755293E+01  1.23755293E+01 -2.47510585E+01
  0.00000000E+00  1.23755293E+01  1.23755293E+01 -2.47510585E+01  0.00000000E+00
  1.23755293E+01  1.23755293E+01 -2.47510585E+01  0.00000000E+00  1.23755293E+01
  1.23755293E+01 -2.47510585E+01  0.00000000E+00  1.23755293E+01  1.23755293E+01
 -2.47510585E+01  0.00000000E+00  1.23755293E+01  1.23755293E+01 -2.47510585E+01
  0.00000000E+00  1.23755293E+01  1.23755293E+01 -2.47510585E+01  0.00000000E+00
  1.23755293E+01  1.23755293E+01 -2.47510585E+01  0.00000000E+00  1.23755293E+01
  1.23755293E+01 -2.47510585E+01  0.00000000E+00  1.23755293E+01  1.23755293E+01
 -2.47510585E+01  0.00000000E+00  1.23755293E+01  1.23755293E+01 -2.47510585E+01
  0.00000000E+00  1.23755293E+01  1.23755293E+01 -2.47510585E+01  0.00000000E+00
  1.23755293E+01  1.23755293E+01 -2.47510585E+01  0.00000000E+00  1.23755293E+01
  1.23755293E+01 -2.47510585E+01  0.00000000E+00  1.23755293E+01  1.23755293E+01
 -2.47510585E+01  0.00000000E+00  1.23755293E+01  1.23755293E+01 -2.47510585E+01
  0.00000000E+00  1.23755293E+01  1.23755293E+01 -2.47510585E+01  0.00000000E+00
  1.23755293E+01  1.23755293E+01 -2.47510585E+01  0.00000000E+00  1.23755293E+01
  1.23755293E+01 -2.47510585E+01  0.00000000E+00  1.23755293E+01  1.23755293E+01
 -2.47510585E+01  0.00000000E+00  1.23755293E+01  1.23755293E+01 -2.47510585E+01
  0.00000000E+00  1.23755293E+01  1.23755293E+01 -2.47510585E+01  0.00000000E+00
  1.23755293E+01  1.23755293E+01 -2.47510585E+01  0.00000000E+00  1.23755293E+01
  1.23755293E+01 -2.47510585E+01  0.00000000E+00  1.23755293E+01  1.23755293E+01
 -2.47510585E+01  0.00000000E+00  1.23755293E+01  1.23755293E+01 -2.47510585E+01
  0.00000000E+00  1.23755293E+01  1.23755293E+01 -2.47510585E+01  0.00000000E+00
  1.23755293E+01  1.23755293E+01 -2.47510585E+01  0.00000000E+00  1.23755293E+01
  1.23755293E+01 -2.47510585E+01  0.00000000E+00  1.23755293E+01  1.23755293E+01
 -2.47510585E+01  0.00000000E+00  1.23755293E+01  1.23755293E+01 -2.47510585E+01
  0.00000000E+00  1.23755293E+01  1.23755293E+01 -2.47510585E+01  0.00000000E+00
  1.23755293E+01  1.23755293E+01 -2.47510585E+01  0.00000000E+00  1.23755293E+01
  1.23755293E+01 -2.47510585E+01  0.00000000E+00  1.23755293E+01  1.23755293E+01
 -2.47510585E+01  0.00000000E+00  1.23755293E+01  1.23755293E+01 -2.47510585E+01
  0.00000000E+00  1.23755293E+01  1.23755293E+01 -2.47510585E+01  0.00000000E+00
  1.23755293E+01  1.23755293E+01 -2.47510585E+01  0.00000000E+00  1.23755293E+01
  1.23755293E+01 -2.47510585E+01  0.00000000E+00  1.23755293E+01  1.23755293E+01
 -2.47510585E+01  0.00000000E+00  1.23755293E+01  1.23755293E+01 -2.47510585E+01
  0.00000000E+00  1.23755293E+01  1.23755293E+01 -2.47510585E+01  0.00000000E+00
  1.23755293E+01  1.23755293E+01 -2.47510585E+01  0.00000000E+00  1.23755293E+01
  1.23755293E+01 -2.47510585E+01  0.00000000E+00  1.23755293E+01  1.23755293E+01
 -2.47510585E+01  0.00000000E+00  1.23755293E+01  1.23755293E+01 -2.47510585E+01
  0.00000000E+00  1.23755293E+01  1.23755293E+01 -2.47510585E+01  0.00000000E+00
  1.23755293E+01  1.23755293E+01 -2.47510585E+01  0.00000000E+00  1.23755293E+01
  1.23755293E+01 -2.47510585E+01  0.00000000E+00  1.23755293E+01  1.23755293E+01
 -2.47510585E+01  0.00000000E+00  1.23755293E+01  1.23755293E+01 -2.47510585E+01
  0.00000000E+00  1.23755293E+01  1.23755293E+01 -2.47510585E+01  0.00000000E+00
  1.23755293E+01  1.23755293E+01 -2.47510585E+01  0.00000000E+00  1.23755293E+01
  1.23755293E+01 -2.47510585E+01  0.00000000E+00  1.23755293E+01  1.23755293E+01
 -2.47510585E+01  0.00000000E+00  1.23755293E+01  1.23755293E+01 -2.47510585E+01
  0.00000000E+00  1.23755293E+01  1.23755293E+01 -2.47510585E+01  0.00000000E+00
  1.23755293E+01  1.23755293E+01 -2.47510585E+01  0.00000000E+00  1.23755293E+01
  1.23755293E+01 -2.47510585E+01  0.00000000E+00  1.23755293E+01  1.23755293E+01
 -2.47510585E+01  0.00000000E+00  1.23755293E+01  1.23755293E+01 -2.47510585E+01
  0.00000000E+00  1.23755293E+01  1.23755293E+01 -2.47510585E+01  0.00000000E+00
  1.23755293E+01  1.23755293E+01 -2.47510585E+01  0.00000000E+00  1.23755293E+01
  1.23755293E+01 -2.47510585E+01  0.00000000E+00  1.23755293E+01  1.23755293E+01
 -2.47510585E+01  0.00000000E+00  1.23755293E+01  1.23755293E+01 -2.47510585E+01
  0.00000000E+00  1.23755293E+01  1.23755293E+01 -2.47510585E+01  0.00000000E+00
  1.23755293E+01  1.23755293E+01 -2.47510585E+01  0.00000000E+00  1.23755293E+01
  1.23755293E+01 -2.47510585E+01  0.00000000E+00  1.23755293E+01  1.23755293E+01
 -2.47510585E+01  0.00000000E+00  1.23755293E+01  1.23755293E+01 -2.47510585E+01
  0.00000000E+00  1.23755293E+01  1.23755293E+01 -2.47510585E+01  0.00000000E+00
  1.23755293E+01  1.23755293E+01 -2.47510585E+01  0.00000000E+00  1.23755293E+01
  1.23755293E+01 -2.47510585E+01  0.00000000E+00  1.23755293E+01  1.23755293E+01
 -2.47510585E+01  0.00000000E+00  1.23755293E+01  1.23755293E+01 -2.47510585E+01
  0.00000000E+00  1.23755293E+01  1.23755293E+01 -2.47510585E+01  0.00000000E+00
  1.23755293E+01  1.23755293E+01 -2.47510585E+01  0.00000000E+00  1.23755293E+01
  1.23755293E+01 -2.47510585E+01  0.00000000E+00  1.23755293E+01  1.23755293E+01
 -2.47510585E+01  0.00000000E+00  1.23755293E+01  1.23755293E+01 -2.47510585E+01
  0.00000000E+00  1.23755293E+01  1.23755293E+01 -2.47510585E+01  0.00000000E+00
  1.23755293E+01  1.23755293E+01 -2.47510585E+01  0.00000000E+00  1.23755293E+01
  1.23755293E+01 -2.47510585E+01  0.00000000E+00  1.23755293E+01  1.23755293E+01
 -2.47510585E+01  0.00000000E+00  1.23755293E+01  1.23755293E+01 -2.47510585E+01
  0.00000000E+00  1.23755293E+01  1.23755293E+01 -2.47510585E+01  0.00000000E+00
  1.23755293E+01  1.23755293E+01 -2.47510585E+01  0.00000000E+00  1.23755293E+01
  1.23755293E+01 -2.47510585E+01  0.00000000E+00  1.23755293E+01  1.23755293E+01
 -2.47510585E+01  0.00000000E+00  1.23755293E+01  1.23755293E+01 -2.47510585E+01
  0.00000000E+00  1.23755293E+01  1.23755293E+01 -2.47510585E+01  0.00000000E+00
  1.23755293E+01  1.23755293E+01 -2.47510585E+01  0.00000000E+00  1.23755293E+01
  1.23755293E+01 -2.47510585E+01  0.00000000E+00  1.23755293E+01  1.23755293E+01
 -2.47510585E+01  0.00000000E+00  1.23755293E+01  1.23755293E+01 -2.47510585E+01
  0.00000000E+00  1.23755293E+01  1.23755293E+01 -2.47510585E+01  0.00000000E+00
  1.23755293E+01  1.23755293E+01 -2.47510585E+01  0.00000000E+00  1.23755293E+01
  1.23755293E+01 -2.47510585E+01  0.00000000E+00  1.23755293E+01  1.23755293E+01
 -2.47510585E+01  0.00000000E+00  1.23755293E+01  1.23755293E+01 -2.47510585E+01
  0.00000000E+00  1.23755293E+01  1.23755293E+01 -2.47510585E+01  0.00000000E+00
  1.23755293E+01  1.23755293E+01 -2.47510585E+01  0.00000000E+00  1.23755293E+01
  1.23755293E+01 -2.47510585E+01  0.00000000E+00  1.23755293E+01  1.23755293E+01
 -2.47510585E+01  0.00000000E+00  1.23755293E+01  1.23755293E+01 -2.47510585E+01
  0.00000000E+00  1.23755293E+01  1.23755293E+01 -2.47510585E+01  0.00000000E+00
  1.23755293E+01  1.23755293E+01 -2.47510585E+01  0.00000000E+00  1.23755293E+01
  1.23755293E+01 -2.47510585E+01  0.00000000E+00  1.23755293E+01  1.23755293E+01
 -2.47510585E+01  0.00000000E+00  1.23755293E+01  1.23755293E+01 -2.47510585E+01
  0.00000000E+00  1.23755293E+01  1.23755293E+01 -2.47510585E+01  0.00000000E+00
  1.23755293E+01  1.23755293E+01 -2.47510585E+01  0.00000000E+00  1.23755293E+01
  1.23755293E+01 -2.47510585E+01  0.00000000E+00  1.23755293E+01  1.23755293E+01
 -2.47510585E+01  0.00000000E+00  1.23755293E+01  1.23755293E+01 -2.47510585E+01
  0.00000000E+00  1.23755293E+01  1.23755293E+01 -2.47510585E+01  0.00000000E+00
  1.23755293E+01  1.23755293E+01 -2.47510585E+01  0.00000000E+00  1.23755293E+01
  1.23755293E+01 -2.47510585E+01  0.00000000E+00  1.23755293E+01  1.23755293E+01
 -2.47510585E+01  0.00000000E+00  1.23755293E+01  1.23755293E+01 -2.47510585E+01
  0.00000000E+00  1.23755293E+01  1.23755293E+01 -2.47510585E+01  0.00000000E+00
  1.23755293E+01  1.23755293E+01 -2.47510585E+01  0.00000000E+00  1.23755293E+01
  1.23755293E+01 -2.47510585E+01  0.00000000E+00  1.23755293E+01  1.23755293E+01
 -2.47510585E+01  0.00000000E+00  1.23755293E+01  1.23755293E+01 -2.47510585E+01
  0.00000000E+00  1.23755293E+01  1.23755293E+01 -2.47510585E+01  0.00000000E+00
  1.23755293E+01  1.23755293E+01 -2.47510585E+01  0.00000000E+00  1.23755293E+01
  1.23755293E+01 -2.47510585E+01  0.00000000E+00  1.23755293E+01  1.23755293E+01
 -2.47510585E+01  0.00000000E+00  1.23755293E+01  1.23755293E+01 -2.47510585E+01
  0.00000000E+00  1.23755293E+01  1.23755293E+01 -2.47510585E+01  0.00000000E+00
  1.23755293E+01  1.23755293E+01 -2.47510585E+01  0.00000000E+00  1.23755293E+01
  1.23755293E+01 -2.47510585E+01  0.00000000E+00  1.23755293E+01  1.23755293E+01
 -2.47510585E+01  0.00000000E+00  1.23755293E+01  1.23755293E+01 -2.47510585E+01
  0.00000000E+00  1.23755293E+01  1.23755293E+01 -2.47510585E+01  0.00000000E+00
  1.23755293E+01  1.23755293E+01 -2.47510585E+01  0.00000000E+00  1.23755293E+01
  1.23755293E+01 -2.47510585E+01  0.00000000E+00  1.23755293E+01  1.23755293E+01
 -2.47510585E+01  0.00000000E+00  1.23755293E+01  1.23755293E+01 -2.47510585E+01
  0.00000000E+00  1.23755293E+01  1.23755293E+01 -2.47510585E+01  0.00000000E+00
  1.23755293E+01  1.23755293E+01 -2.47510585E+01  0.00000000E+00  1.23755293E+01
  1.23755293E+01 -2.47510585E+01  0.00000000E+00  1.23755293E+01  1.23755293E+01
 -2.47510585E+01  0.00000000E+00  1.23755293E+01  1.23755293E+01 -2.47510585E+01
  0.00000000E+00  1.23755293E+01  1.23755293E+01 -2.47510585E+01  0.00000000E+00
  1.23755293E+01  1.23755293E+01 -2.47510585E+01  0.00000000E+00  1.23755293E+01
  1.23755293E+01 -2.47510585E+01  0.00000000E+00  1.23755293E+01  1.23755293E+01
 -2.47510585E+01  0.00000000E+00  1.23755293E+01  1.23755293E+01 -2.47510585E+01
  0.00000000E+00  1.23755293E+01  1.23755293E+01 -2.47510585E+01  0.00000000E+00
  1.23755293E+01  1.23755293E+01 -2.47510585E+01  0.00000000E+00  1.23755293E+01
  1.23755293E+01 -2.47510585E+01  0.00000000E+00  1.23755293E+01  1.23755293E+01
 -2.47510585E+01  0.00000000E+00  1.23755293E+01  1.23755293E+01 -2.47510585E+01
  0.00000000E+00  1.23755293E+01  1.23755293E+01 -2.47510585E+01  0.00000000E+00
  1.23755293E+01  1.23755293E+01 -2.47510585E+01  0.00000000E+00  1.23755293E+01
  1.23755293E+01 -2.47510585E+01  0.00000000E+00  1.23755293E+01  1.23755293E+01
 -2.47510585E+01  0.00000000E+00  1.23755293E+01  1.23755293E+01 -2.47510585E+01
  0.00000000E+00  1.23755293E+01  1.23755293E+01 -2.47510585E+01  0.00000000E+00
  1.23755293E+01  1.23755293E+01 -2.47510585E+01  0.00000000E+00  1.23755293E+01
  1.23755293E+01 -2.47510585E+01  0.00000000E+00  1.23755293E+01  1.23755293E+01
 -2.47510585E+01  0.00000000E+00  1.23755293E+01  1.23755293E+01 -2.47510585E+01
  0.00000000E+00  1.23755293E+01  1.23755293E+01 -2.47510585E+01  0.00000000E+00
  1.23755293E+01  1.23755293E+01 -2.47510585E+01  0.00000000E+00  1.23755293E+01
  1.23755293E+01 -2.47510585E+01  0.00000000E+00  1.23755293E+01  1.23755293E+01
 -2.47510585E+01  0.00000000E+00  1.23755293E+01  1.23755293E+01 -2.47510585E+01
  0.00000000E+00  1.23755293E+01  1.23755293E+01 -2.47510585E+01  0.00000000E+00
  1.23755293E+01  1.23755293E+01 -2.47510585E+01  0.00000000E+00  1.23755293E+01
  1.23755293E+01 -2.47510585E+01  0.00000000E+00  1.23755293E+01  1.23755293E+01
 -2.47510585E+01  0.00000000E+00  1.23755293E+01  1.23755293E+01 -2.47510585E+01
  0.00000000E+00  1.23755293E+01  1.23755293E+01 -2.47510585E+01  0.00000000E+00
  1.23755293E+01  1.23755293E+01 -2.47510585E+01  0.00000000E+00  1.23755293E+01
  1.23755293E+01 -2.47510585E+01  0.00000000E+00  1.23755293E+01  1.23755293E+01
 -2.47510585E+01  0.00000000E+00  1.23755293E+01  1.23755293E+01 -2.47510585E+01
  0.00000000E+00  1.23755293E+01  1.23755293E+01 -2.47510585E+01  0.00000000E+00
  1.23755293E+01  1.23755293E+01 -2.47510585E+01  0.00000000E+00  1.23755293E+01
  1.23755293E+01 -2.47510585E+01  0.00000000E+00  1.23755293E+01  1.23755293E+01
 -2.47510585E+01  0.00000000E+00  1.23755293E+01  1.23755293E+01 -2.47510585E+01
  0.00000000E+00  1.23755293E+01  1.23755293E+01 -2.47510585E+01  0.00000000E+00
  1.23755293E+01  1.23755293E+01 -2.47510585E+01  0.00000000E+00  1.23755293E+01
  1.23755293E+01 -2.47510585E+01  0.00000000E+00  1.23755293E+01  1.23755293E+01
 -2.47510585E+01  0.00000000E+00  1.23755293E+01  1.23755293E+01 -2.47510585E+01
  0.00000000E+00  1.23755293E+01  1.23755293E+01 -2.47510585E+01  0.00000000E+00
  1.23755293E+01  1.23755293E+01 -2.47510585E+01  0.00000000E+00  1.23755293E+01
  1.23755293E+01 -2.47510585E+01  0.00000000E+00  1.23755293E+01  1.23755293E+01
 -2.47510585E+01  0.00000000E+00  1.23755293E+01  1.23755293E+01 -2.47510585E+01
  0.00000000E+00  1.23755293E+01  1.23755293E+01 -2.47510585E+01  0.00000000E+00
  1.23755293E+01  1.23755293E+01 -2.47510585E+01  0.00000000E+00  1.23755293E+01
  1.23755293E+01 -2.47510585E+01  0.00000000E+00  1.23755293E+01  1.23755293E+01
 -2.47510585E+01  0.00000000E+00  1.23755293E+01  1.23755293E+01 -2.47510585E+01
  0.00000000E+00  1.23755293E+01  1.23755293E+01 -2.47510585E+01  0.00000000E+00
  1.23755293E+01  1.23755293E+01 -2.47510585E+01  0.00000000E+00  1.23755293E+01
  1.23755293E+01 -2.47510585E+01  0.00000000E+00  1.23755293E+01  1.23755293E+01
 -2.47510585E+01  0.00000000E+00  1.23755293E+01  1.23755293E+01 -2.47510585E+01
  0.00000000E+00  1.23755293E+01  1.23755293E+01 -2.47510585E+01  0.00000000E+00
  1.23755293E+01  1.23755293E+01 -2.47510585E+01  0.00000000E+00  1.23755293E+01
  1.23755293E+01 -2.47510585E+01  0.00000000E+00  1.23755293E+01  1.23755293E+01
 -2.47510585E+01  0.00000000E+00  1.23755293E+01  1.23755293E+01 -2.47510585E+01
  0.00000000E+00  1.23755293E+01  1.23755293E+01 -2.47510585E+01  0.00000000E+00
  1.23755293E+01  1.23755293E+01 -2.47510585E+01  0.00000000E+00  1.23755293E+01
  1.23755293E+01 -2.47510585E+01  0.00000000E+00  1.23755293E+01  1.23755293E+01
 -2.47510585E+01  0.00000000E+00  1.23755293E+01  1.23755293E+01 -2.47510585E+01
  0.00000000E+00  1.23755293E+01  1.23755293E+01 -2.47510585E+01  0.00000000E+00
  1.23755293E+01  1.23755293E+01 -2.47510585E+01  0.00000000E+00  1.23755293E+01
  1.23755293E+01 -2.47510585E+01  0.00000000E+00  1.23755293E+01  1.23755293E+01
 -2.47510585E+01  0.00000000E+00  1.23755293E+01  1.23755293E+01 -2.47510585E+01
  0.00000000E+00  1.23755293E+01  1.23755293E+01 -2.47510585E+01  0.00000000E+00
  1.23755293E+01  1.23755293E+01 -2.47510585E+01  0.00000000E+00  1.23755293E+01
  1.23755293E+01 -2.47510585E+01  0.00000000E+00  1.23755293E+01  1.23755293E+01
 -2.47510585E+01  0.00000000E+00  1.23755293E+01  1.23755293E+01 -2.47510585E+01
  0.00000000E+00  1.23755293E+01  1.23755293E+01 -2.47510585E+01  0.00000000E+00
  1.23755293E+01  1.23755293E+01 -2.47510585E+01  0.00000000E+00  1.23755293E+01
  1.23755293E+01 -2.47510585E+01  0.00000000E+00  1.23755293E+01  1.23755293E+01
 -2.47510585E+01  0.00000000E+00  1.23755293E+01  1.23755293E+01 -2.47510585E+01
  0.00000000E+00  1.23755293E+01  1.23755293E+01 -2.47510585E+01  0.00000000E+00
  1.23755293E+01  1.23755293E+01 -2.47510585E+01  0.00000000E+00  1.23755293E+01
  1.23755293E+01 -2.47510585E+01  0.00000000E+00  1.23755293E+01  1.23755293E+01
 -2.47510585E+01  0.00000000E+00  1.23755293E+01  1.23755293E+01 -2.47510585E+01
  0.00000000E+00  1.23755293E+01  1.23755293E+01 -2.47510585E+01  0.00000000E+00
  1.23755293E+01  1.23755293E+01 -2.47510585E+01  0.00000000E+00  1.23755293E+01
  1.23755293E+01 -2.47510585E+01  0.00000000E+00  1.23755293E+01  1.23755293E+01
 -2.47510585E+01  0.00000000E+00  1.23755293E+01  1.23755293E+01 -2.47510585E+01
  0.00000000E+00  1.23755293E+01  1.23755293E+01 -2.47510585E+01  0.00000000E+00
  1.23755293E+01  1.23755293E+01 -2.47510585E+01  0.00000000E+00  1.23755293E+01
  1.23755293E+01 -2.47510585E+01  0.00000000E+00  1.23755293E+01  1.23755293E+01
 -2.47510585E+01  0.00000000E+00  1.23755293E+01  1.23755293E+01 -2.47510585E+01
  0.00000000E+00  1.23755293E+01  1.23755293E+01 -2.47510585E+01  0.00000000E+00
  1.23755293E+01  1.23755293E+01 -2.47510585E+01  0.00000000E+00  1.23755293E+01
  1.23755293E+01 -2.47510585E+01  0.00000000E+00  1.23755293E+01  1.23755293E+01
 -2.47510585E+01  0.00000000E+00  1.23755293E+01  1.23755293E+01 -2.47510585E+01
  0.00000000E+00  1.23755293E+01  1.23755293E+01 -2.47510585E+01  0.00000000E+00
  1.23755293E+01  1.23755293E+01 -2.47510585E+01  0.00000000E+00  1.23755293E+01
  1.23755293E+01 -2.47510585E+01  0.00000000E+00  1.23755293E+01  1.23755293E+01
 -2.47510585E+01  0.00000000E+00  1.23755293E+01  1.23755293E+01 -2.47510585E+01
  0.00000000E+00  1.23755293E+01  1.23755293E+01 -2.47510585E+01  0.00000000E+00
  1.23755293E+01  1.23755293E+01 -2.47510585E+01  0.00000000E+00  1.23755293E+01
  1.23755293E+01 -2.47510585E+01  0.00000000E+00  1.23755293E+01  1.23755293E+01
 -2.47510585E+01  0.00000000E+00  1.23755293E+01  1.23755293E+01 -2.47510585E+01
  0.00000000E+00  1.23755293E+01  1.23755293E+01 -2.47510585E+01  0.00000000E+00
  1.23755293E+01  1.23755293E+01 -2.47510585E+01  0.00000000E+00  1.23755293E+01
  1.23755293E+01 -2.47510585E+01  0.00000000E+00  1.23755293E+01  1.23755293E+01
 -2.47510585E+01  0.00000000E+00  1.23755293E+01  1.23755293E+01 -2.47510585E+01
  0.00000000E+00  1.23755293E+01  1.23755293E+01 -2.47510585E+01  0.00000000E+00
  1.23755293E+01  1.23755293E+01 -2.47510585E+01  0.00000000E+00  1.23755293E+01
  1.23755293E+01 -2.47510585E+01  0.00000000E+00  1.23755293E+01  1.23755293E+01
 -2.47510585E+01  0.00000000E+00  1.23755293E+01  1.23755293E+01 -2.47510585E+01
  0.00000000E+00  1.23755293E+01  1.23755293E+01 -2.47510585E+01  0.00000000E+00
  1.23755293E+01  1.23755293E+01 -2.47510585E+01  0.00000000E+00  1.23755293E+01
  1.23755293E+01 -2.47510585E+01  0.00000000E+00  1.23755293E+01  1.23755293E+01
 -2.47510585E+01  0.00000000E+00  1.23755293E+01  1.23755293E+01 -2.47510585E+01
  0.00000000E+00  1.23755293E+01  1.23755293E+01 -2.47510585E+01  0.00000000E+00
  1.23755293E+01  1.23755293E+01 -2.47510585E+01  0.00000000E+00  1.23755293E+01
  1.23755293E+01 -2.47510585E+01  0.00000000E+00  1.23755293E+01  1.23755293E+01
 -2.47510585E+01  0.00000000E+00  1.23755293E+01  1.23755293E+01 -2.47510585E+01
  0.00000000E+00  1.23755293E+01  1.23755293E+01 -2.47510585E+01  0.00000000E+00
  1.23755293E+01  1.23755293E+01 -2.47510585E+01  0.00000000E+00  1.23755293E+01
  1.23755293E+01 -2.47510585E+01  0.00000000E+00  1.23755293E+01  1.23755293E+01
 -2.47510585E+01  0.00000000E+00  1.23755293E+01  1.23755293E+01 -2.47510585E+01
  0.00000000E+00  1.23755293E+01  1.23755293E+01 -2.47510585E+01  0.00000000E+00
  1.23755293E+01  1.23755293E+01 -2.47510585E+01  0.00000000E+00  1.23755293E+01
  1.23755293E+01 -2.47510585E+01  0.00000000E+00  1.23755293E+01  1.23755293E+01
 -2.47510585E+01  0.00000000E+00  1.23755293E+01  1.23755293E+01 -2.47510585E+01
  0.00000000E+00  1.23755293E+01  1.23755293E+01 -2.47510585E+01  0.00000000E+00
  1.23755293E+01  1.23755293E+01 -2.47510585E+01  0.00000000E+00  1.23755293E+01
  1.23755293E+01 -2.47510585E+01  0.00000000E+00  1.23755293E+01  1.23755293E+01
 -2.47510585E+01  0.00000000E+00  1.23755293E+01  1.23755293E+01 -2.47510585E+01
  0.00000000E+00  1.23755293E+01  1.23755293E+01 -2.47510585E+01  0.00000000E+00
  1.23755293E+01  1.23755293E+01 -2.47510585E+01  0.00000000E+00  1.23755293E+01
  1.23755293E+01 -2.47510585E+01  0.00000000E+00  1.23755293E+01  1.23755293E+01
 -2.47510585E+01  0.00000000E+00  1.23755293E+01  1.23755293E+01 -2.47510585E+01
  0.00000000E+00  1.23755293E+01  1.23755293E+01 -2.47510585E+01  0.00000000E+00
  1.23755293E+01  1.23755293E+01 -2.47510585E+01  0.00000000E+00  1.23755293E+01
  1.23755293E+01 -2.47510585E+01  0.00000000E+00  1.23755293E+01  1.23755293E+01
 -2.47510585E+01  0.00000000E+00  1.23755293E+01  1.23755293E+01 -2.47510585E+01
  0.00000000E+00  1.23755293E+01  1.23755293E+01 -2.47510585E+01  0.00000000E+00
  1.23755293E+01  1.23755293E+01 -2.47510585E+01  0.00000000E+00  1.23755293E+01
  1.23755293E+01 -2.47510585E+01  0.00000000E+00  1.23755293E+01  1.23755293E+01
 -2.47510585E+01  0.00000000E+00  1.23755293E+01  1.23755293E+01 -2.47510585E+01
  0.00000000E+00  1.23755293E+01  1.23755293E+01 -2.47510585E+01  0.00000000E+00
  1.23755293E+01  1.23755293E+01 -2.47510585E+01  0.00000000E+00  1.23755293E+01
  1.23755293E+01 -2.47510585E+01  0.00000000E+00  1.23755293E+01  1.23755293E+01
 -2.47510585E+01  0.00000000E+00  1.23755293E+01  1.23755293E+01 -2.47510585E+01
  0.00000000E+00  1.23755293E+01  1.23755293E+01 -2.47510585E+01  0.00000000E+00
  1.23755293E+01  1.23755293E+01 -2.47510585E+01  0.00000000E+00  1.23755293E+01
  1.23755293E+01 -2.47510585E+01  0.00000000E+00  1.23755293E+01  1.23755293E+01
 -2.47510585E+01  0.00000000E+00  1.23755293E+01  1.23755293E+01 -2.47510585E+01
  0.00000000E+00  1.23755293E+01  1.23755293E+01 -2.47510585E+01  0.00000000E+00
  1.23755293E+01  1.23755293E+01 -2.47510585E+01  0.00000000E+00  1.23755293E+01
  1.23755293E+01 -2.47510585E+01  0.00000000E+00  1.23755293E+01  1.23755293E+01
 -2.47510585E+01  0.00000000E+00  1.23755293E+01  1.23755293E+01 -2.47510585E+01
  0.00000000E+00  1.23755293E+01  1.23755293E+01 -2.47510585E+01  0.00000000E+00
  1.23755293E+01  1.23755293E+01 -2.47510585E+01  0.00000000E+00  1.23755293E+01
  1.23755293E+01 -2.47510585E+01  0.00000000E+00  1.23755293E+01  1.23755293E+01
 -2.47510585E+01  0.00000000E+00  1.23755293E+01  1.23755293E+01 -2.47510585E+01
  0.00000000E+00  1.23755293E+01  1.23755293E+01 -2.47510585E+01  0.00000000E+00
  1.23755293E+01  1.23755293E+01 -2.47510585E+01  0.00000000E+00  1.23755293E+01
  1.23755293E+01 -2.47510585E+01  0.00000000E+00  1.23755293E+01  1.23755293E+01
 -2.47510585E+01  0.00000000E+00  1.23755293E+01  1.23755293E+01 -2.47510585E+01
  0.00000000E+00  1.23755293E+01  1.23755293E+01 -2.47510585E+01  0.00000000E+00
  1.23755293E+01  1.23755293E+01 -2.47510585E+01  0.00000000E+00  1.23755293E+01
  1.23755293E+01 -2.47510585E+01  0.00000000E+00  1.23755293E+01  1.23755293E+01
 -2.47510585E+01  0.00000000E+00  1.23755293E+01  1.23755293E+01 -2.47510585E+01
  0.00000000E+00  1.23755293E+01  1.23755293E+01 -2.47510585E+01  0.00000000E+00
  1.23755293E+01  1.23755293E+01 -2.47510585E+01  0.00000000E+00  1.23755293E+01
  1.23755293E+01 -2.47510585E+01  0.00000000E+00  1.23755293E+01  1.23755293E+01
 -2.47510585E+01  0.00000000E+00  1.23755293E+01  1.23755293E+01 -2.47510585E+01
  0.00000000E+00  1.23755293E+01  1.23755293E+01 -2.47510585E+01  0.00000000E+00
  1.23755293E+01  1.23755293E+01 -2.47510585E+01  0.00000000E+00  1.23755293E+01
  1.23755293E+01 -2.47510585E+01  0.00000000E+00  1.23755293E+01  1.23755293E+01
 -2.47510585E+01  0.00000000E+00  1.23755293E+01  1.23755293E+01 -2.47510585E+01
  0.00000000E+00  1.23755293E+01  1.23755293E+01 -2.47510585E+01  0.00000000E+00
  1.23755293E+01  1.23755293E+01 -2.47510585E+01  0.00000000E+00  1.23755293E+01
  1.23755293E+01 -2.47510585E+01  0.00000000E+00  1.23755293E+01  1.23755293E+01
 -2.47510585E+01  0.00000000E+00  1.23755293E+01  1.23755293E+01 -2.47510585E+01
  0.00000000E+00  1.23755293E+01  1.23755293E+01 -2.47510585E+01  0.00000000E+00
  1.23755293E+01  1.23755293E+01 -2.47510585E+01  0.00000000E+00  1.23755293E+01
  1.23755293E+01 -2.47510585E+01  0.00000000E+00  1.23755293E+01  1.23755293E+01
 -2.47510585E+01  0.00000000E+00  1.23755293E+01  1.23755293E+01 -2.47510585E+01
  0.00000000E+00  1.23755293E+01  1.23755293E+01 -2.47510585E+01  0.00000000E+00
  1.23755293E+01  1.23755293E+01 -2.47510585E+01  0.00000000E+00  1.23755293E+01
  1.23755293E+01 -2.47510585E+01  0.00000000E+00  1.23755293E+01  1.23755293E+01
 -2.47510585E+01  0.00000000E+00  1.23755293E+01  1.23755293E+01 -2.47510585E+01
  0.00000000E+00  1.23755293E+01  1.23755293E+01 -2.47510585E+01  0.00000000E+00
  1.23755293E+01  1.23755293E+01 -2.47510585E+01  0.00000000E+00  1.23755293E+01
  1.23755293E+01 -2.47510585E+01  0.00000000E+00  1.23755293E+01  1.23755293E+01
 -2.47510585E+01  0.00000000E+00  1.23755293E+01  1.23755293E+01 -2.47510585E+01
  0.00000000E+00  1.23755293E+01  1.23755293E+01 -2.47510585E+01  0.00000000E+00
  1.23755293E+01  1.23755293E+01 -2.47510585E+01  0.00000000E+00  1.23755293E+01
  1.23755293E+01 -2.47510585E+01  0.00000000E+00  1.23755293E+01  1.23755293E+01
 -2.47510585E+01  0.00000000E+00  1.23755293E+01  1.23755293E+01 -2.47510585E+01
  0.00000000E+00  1.23755293E+01  1.23755293E+01 -2.47510585E+01  0.00000000E+00
  1.23755293E+01  1.23755293E+01 -2.47510585E+01  0.00000000E+00  1.23755293E+01
  1.23755293E+01 -2.47510585E+01  0.00000000E+00  1.23755293E+01  1.23755293E+01
 -2.47510585E+01  0.00000000E+00  1.23755293E+01  1.23755293E+01 -2.47510585E+01
  0.00000000E+00  1.23755293E+01  1.23755293E+01 -2.47510585E+01  0.00000000E+00
  1.23755293E+01  1.23755293E+01 -2.47510585E+01  0.00000000E+00  1.23755293E+01
  1.23755293E+01 -2.47510585E+01  0.00000000E+00  1.23755293E+01  1.23755293E+01
 -2.47510585E+01  0.00000000E+00  1.23755293E+01  1.23755293E+01 -2.47510585E+01
  0.00000000E+00  1.23755293E+01  1.23755293E+01 -2.47510585E+01  0.00000000E+00
  1.23755293E+01  1.23755293E+01 -2.47510585E+01  0.00000000E+00  1.23755293E+01
  1.23755293E+01 -2.47510585E+01  0.00000000E+00  1.23755293E+01  1.23755293E+01
 -2.47510585E+01  0.00000000E+00  1.23755293E+01  1.23755293E+01 -2.47510585E+01
  0.00000000E+00  1.23755293E+01  1.23755293E+01 -2.47510585E+01  0.00000000E+00
  1.23755293E+01  1.23755293E+01 -2.47510585E+01  0.00000000E+00  1.23755293E+01
  1.23755293E+01 -2.47510585E+01  0.00000000E+00  1.23755293E+01  1.23755293E+01
 -2.47510585E+01  0.00000000E+00  1.23755293E+01  1.23755293E+01 -2.47510585E+01
  0.00000000E+00  1.23755293E+01  1.23755293E+01 -2.47510585E+01  0.00000000E+00
  1.23755293E+01  1.23755293E+01 -2.47510585E+01  0.00000000E+00  1.23755293E+01
  1.23755293E+01 -2.47510585E+01  0.00000000E+00  1.23755293E+01  1.23755293E+01
 -2.47510585E+01  0.00000000E+00  1.23755293E+01  1.23755293E+01 -2.47510585E+01
  0.00000000E+00  1.23755293E+01  1.23755293E+01 -2.47510585E+01  0.00000000E+00
  1.23755293E+01  1.23755293E+01 -2.47510585E+01  0.00000000E+00  1.23755293E+01
  1.23755293E+01 -2.47510585E+01  0.00000000E+00  1.23755293E+01  1.23755293E+01
 -2.47510585E+01  0.00000000E+00  1.23755293E+01  1.23755293E+01 -2.47510585E+01
  0.00000000E+00  1.23755293E+01  1.23755293E+01 -2.47510585E+01  0.00000000E+00
  1.23755293E+01  1.23755293E+01 -2.47510585E+01  0.00000000E+00  1.23755293E+01
  1.23755293E+01 -2.47510585E+01  0.00000000E+00  1.23755293E+01  1.23755293E+01
 -2.47510585E+01  0.00000000E+00  1.23755293E+01  1.23755293E+01 -2.47510585E+01
  0.00000000E+00  1.23755293E+01  1.23755293E+01 -2.47510585E+01  0.00000000E+00
  1.23755293E+01  1.23755293E+01 -2.47510585E+01  0.00000000E+00  1.23755293E+01
  1.23755293E+01 -2.47510585E+01  0.00000000E+00  1.23755293E+01  1.23755293E+01
 -2.47510585E+01  0.00000000E+00  1.23755293E+01  1.23755293E+01 -2.47510585E+01
  0.00000000E+00  1.23755293E+01  1.23755293E+01 -2.47510585E+01  0.00000000E+00
  1.23755293E+01  1.23755293E+01 -2.47510585E+01  0.00000000E+00  1.23755293E+01
  1.23755293E+01 -2.47510585E+01  0.00000000E+00  1.23755293E+01  1.23755293E+01
 -2.47510585E+01  0.00000000E+00  1.23755293E+01  1.23755293E+01 -2.47510585E+01
  0.00000000E+00  1.23755293E+01  1.23755293E+01 -2.47510585E+01  0.00000000E+00
  1.23755293E+01  1.23755293E+01 -2.47510585E+01  0.00000000E+00  1.23755293E+01
  1.23755293E+01 -2.47510585E+01  0.00000000E+00  1.23755293E+01  1.23755293E+01
 -2.47510585E+01  0.00000000E+00  1.23755293E+01  1.23755293E+01 -2.47510585E+01
  0.00000000E+00  1.23755293E+01  1.23755293E+01 -2.47510585E+01  0.00000000E+00
  1.23755293E+01  1.23755293E+01 -2.47510585E+01  0.00000000E+00  1.23755293E+01
  1.23755293E+01 -2.47510585E+01  0.00000000E+00  1.23755293E+01  1.23755293E+01
 -2.47510585E+01  0.00000000E+00  1.23755293E+01  1.23755293E+01 -2.47510585E+01
  0.00000000E+00  1.23755293E+01  1.23755293E+01 -2.47510585E+01  0.00000000E+00
  1.23755293E+01  1.23755293E+01 -2.47510585E+01  0.00000000E+00  1.23755293E+01
  1.23755293E+01 -2.47510585E+01  0.00000000E+00  1.23755293E+01  1.23755293E+01
 -2.47510585E+01  0.00000000E+00  1.23755293E+01  1.23755293E+01 -2.47510585E+01
  0.00000000E+00  1.23755293E+01  1.23755293E+01 -2.47510585E+01  0.00000000E+00
  1.23755293E+01  1.23755293E+01 -2.47510585E+01  0.00000000E+00  1.23755293E+01
  1.23755293E+01 -2.47510585E+01  0.00000000E+00  1.23755293E+01  1.23755293E+01
 -2.47510585E+01  0.00000000E+00  1.23755293E+01  1.23755293E+01 -2.47510585E+01
  0.00000000E+00  1.23755293E+01  1.23755293E+01 -2.47510585E+01  0.00000000E+00
  1.23755293E+01  1.23755293E+01 -2.47510585E+01  0.00000000E+00  1.23755293E+01
  1.23755293E+01 -2.47510585E+01  0.00000000E+00  1.23755293E+01  1.23755293E+01
 -2.47510585E+01  0.00000000E+00  1.23755293E+01  1.23755293E+01 -2.47510585E+01
  0.00000000E+00  1.23755293E+01  1.23755293E+01 -2.47510585E+01  0.00000000E+00
  1.23755293E+01  1.23755293E+01 -2.47510585E+01  0.00000000E+00  1.23755293E+01
  1.23755293E+01 -2.47510585E+01  0.00000000E+00  1.23755293E+01  1.23755293E+01
 -2.47510585E+01  0.00000000E+00  1.23755293E+01  1.23755293E+01 -2.47510585E+01
  0.00000000E+00  1.23755293E+01  1.23755293E+01 -2.47510585E+01  0.00000000E+00
  1.23755293E+01  1.23755293E+01 -2.47510585E+01  0.00000000E+00  1.23755293E+01
  1.23755293E+01 -2.47510585E+01  0.00000000E+00  1.23755293E+01  1.23755293E+01
 -2.47510585E+01  0.00000000E+00  1.23755293E+01  1.23755293E+01 -2.47510585E+01
  0.00000000E+00  1.23755293E+01  1.23755293E+01 -2.47510585E+01  0.00000000E+00
  1.23755293E+01  1.23755293E+01 -2.47510585E+01  0.00000000E+00  1.23755293E+01
  1.23755293E+01 -2.47510585E+01  0.00000000E+00  1.23755293E+01  1.23755293E+01
 -2.47510585E+01  0.00000000E+00  1.23755293E+01  1.23755293E+01 -2.47510585E+01
  0.00000000E+00  1.23755293E+01  1.23755293E+01 -2.47510585E+01  0.00000000E+00
  1.23755293E+01  1.23755293E+01 -2.47510585E+01  0.00000000E+00  1.23755293E+01
  1.23755293E+01 -2.47510585E+01  0.00000000E+00  1.23755293E+01  1.23755293E+01
 -2.47510585E+01  0.00000000E+00  1.23755293E+01  1.23755293E+01 -2.47510585E+01
  0.00000000E+00  1.23755293E+01  1.23755293E+01 -2.47510585E+01  0.00000000E+00
  1.23755293E+01  1.23755293E+01 -2.47510585E+01  0.00000000E+00  1.23755293E+01
  1.23755293E+01 -2.47510585E+01  0.00000000E+00  1.23755293E+01  1.23755293E+01
 -2.47510585E+01  0.00000000E+00  1.23755293E+01  1.23755293E+01 -2.47510585E+01
  0.00000000E+00  1.23755293E+01  1.23755293E+01 -2.47510585E+01  0.00000000E+00
  1.23755293E+01  1.23755293E+01 -2.47510585E+01  0.00000000E+00  1.23755293E+01
  1.23755293E+01 -2.47510585E+01  0.00000000E+00  1.23755293E+01  1.23755293E+01
 -2.47510585E+01  0.00000000E+00  1.23755293E+01  1.23755293E+01 -2.47510585E+01
  0.00000000E+00  1.23755293E+01  1.23755293E+01 -2.47510585E+01  0.00000000E+00
  1.23755293E+01  1.23755293E+01 -2.47510585E+01  0.00000000E+00  1.23755293E+01
  1.23755293E+01 -2.47510585E+01  0.00000000E+00  1.23755293E+01  1.23755293E+01
 -2.47510585E+01  0.00000000E+00  1.23755293E+01  1.23755293E+01 -2.47510585E+01
  0.00000000E+00  1.23755293E+01  1.23755293E+01 -2.47510585E+01  0.00000000E+00
  1.23755293E+01  1.23755293E+01 -2.47510585E+01  0.00000000E+00  1.23755293E+01
  1.23755293E+01 -2.47510585E+01  0.00000000E+00  1.23755293E+01  1.23755293E+01
 -2.47510585E+01  0.00000000E+00  1.23755293E+01  1.23755293E+01 -2.47510585E+01
  0.00000000E+00  1.23755293E+01  1.23755293E+01 -2.47510585E+01  0.00000000E+00
  1.23755293E+01  1.23755293E+01 -2.47510585E+01  0.00000000E+00  1.23755293E+01
  1.23755293E+01 -2.47510585E+01  0.00000000E+00  1.23755293E+01  1.23755293E+01
 -2.47510585E+01  0.00000000E+00  1.23755293E+01  1.23755293E+01 -2.47510585E+01
  0.00000000E+00  1.23755293E+01  1.23755293E+01 -2.47510585E+01  0.00000000E+00
  1.23755293E+01  1.23755293E+01 -2.47510585E+01  0.00000000E+00  1.23755293E+01
  1.23755293E+01 -2.47510585E+01  0.00000000E+00  1.23755293E+01  1.23755293E+01
 -2.47510585E+01  0.00000000E+00  1.23755293E+01  1.23755293E+01 -2.47510585E+01
  0.00000000E+00  1.23755293E+01  1.23755293E+01 -2.47510585E+01  0.00000000E+00
  1.23755293E+01  1.23755293E+01 -2.47510585E+01  0.00000000E+00  1.23755293E+01
  1.23755293E+01 -2.47510585E+01  0.00000000E+00  1.23755293E+01  1.23755293E+01
 -2.47510585E+01  0.00000000E+00  1.23755293E+01  1.23755293E+01 -2.47510585E+01
  0.00000000E+00  1.23755293E+01  1.23755293E+01 -2.47510585E+01  0.00000000E+00
  1.23755293E+01  1.23755293E+01 -2.47510585E+01  0.00000000E+00  1.23755293E+01
  1.23755293E+01 -2.47510585E+01  0.00000000E+00  1.23755293E+01  1.23755293E+01
 -2.47510585E+01  0.00000000E+00  1.23755293E+01  1.23755293E+01 -2.47510585E+01
  0.00000000E+00  1.23755293E+01  1.23755293E+01 -2.47510585E+01  0.00000000E+00
  1.23755293E+01  1.23755293E+01 -2.47510585E+01  0.00000000E+00  1.23755293E+01
  1.23755293E+01 -2.47510585E+01  0.00000000E+00  1.23755293E+01  1.23755293E+01
 -2.47510585E+01  0.00000000E+00  1.23755293E+01  1.23755293E+01 -2.47510585E+01
  0.00000000E+00  1.23755293E+01  1.23755293E+01 -2.47510585E+01  0.00000000E+00
  1.23755293E+01  1.23755293E+01 -2.47510585E+01  0.00000000E+00  1.23755293E+01
  1.23755293E+01 -2.47510585E+01  0.00000000E+00  1.23755293E+01  1.23755293E+01
 -2.47510585E+01  0.00000000E+00  1.23755293E+01  1.23755293E+01 -2.47510585E+01
  0.00000000E+00  1.23755293E+01  1.23755293E+01 -2.47510585E+01  0.00000000E+00
  1.23755293E+01  1.23755293E+01 -2.47510585E+01  0.00000000E+00  1.23755293E+01
  1.23755293E+01 -2.47510585E+01  0.00000000E+00  1.23755293E+01  1.23755293E+01
 -2.47510585E+01  0.00000000E+00  1.23755293E+01  1.23755293E+01 -2.47510585E+01
  0.00000000E+00  1.23755293E+01  1.23755293E+01 -2.47510585E+01  0.00000000E+00
  1.23755293E+01  1.23755293E+01 -2.47510585E+01  0.00000000E+00  1.23755293E+01
  1.23755293E+01 -2.47510585E+01  0.00000000E+00  1.23755293E+01  1.23755293E+01
 -2.47510585E+01  0.00000000E+00  1.23755293E+01  1.23755293E+01 -2.47510585E+01
  0.00000000E+00  1.23755293E+01  1.23755293E+01 -2.47510585E+01  0.00000000E+00
  1.23755293E+01  1.23755293E+01 -2.47510585E+01  0.00000000E+00  1.23755293E+01
  1.23755293E+01 -2.47510585E+01  0.00000000E+00  1.23755293E+01  1.23755293E+01
 -2.47510585E+01  0.00000000E+00  1.23755293E+01  1.23755293E+01 -2.47510585E+01
  0.00000000E+00  1.23755293E+01  1.23755293E+01 -2.47510585E+01  0.00000000E+00
  1.23755293E+01  1.23755293E+01 -2.47510585E+01  0.00000000E+00  1.23755293E+01
  1.23755293E+01 -2.47510585E+01  0.00000000E+00  1.23755293E+01  1.23755293E+01
 -2.47510585E+01  0.00000000E+00  1.23755293E+01  1.23755293E+01 -2.47510585E+01
  0.00000000E+00  1.23755293E+01  1.23755293E+01 -2.47510585E+01  0.00000000E+00
  1.23755293E+01  1.23755293E+01 -2.47510585E+01  0.00000000E+00  1.23755293E+01
  1.23755293E+01 -2.47510585E+01  0.00000000E+00  1.23755293E+01  1.23755293E+01
 -2.47510585E+01  0.00000000E+00  1.23755293E+01  1.23755293E+01 -2.47510585E+01
  0.00000000E+00  1.23755293E+01  1.23755293E+01 -2.47510585E+01  0.00000000E+00
  1.23755293E+01  1.23755293E+01 -2.47510585E+01  0.00000000E+00  1.23755293E+01
  1.23755293E+01 -2.47510585E+01  0.00000000E+00  1.23755293E+01  1.23755293E+01
 -2.47510585E+01  0.00000000E+00  1.23755293E+01  1.23755293E+01 -2.47510585E+01
  0.00000000E+00  1.23755293E+01  1.23755293E+01 -2.47510585E+01  0.00000000E+00
  1.23755293E+01  1.23755293E+01 -2.47510585E+01  0.00000000E+00  1.23755293E+01
  1.23755293E+01 -2.47510585E+01  0.00000000E+00  1.23755293E+01  1.23755293E+01
 -2.47510585E+01  0.00000000E+00  1.23755293E+01  1.23755293E+01 -2.47510585E+01
  0.00000000E+00  1.23755293E+01  1.23755293E+01 -2.47510585E+01  0.00000000E+00
  1.23755293E+01  1.23755293E+01 -2.47510585E+01  0.00000000E+00  1.23755293E+01
  1.23755293E+01 -2.47510585E+01  0.00000000E+00  1.23755293E+01  1.23755293E+01
 -2.47510585E+01  0.00000000E+00  1.23755293E+01  1.23755293E+01 -2.47510585E+01
  0.00000000E+00  1.23755293E+01  1.23755293E+01 -2.47510585E+01  0.00000000E+00
  1.23755293E+01  1.23755293E+01 -2.47510585E+01  0.00000000E+00  1.23755293E+01
  1.23755293E+01 -2.47510585E+01  0.00000000E+00  1.23755293E+01  1.23755293E+01
 -2.47510585E+01  0.00000000E+00  1.23755293E+01  1.23755293E+01 -2.47510585E+01
  0.00000000E+00  1.23755293E+01  1.23755293E+01 -2.47510585E+01  0.00000000E+00
  1.23755293E+01  1.23755293E+01 -2.47510585E+01  0.00000000E+00  1.23755293E+01
  1.23755293E+01 -2.47510585E+01  0.00000000E+00  1.23755293E+01  1.23755293E+01
 -2.47510585E+01  0.00000000E+00  1.23755293E+01  1.23755293E+01 -2.47510585E+01
  0.00000000E+00  1.23755293E+01  1.23755293E+01 -2.47510585E+01  0.00000000E+00
  1.23755293E+01  1.23755293E+01 -2.47510585E+01  0.00000000E+00  1.23755293E+01
  1.23755293E+01 -2.47510585E+01  0.00000000E+00  1.23755293E+01  1.23755293E+01
 -2.47510585E+01  0.00000000E+00  1.23755293E+01  1.23755293E+01 -2.47510585E+01
  0.00000000E+00  1.23755293E+01  1.23755293E+01 -2.47510585E+01  0.00000000E+00
  1.23755293E+01  1.23755293E+01 -2.47510585E+01  0.00000000E+00  1.23755293E+01
  1.23755293E+01 -2.47510585E+01  0.00000000E+00  1.23755293E+01  1.23755293E+01
 -2.47510585E+01  0.00000000E+00  1.23755293E+01  1.23755293E+01 -2.47510585E+01
  0.00000000E+00  1.23755293E+01  1.23755293E+01 -2.47510585E+01  0.00000000E+00
  1.23755293E+01  1.23755293E+01 -2.47510585E+01  0.00000000E+00  1.23755293E+01
  1.23755293E+01 -2.47510585E+01  0.00000000E+00  1.23755293E+01  1.23755293E+01
 -2.47510585E+01  0.00000000E+00  1.23755293E+01  1.23755293E+01 -2.47510585E+01
  0.00000000E+00  1.23755293E+01  1.23755293E+01 -2.47510585E+01  0.00000000E+00
  1.23755293E+01  1.23755293E+01 -2.47510585E+01  0.00000000E+00  1.23755293E+01
  1.23755293E+01 -2.47510585E+01  0.00000000E+00  1.23755293E+01  1.23755293E+01
 -2.47510585E+01  0.00000000E+00  1.23755293E+01  1.23755293E+01 -2.47510585E+01
  0.00000000E+00  1.23755293E+01  1.23755293E+01 -2.47510585E+01  0.00000000E+00
  1.23755293E+01  1.23755293E+01 -2.47510585E+01  0.00000000E+00  1.23755293E+01
  1.23755293E+01 -2.47510585E+01  0.00000000E+00  1.23755293E+01  1.23755293E+01
 -2.47510585E+01  0.00000000E+00  1.23755293E+01  1.23755293E+01 -2.47510585E+01
  0.00000000E+00  1.23755293E+01  1.23755293E+01 -2.47510585E+01  0.00000000E+00
  1.23755293E+01  1.23755293E+01 -2.47510585E+01  0.00000000E+00  1.23755293E+01
  1.23755293E+01 -2.47510585E+01  0.00000000E+00  1.23755293E+01  1.23755293E+01
 -2.47510585E+01  0.00000000E+00  1.23755293E+01  1.23755293E+01 -2.47510585E+01
  0.00000000E+00  1.23755293E+01  1.23755293E+01 -2.47510585E+01  0.00000000E+00
  1.23755293E+01  1.23755293E+01 -2.47510585E+01  0.00000000E+00  1.23755293E+01
  1.23755293E+01 -2.47510585E+01  0.00000000E+00  1.23755293E+01  1.23755293E+01
 -2.47510585E+01  0.00000000E+00  1.23755293E+01  1.23755293E+01 -2.47510585E+01
  0.00000000E+00  1.23755293E+01  1.23755293E+01 -2.47510585E+01  0.00000000E+00
  1.23755293E+01  1.23755293E+01 -2.47510585E+01  0.00000000E+00  1.23755293E+01
  1.23755293E+01 -2.47510585E+01  0.00000000E+00  1.23755293E+01  1.23755293E+01
 -2.47510585E+01  0.00000000E+00  1.23755293E+01  1.23755293E+01 -2.47510585E+01
  0.00000000E+00  1.23755293E+01  1.23755293E+01 -2.47510585E+01  0.00000000E+00
  1.23755293E+01  1.23755293E+01 -2.47510585E+01  0.00000000E+00  1.23755293E+01
  1.23755293E+01 -2.47510585E+01  0.00000000E+00  1.23755293E+01  1.23755293E+01
 -2.47510585E+01  0.00000000E+00  1.23755293E+01  1.23755293E+01 -2.47510585E+01
  0.00000000E+00  1.23755293E+01  1.23755293E+01 -2.47510585E+01  0.00000000E+00
  1.23755293E+01  1.23755293E+01 -2.47510585E+01  0.00000000E+00  1.23755293E+01
  1.23755293E+01 -2.47510585E+01  0.00000000E+00  1.23755293E+01  1.23755293E+01
 -2.47510585E+01  0.00000000E+00  1.23755293E+01  1.23755293E+01 -2.47510585E+01
  0.00000000E+00  1.23755293E+01  1.23755293E+01 -2.47510585E+01  0.00000000E+00
  1.23755293E+01  1.23755293E+01 -2.47510585E+01  0.00000000E+00  1.23755293E+01
  1.23755293E+01 -2.47510585E+01  0.00000000E+00  1.23755293E+01  1.23755293E+01
 -2.47510585E+01  0.00000000E+00  1.23755293E+01  1.23755293E+01 -2.47510585E+01
  0.00000000E+00  1.23755293E+01  1.23755293E+01 -2.47510585E+01  0.00000000E+00
  1.23755293E+01  1.23755293E+01 -2.47510585E+01  0.00000000E+00  1.23755293E+01
  1.23755293E+01 -2.47510585E+01  0.00000000E+00  1.23755293E+01  1.23755293E+01
 -2.47510585E+01  0.00000000E+00  1.23755293E+01  1.23755293E+01 -2.47510585E+01
  0.00000000E+00  1.23755293E+01  1.23755293E+01 -2.47510585E+01  0.00000000E+00
  1.23755293E+01  1.23755293E+01 -2.47510585E+01  0.00000000E+00  1.23755293E+01
  1.23755293E+01 -2.47510585E+01  0.00000000E+00  1.23755293E+01  1.23755293E+01
 -2.47510585E+01  0.00000000E+00  1.23755293E+01  1.23755293E+01 -2.47510585E+01
  0.00000000E+00  1.23755293E+01  1.23755293E+01 -2.47510585E+01  0.00000000E+00
  1.23755293E+01  1.23755293E+01 -2.47510585E+01  0.00000000E+00  1.23755293E+01
  1.23755293E+01 -2.47510585E+01  0.00000000E+00  1.23755293E+01  1.23755293E+01
 -2.47510585E+01  0.00000000E+00  1.23755293E+01  1.23755293E+01 -2.47510585E+01
  0.00000000E+00  1.23755293E+01  1.23755293E+01 -2.47510585E+01  0.00000000E+00
  1.23755293E+01  1.23755293E+01 -2.47510585E+01  0.00000000E+00  1.23755293E+01
  1.23755293E+01 -2.47510585E+01  0.00000000E+00  1.23755293E+01  1.23755293E+01
 -2.47510585E+01  0.00000000E+00  1.23755293E+01  1.23755293E+01 -2.47510585E+01
  0.00000000E+00  1.23755293E+01  1.23755293E+01 -2.47510585E+01  0.00000000E+00
  1.23755293E+01  1.23755293E+01 -2.47510585E+01  0.00000000E+00  1.23755293E+01
  1.23755293E+01 -2.47510585E+01  0.00000000E+00  1.23755293E+01  1.23755293E+01
 -2.47510585E+01  0.00000000E+00  1.23755293E+01  1.23755293E+01 -2.47510585E+01
  0.00000000E+00  1.23755293E+01  1.23755293E+01 -2.47510585E+01  0.00000000E+00
  1.23755293E+01  1.23755293E+01 -2.47510585E+01  0.00000000E+00  1.23755293E+01
  1.23755293E+01 -2.47510585E+01  0.00000000E+00  1.23755293E+01  1.23755293E+01
 -2.47510585E+01  0.00000000E+00  1.23755293E+01  1.23755293E+01 -2.47510585E+01
  0.00000000E+00  1.23755293E+01  1.23755293E+01 -2.47510585E+01  0.00000000E+00
  1.23755293E+01  1.23755293E+01 -2.47510585E+01  0.00000000E+00  1.23755293E+01
  1.23755293E+01 -2.47510585E+01  0.00000000E+00  1.23755293E+01  1.23755293E+01
 -2.47510585E+01  0.00000000E+00  1.23755293E+01  1.23755293E+01 -2.47510585E+01
  0.00000000E+00  1.23755293E+01  1.23755293E+01 -2.47510585E+01  0.00000000E+00
  1.23755293E+01  1.23755293E+01 -2.47510585E+01  0.00000000E+00  1.23755293E+01
  1.23755293E+01 -2.47510585E+01  0.00000000E+00  1.23755293E+01  1.23755293E+01
 -2.47510585E+01  0.00000000E+00  1.23755293E+01  1.23755293E+01 -2.47510585E+01
  0.00000000E+00  1.23755293E+01  1.23755293E+01 -2.47510585E+01  0.00000000E+00
  1.23755293E+01  1.23755293E+01 -2.47510585E+01  0.00000000E+00  1.23755293E+01
  1.23755293E+01 -2.47510585E+01  0.00000000E+00  1.23755293E+01  1.23755293E+01
 -2.47510585E+01  0.00000000E+00  1.23755293E+01  1.23755293E+01 -2.47510585E+01
  0.00000000E+00  1.23755293E+01  1.23755293E+01 -2.47510585E+01  0.00000000E+00
  1.23755293E+01  1.23755293E+01 -2.47510585E+01  0.00000000E+00  1.23755293E+01
  1.23755293E+01 -2.47510585E+01  0.00000000E+00  1.23755293E+01  1.23755293E+01
 -2.47510585E+01  0.00000000E+00  1.23755293E+01  1.23755293E+01 -2.47510585E+01
  0.00000000E+00  1.23755293E+01  1.23755293E+01 -2.47510585E+01  0.00000000E+00
  1.23755293E+01  1.23755293E+01 -2.47510585E+01  0.00000000E+00  1.23755293E+01
  1.23755293E+01 -2.47510585E+01  0.00000000E+00  1.23755293E+01  1.23755293E+01
 -2.47510585E+01  0.00000000E+00  1.23755293E+01  1.23755293E+01 -2.47510585E+01
  0.00000000E+00  1.23755293E+01  1.23755293E+01 -2.47510585E+01  0.00000000E+00
  1.23755293E+01  1.23755293E+01 -2.47510585E+01  0.00000000E+00  1.23755293E+01
  1.23755293E+01 -2.47510585E+01  0.00000000E+00  1.23755293E+01  1.23755293E+01
 -2.47510585E+01  0.00000000E+00  1.23755293E+01  1.23755293E+01 -2.47510585E+01
  0.00000000E+00  1.23755293E+01  1.23755293E+01 -2.47510585E+01  0.00000000E+00
  1.23755293E+01  1.23755293E+01 -2.47510585E+01  0.00000000E+00  1.23755293E+01
  1.23755293E+01 -2.47510585E+01  0.00000000E+00  1.23755293E+01  1.23755293E+01
 -2.47510585E+01  0.00000000E+00  1.23755293E+01  1.23755293E+01 -2.47510585E+01
  0.00000000E+00  1.23755293E+01  1.23755293E+01 -2.47510585E+01  0.00000000E+00
  1.23755293E+01  1.23755293E+01 -2.47510585E+01  0.00000000E+00  1.23755293E+01
  1.23755293E+01 -2.47510585E+01  0.00000000E+00  1.23755293E+01  1.23755293E+01
 -2.47510585E+01  0.00000000E+00  1.23755293E+01  1.23755293E+01 -2.47510585E+01
  0.00000000E+00  1.23755293E+01  1.23755293E+01 -2.47510585E+01  0.00000000E+00
  1.23755293E+01  1.23755293E+01 -2.47510585E+01  0.00000000E+00  1.23755293E+01
  1.23755293E+01 -2.47510585E+01  0.00000000E+00  1.23755293E+01  1.23755293E+01
 -2.47510585E+01  0.00000000E+00  1.23755293E+01  1.23755293E+01 -2.47510585E+01
  0.00000000E+00  1.23755293E+01  1.23755293E+01 -2.47510585E+01  0.00000000E+00
  1.23755293E+01  1.23755293E+01 -2.47510585E+01  0.00000000E+00  1.23755293E+01
  1.23755293E+01 -2.47510585E+01  0.00000000E+00  1.23755293E+01  1.23755293E+01
 -2.47510585E+01  0.00000000E+00  1.23755293E+01  1.23755293E+01 -2.47510585E+01
  0.00000000E+00  1.23755293E+01  1.23755293E+01 -2.47510585E+01  0.00000000E+00
  1.23755293E+01  1.23755293E+01 -2.47510585E+01  0.00000000E+00  1.23755293E+01
  1.23755293E+01 -2.47510585E+01  0.00000000E+00  1.23755293E+01  1.23755293E+01
 -2.47510585E+01  0.00000000E+00  1.23755293E+01  1.23755293E+01 -2.47510585E+01
  0.00000000E+00  1.23755293E+01  1.23755293E+01 -2.47510585E+01  0.00000000E+00
  1.23755293E+01  1.23755293E+01 -2.47510585E+01  0.00000000E+00  1.23755293E+01
  1.23755293E+01 -2.47510585E+01  0.00000000E+00  1.23755293E+01  1.23755293E+01
 -2.47510585E+01  0.00000000E+00  1.23755293E+01  1.23755293E+01 -2.47510585E+01
  0.00000000E+00  1.23755293E+01  1.23755293E+01 -2.47510585E+01  0.00000000E+00
  1.23755293E+01  1.23755293E+01 -2.47510585E+01  0.00000000E+00  1.23755293E+01
  1.23755293E+01 -2.47510585E+01  0.00000000E+00  1.23755293E+01  1.23755293E+01
 -2.47510585E+01  0.00000000E+00  1.23755293E+01  1.23755293E+01 -2.47510585E+01
  0.00000000E+00  1.23755293E+01  1.23755293E+01 -2.47510585E+01  0.00000000E+00
  1.23755293E+01  1.23755293E+01 -2.47510585E+01  0.00000000E+00  1.23755293E+01
  1.23755293E+01 -2.47510585E+01  0.00000000E+00  1.23755293E+01  1.23755293E+01
 -2.47510585E+01  0.00000000E+00  1.23755293E+01  1.23755293E+01 -2.47510585E+01
  0.00000000E+00  1.23755293E+01  1.23755293E+01 -2.47510585E+01  0.00000000E+00
  1.23755293E+01  1.23755293E+01 -2.47510585E+01  0.00000000E+00  1.23755293E+01
  1.23755293E+01 -2.47510585E+01  0.00000000E+00  1.23755293E+01  1.23755293E+01
 -2.47510585E+01  0.00000000E+00  1.23755293E+01  1.23755293E+01 -2.47510585E+01
  0.00000000E+00  1.23755293E+01  1.23755293E+01 -2.47510585E+01  0.00000000E+00
  1.23755293E+01  1.23755293E+01 -2.47510585E+01  0.00000000E+00  1.23755293E+01
  1.23755293E+01 -2.47510585E+01  0.00000000E+00  1.23755293E+01  1.23755293E+01
 -2.47510585E+01  0.00000000E+00  1.23755293E+01  1.23755293E+01 -2.47510585E+01
  0.00000000E+00  1.23755293E+01  1.23755293E+01 -2.47510585E+01  0.00000000E+00
  1.23755293E+01  1.23755293E+01 -2.47510585E+01  0.00000000E+00  1.23755293E+01
  1.23755293E+01 -2.47510585E+01  0.00000000E+00  1.23755293E+01  1.23755293E+01
 -2.47510585E+01  0.00000000E+00  1.23755293E+01  1.23755293E+01 -2.47510585E+01
  0.00000000E+00  1.23755293E+01  1.23755293E+01 -2.47510585E+01
%FLAG ATOMIC_NUMBER                                                             
%FORMAT(10I8)                                                                   
       1       6       1       1       6       8       7       1       6       1
       6       1       1       6       6       1       7       1       6       6
       1       6       1       6       1       6       1       6       6       8
       7       1       6       1       6       1       6       1       1       1
       6       1       1       1       6       8       7       1       6       1
       6       1       6       1       1       1       8       1       6       8
       7       1       6       1       6       1       1       6       7       1
       6       1       7       6       1       6       8       7       1       6
       1       6       1       1       6       1       1       6       1       1
       7       1       6       7       1       1       7       1       1       6
       8       6       8       6       6       6       6       6       6       6
       6       7       1       1       1       1       1       1       1       1
       1       1       1       1       1       1       7       1       6       1
       6       1       1       1       6       8       7       1       6       1
       1       6       8       7       1       6       1       6       1       1
       6       1       6       1       1       1       6       1       1       1
       6       8       6       8       6       6       6       6       7       1
       1       1       1       1       1       1       1       7       1       6
       1       6       1       1       8       1       6       8       7       1
       6       1       6       1       1       6       1       1       6       1
       1       7       1       6       7       1       1       7       1       1
       6       8       7       1       6       1       6       1       1       8
       1       6       8       7       1       6       1       1       6       8
       7       1       6       1       1       6       8       7       1       6
       1       6       1       6       1       1       1       6       1       1
       1       6       8       7       1       6       1       6       1       6
       1       1       1       6       1       1       1       6       8       7
       1       6       1       6       1       1       6       1       1       6
       1       1       6       1       1       7       1       1       1       6
       8       7       1       6       1       6       1       1       6       8
       7       1       1       6       8       7       1       6       1       6
       1       1       6       8       7       1       1       6       8       7
       1       6       1       6       1       1       6       6       1       6
       1       6       1       6       1       6       1       6       8       7
       1       6       1       6       1       6       1       1       1       6
       1       1       1       6       8       7       6       1       1       6
       1       1       6       1       1       6       1       6       8       7
       1       6       1       6       1       6       1       1       1       8
       1       6       8       7       1       6       1       6       1       1
       6       8       8       6       8       7       1       6       1       6
       1       6       1       1       1       6       1       1       1       6
       8       7       1       6       1       1       6       8       7       6
       1       1       6       1       1       6       1       1       6       1
       6       8       7       1       6       1       6       1       1       6
       6       1       6       1       6       1       6       1       6       1
       6       8       7       1       6       1       6       1       1       1
       6       8       7       1       6       1       6       1       1       6
       6       1       6       1       6       1       6       1       6       1
       6       8       7       1       1      11      11      11      11      11
      11      11      11      11      11      11      11      11      11      11
      11      11      11      11      11      11      17      17      17      17
      17      17      17      17      17      17      17      17      17      17
      17      17      17      17      17      17      17      17      17       8
       1       1       0       8       1       1       0       8       1       1
       0       8       1       1       0       8       1       1       0       8
       1       1       0       8       1       1       0       8       1       1
       0       8       1       1       0       8       1       1       0       8
       1       1       0       8       1       1       0       8       1       1
       0       8       1       1       0       8       1       1       0       8
       1       1       0       8       1       1       0       8       1       1
       0       8       1       1       0       8       1       1       0       8
       1       1       0       8       1       1       0       8       1       1
       0       8       1       1       0       8       1       1       0       8
       1       1       0       8       1       1       0       8       1       1
       0       8       1       1       0       8       1       1       0       8
       1       1       0       8       1       1       0       8       1       1
       0       8       1       1       0       8       1       1       0       8
       1       1       0       8       1       1       0       8       1       1
       0       8       1       1       0       8       1       1       0       8
       1       1       0       8       1       1       0       8       1       1
       0       8       1       1       0       8       1       1       0       8
       1       1       0       8       1       1       0       8       1       1
       0       8       1       1       0       8       1       1       0       8
       1       1       0       8       1       1       0       8       1       1
       0       8       1       1       0       8       1       1       0       8
       1       1       0       8       1       1       0       8       1       1
       0       8       1       1       0       8       1       1       0       8
       1       1       0       8       1       1       0       8       1       1
       0       8       1       1       0       8       1       1       0       8
       1       1       0       8       1       1       0       8       1       1
       0       8       1       1       0       8       1       1       0       8
       1       1       0       8       1       1       0       8       1       1
       0       8       1       1       0       8       1       1       0       8
       1       1       0       8       1       1       0       8       1       1
       0       8       1       1       0       8       1       1       0       8
       1       1       0       8       1       1       0       8       1       1
       0       8       1       1       0       8       1       1       0       8
       1       1       0       8       1       1       0       8       1       1
       0       8       1       1       0       8       1       1       0       8
       1       1       0       8       1       1       0       8       1       1
       0       8       1       1       0       8       1       1       0       8
       1       1       0       8       1       1       0       8       1       1
       0       8       1       1       0       8       1       1       0       8
       1       1       0       8       1       1       0       8       1       1
       0       8       1       1       0       8       1       1       0       8
       1       1       0       8       1       1       0       8       1       1
       0       8       1       1       0       8       1       1       0       8
       1       1       0       8       1       1       0       8       1       1
       0       8       1       1       0       8       1       1       0       8
       1       1       0       8       1       1       0       8       1       1
       0       8       1       1       0       8       1       1       0       8
       1       1       0       8       1       1       0       8       1       1
       0       8       1       1       0       8       1       1       0       8
       1       1       0       8       1       1       0       8       1       1
       0       8       1       1       0       8       1       1       0       8
       1       1       0       8       1       1       0       8       1       1
       0       8       1       1       0       8       1       1       0       8
       1       1       0       8       1       1       0       8       1       1
       0       8       1       1       0       8       1       1       0       8
       1       1       0       8       1       1       0       8       1       1
       0       8       1       1       0       8       1       1       0       8
       1       1       0       8       1       1       0       8       1       1
       0       8       1       1       0       8       1       1       0       8
       1       1       0       8       1       1       0       8       1       1
       0       8       1       1       0       8       1       1       0       8
       1       1       0       8       1       1       0       8       1       1
       0       8       1       1       0       8       1       1       0       8
       1       1       0       8       1       1       0       8       1       1
       0       8       1       1       0       8       1       1       0       8
       1       1       0       8       1       1       0       8       1       1
       0       8       1       1       0       8       1       1       0       8
       1       1       0       8       1       1       0       8       1       1
       0       8       1       1       0       8       1       1       0       8
       1       1       0       8       1       1       0       8       1       1
       0       8       1       1       0       8       1       1       0       8
       1       1       0       8       1       1       0       8       1       1
       0       8       1       1       0       8       1       1       0       8
       1       1       0       8       1       1       0       8       1       1
       0       8       1       1       0       8       1       1       0       8
       1       1       0       8       1       1       0       8       1       1
       0       8       1       1       0       8       1       1       0       8
       1       1       0       8       1       1       0       8       1       1
       0       8       1       1       0       8       1       1       0       8
       1       1       0       8       1       1       0       8       1       1
       0       8       1       1       0       8       1       1       0       8
       1       1       0       8       1       1       0       8       1       1
       0       8       1       1       0       8       1       1       0       8
       1       1       0       8       1       1       0       8       1       1
       0       8       1       1       0       8       1       1       0       8
       1       1       0       8       1       1       0       8       1       1
       0       8       1       1       0       8       1       1       0       8
       1       1       0       8       1       1       0       8       1       1
       0       8       1       1       0       8       1       1       0       8
       1       1       0       8       1       1       0       8       1       1
       0       8       1       1       0       8       1       1       0       8
       1       1       0       8       1       1       0       8       1       1
       0       8       1       1       0       8       1       1       0       8
       1       1       0       8       1       1       0       8       1       1
       0       8       1       1       0       8       1       1       0       8
       1       1       0       8       1       1       0       8       1       1
       0       8       1       1       0       8       1       1       0       8
       1       1       0       8       1       1       0       8       1       1
       0       8       1       1       0       8       1       1       0       8
       1       1       0       8       1       1       0       8       1       1
       0       8       1       1       0       8       1       1       0       8
       1       1       0       8       1       1       0       8       1       1
       0       8       1       1       0       8       1       1       0       8
       1       1       0       8       1       1       0       8       1       1
       0       8       1       1       0       8       1       1       0       8
       1       1       0       8       1       1       0       8       1       1
       0       8       1       1       0       8       1       1       0       8
       1       1       0       8       1       1       0       8       1       1
       0       8       1       1       0       8       1       1       0       8
       1       1       0       8       1       1       0       8       1       1
       0       8       1       1       0       8       1       1       0       8
       1       1       0       8       1       1       0       8       1       1
       0       8       1       1       0       8       1       1       0       8
       1       1       0       8       1       1       0       8       1       1
       0       8       1       1       0       8       1       1       0       8
       1       1       0       8       1       1       0       8       1       1
       0       8       1       1       0       8       1       1       0       8
       1       1       0       8       1       1       0       8       1       1
       0       8       1       1       0       8       1       1       0       8
       1       1       0       8       1       1       0       8       1       1
       0       8       1       1       0       8       1       1       0       8
       1       1       0       8       1       1       0       8       1       1
       0       8       1       1       0       8       1       1       0       8
       1       1       0       8       1       1       0       8       1       1
       0       8       1       1       0       8       1       1       0       8
       1       1       0       8       1       1       0       8       1       1
       0       8       1       1       0       8       1       1       0       8
       1       1       0       8       1       1       0       8       1       1
       0       8       1       1       0       8       1       1       0       8
       1       1       0       8       1       1       0       8       1       1
       0       8       1       1       0       8       1       1       0       8
       1       1       0       8       1       1       0       8       1       1
       0       8       1       1       0       8       1       1       0       8
       1       1       0       8       1       1       0       8       1       1
       0       8       1       1       0       8       1       1       0       8
       1       1       0       8       1       1       0       8       1       1
       0       8       1       1       0       8       1       1       0       8
       1       1       0       8       1       1       0       8       1       1
       0       8       1       1       0       8       1       1       0       8
       1       1       0       8       1       1       0       8       1       1
       0       8       1       1       0       8       1       1       0       8
       1       1       0       8       1       1       0       8       1       1
       0       8       1       1       0       8       1       1       0       8
       1       1       0       8       1       1       0       8       1       1
       0       8       1       1       0       8       1       1       0       8
       1       1       0       8       1       1       0       8       1       1
       0       8       1       1       0       8       1       1       0       8
       1       1       0       8       1       1       0       8       1       1
       0       8       1       1       0       8       1       1       0       8
       1       1       0       8       1       1       0       8       1       1
       0       8       1       1       0       8       1       1       0       8
       1       1       0       8       1       1       0       8       1       1
       0       8       1       1       0       8       1       1       0       8
       1       1       0       8       1       1       0       8       1       1
       0       8       1       1       0       8       1       1       0       8
       1       1       0       8       1       1       0       8       1       1
       0       8       1       1       0       8       1       1       0       8
       1       1       0       8       1       1       0       8       1       1
       0       8       1       1       0       8       1       1       0       8
       1       1       0       8       1       1       0       8       1       1
       0       8       1       1       0       8       1       1       0       8
       1       1       0       8       1       1       0       8       1       1
       0       8       1       1       0       8       1       1       0       8
       1       1       0       8       1       1       0       8       1       1
       0       8       1       1       0       8       1       1       0       8
       1       1       0       8       1       1       0       8       1       1
       0       8       1       1       0       8       1       1       0       8
       1       1       0       8       1       1       0       8       1       1
       0       8       1       1       0       8       1       1       0       8
       1       1       0       8       1       1       0       8       1       1
       0       8       1       1       0       8       1       1       0       8
       1       1       0       8       1       1       0       8       1       1
       0       8       1       1       0       8       1       1       0       8
       1       1       0       8       1       1       0       8       1       1
       0       8       1       1       0       8       1       1       0       8
       1       1       0       8       1       1       0       8       1       1
       0       8       1       1       0       8       1       1       0       8
       1       1       0       8       1       1       0       8       1       1
       0       8       1       1       0       8       1       1       0       8
       1       1       0       8       1       1       0       8       1       1
       0       8       1       1       0       8       1       1       0       8
       1       1       0       8       1       1       0       8       1       1
       0       8       1       1       0       8       1       1       0       8
       1       1       0       8       1       1       0       8       1       1
       0       8       1       1       0       8       1       1       0       8
       1       1       0       8       1       1       0       8       1       1
       0       8       1       1       0       8       1       1       0       8
       1       1       0       8       1       1       0       8       1       1
       0       8       1       1       0       8       1       1       0       8
       1       1       0       8       1       1       0       8       1       1
       0       8       1       1       0       8       1       1       0       8
       1       1       0       8       1       1       0       8       1       1
       0       8       1       1       0       8       1       1       0       8
       1       1       0       8       1       1       0       8       1       1
       0       8       1       1       0       8       1       1       0       8
       1       1       0       8       1       1       0       8       1       1
       0       8       1       1       0       8       1       1       0       8
       1       1       0       8       1       1       0       8       1       1
       0       8       1       1       0       8       1       1       0       8
       1       1       0       8       1       1       0       8       1       1
       0       8       1       1       0       8       1       1       0       8
       1       1       0       8       1       1       0       8       1       1
       0       8       1       1       0       8       1       1       0       8
       1       1       0       8       1       1       0       8       1       1
       0       8       1       1       0       8       1       1       0       8
       1       1       0       8       1       1       0       8       1       1
       0       8       1       1       0       8       1       1       0       8
       1       1       0       8       1       1       0       8       1       1
       0       8       1       1       0       8       1       1       0       8
       1       1       0       8       1       1       0       8       1       1
       0       8       1       1       0       8       1       1       0       8
       1       1       0       8       1       1       0       8       1       1
       0       8       1       1       0       8       1       1       0       8
       1       1       0       8       1       1       0       8       1       1
       0       8       1       1       0       8       1       1       0       8
       1       1       0       8       1       1       0       8       1       1
       0       8       1       1       0       8       1       1       0       8
       1       1       0       8       1       1       0       8       1       1
       0       8       1       1       0       8       1       1       0       8
       1       1       0       8       1       1       0       8       1       1
       0       8       1       1       0       8       1       1       0       8
       1       1       0       8       1       1       0       8       1       1
       0       8       1       1       0       8       1       1       0       8
       1       1       0       8       1       1       0       8       1       1
       0       8       1       1       0       8       1       1       0       8
       1       1       0       8       1       1       0       8       1       1
       0       8       1       1       0       8       1       1       0       8
       1       1       0       8       1       1       0       8       1       1
       0       8       1       1       0       8       1       1       0       8
       1       1       0       8       1       1       0       8       1       1
       0       8       1       1       0       8       1       1       0       8
       1       1       0       8       1       1       0       8       1       1
       0       8       1       1       0       8       1       1       0       8
       1       1       0       8       1       1       0       8       1       1
       0       8       1       1       0       8       1       1       0       8
       1       1       0       8       1       1       0       8       1       1
       0       8       1       1       0       8       1       1       0       8
       1       1       0       8       1       1       0       8       1       1
       0       8       1       1       0       8       1       1       0       8
       1       1       0       8       1       1       0       8       1       1
       0       8       1       1       0       8       1       1       0       8
       1       1       0       8       1       1       0       8       1       1
       0       8       1       1       0       8       1       1       0       8
       1       1       0       8       1       1       0       8       1       1
       0       8       1       1       0       8       1       1       0       8
       1       1       0       8       1       1       0       8       1       1
       0       8       1       1       0       8       1       1       0       8
       1       1       0       8       1       1       0       8       1       1
       0       8       1       1       0       8       1       1       0       8
       1       1       0       8       1       1       0       8       1       1
       0       8       1       1       0       8       1       1       0       8
       1       1       0       8       1       1       0       8       1       1
       0       8       1       1       0       8       1       1       0       8
       1       1       0       8       1       1       0       8       1       1
       0       8       1       1       0       8       1       1       0       8
       1       1       0       8       1       1       0       8       1       1
       0       8       1       1       0       8       1       1       0       8
       1       1       0       8       1       1       0       8       1       1
       0       8       1       1       0       8       1       1       0       8
       1       1       0       8       1       1       0       8       1       1
       0       8       1       1       0       8       1       1       0       8
       1       1       0       8       1       1       0       8       1       1
       0       8       1       1       0       8       1       1       0       8
       1       1       0       8       1       1       0       8       1       1
       0       8       1       1       0       8       1       1       0       8
       1       1       0       8       1       1       0       8       1       1
       0       8       1       1       0       8       1       1       0       8
       1       1       0       8       1       1       0       8       1       1
       0       8       1       1       0       8       1       1       0       8
       1       1       0       8       1       1       0       8       1       1
       0       8       1       1       0       8       1       1       0       8
       1       1       0       8       1       1       0       8       1       1
       0       8       1       1       0       8       1       1       0       8
       1       1       0       8       1       1       0       8       1       1
       0       8       1       1       0       8       1       1       0       8
       1       1       0       8       1       1       0       8       1       1
       0       8       1       1       0       8       1       1       0       8
       1       1       0       8       1       1       0       8       1       1
       0       8       1       1       0       8       1       1       0       8
       1       1       0       8       1       1       0       8       1       1
       0       8       1       1       0       8       1       1       0       8
       1       1       0       8       1       1       0       8       1       1
       0       8       1       1       0       8       1       1       0       8
       1       1       0       8       1       1       0       8       1       1
       0       8       1       1       0       8       1       1       0       8
       1       1       0       8       1       1       0       8       1       1
       0       8       1       1       0       8       1       1       0       8
       1       1       0       8       1       1       0       8       1       1
       0       8       1       1       0       8       1       1       0       8
       1       1       0       8       1       1       0       8       1       1
       0       8       1       1       0       8       1       1       0       8
       1       1       0       8       1       1       0       8       1       1
       0       8       1       1       0       8       1       1       0       8
       1       1       0       8       1       1       0       8       1       1
       0       8       1       1       0       8       1       1       0       8
       1       1       0       8       1       1       0       8       1       1
       0       8       1       1       0       8       1       1       0       8
       1       1       0       8       1       1       0       8       1       1
       0       8       1       1       0       8       1       1       0       8
       1       1       0       8       1       1       0       8       1       1
       0       8       1       1       0       8       1       1       0       8
       1       1       0       8       1       1       0       8       1       1
       0       8       1       1       0       8       1       1       0       8
       1       1       0       8       1       1       0       8       1       1
       0       8       1       1       0       8       1       1       0       8
       1       1       0       8       1       1       0       8       1       1
       0       8       1       1       0       8       1       1       0       8
       1       1       0       8       1       1       0       8       1       1
       0       8       1       1       0       8       1       1       0       8
       1       1       0       8       1       1       0       8       1       1
       0       8       1       1       0       8       1       1       0       8
       1       1       0       8       1       1       0       8       1       1
       0       8       1       1       0       8       1       1       0       8
       1       1       0       8       1       1       0       8       1       1
       0       8       1       1       0       8       1       1       0       8
       1       1       0       8       1       1       0       8       1       1
       0       8       1       1       0       8       1       1       0       8
       1       1       0       8       1       1       0       8       1       1
       0       8       1       1       0       8       1       1       0       8
       1       1       0       8       1       1       0       8       1       1
       0       8       1       1       0       8       1       1       0       8
       1       1       0       8       1       1       0       8       1       1
       0       8       1       1       0       8       1       1       0       8
       1       1       0       8       1       1       0       8       1       1
       0       8       1       1       0       8       1       1       0       8
       1       1       0       8       1       1       0       8       1       1
       0       8       1       1       0       8       1       1       0       8
       1       1       0       8       1       1       0       8       1       1
       0       8       1       1       0       8       1       1       0       8
       1       1       0       8       1       1       0       8       1       1
       0       8       1       1       0       8       1       1       0       8
       1       1       0       8       1       1       0       8       1       1
       0       8       1       1       0       8       1       1       0       8
       1       1       0       8       1       1       0       8       1       1
       0       8       1       1       0       8       1       1       0       8
       1       1       0       8       1       1       0       8       1       1
       0       8       1       1       0       8       1       1       0       8
       1       1       0       8       1       1       0       8       1       1
       0       8       1       1       0       8       1       1       0       8
       1       1       0       8       1       1       0       8       1       1
       0       8       1       1       0       8       1       1       0       8
       1       1       0       8       1       1       0       8       1       1
       0       8       1       1       0       8       1       1       0       8
       1       1       0       8       1       1       0       8       1       1
       0       8       1       1       0       8       1       1       0       8
       1       1       0       8       1       1       0       8       1       1
       0       8       1       1       0       8       1       1       0       8
       1       1       0       8       1       1       0       8       1       1
       0       8       1       1       0       8       1       1       0       8
       1       1       0       8       1       1       0       8       1       1
       0       8       1       1       0       8       1       1       0       8
       1       1       0       8       1       1       0       8       1       1
       0       8       1       1       0       8       1       1       0       8
       1       1       0       8       1       1       0       8       1       1
       0       8       1       1       0       8       1       1       0       8
       1       1       0       8       1       1       0       8       1       1
       0       8       1       1       0       8       1       1       0       8
       1       1       0       8       1       1       0       8       1       1
       0       8       1       1       0       8       1       1       0       8
       1       1       0       8       1       1       0       8       1       1
       0       8       1       1       0       8       1       1       0       8
       1       1       0       8       1       1       0       8       1       1
       0       8       1       1       0       8       1       1       0       8
       1       1       0       8       1       1       0       8       1       1
       0       8       1       1       0       8       1       1       0       8
       1       1       0       8       1       1       0       8       1       1
       0       8       1       1       0       8       1       1       0       8
       1       1       0       8       1       1       0       8       1       1
       0       8       1       1       0       8       1       1       0       8
       1       1       0       8       1       1       0       8       1       1
       0       8       1       1       0       8       1       1       0       8
       1       1       0       8       1       1       0       8       1       1
       0       8       1       1       0       8       1       1       0       8
       1       1       0       8       1       1       0       8       1       1
       0       8       1       1       0       8       1       1       0       8
       1       1       0       8       1       1       0       8       1       1
       0       8       1       1       0       8       1       1       0       8
       1       1       0       8       1       1       0       8       1       1
       0       8       1       1       0       8       1       1       0       8
       1       1       0       8       1       1       0       8       1       1
       0       8       1       1       0       8       1       1       0       8
       1       1       0       8       1       1       0       8       1       1
       0       8       1       1       0       8       1       1       0       8
       1       1       0       8       1       1       0       8       1       1
       0       8       1       1       0       8       1       1       0       8
       1       1       0       8       1       1       0       8       1       1
       0       8       1       1       0       8       1       1       0       8
       1       1       0       8       1       1       0       8       1       1
       0       8       1       1       0       8       1       1       0       8
       1       1       0       8       1       1       0       8       1       1
       0       8       1       1       0       8       1       1       0       8
       1       1       0       8       1       1       0       8       1       1
       0       8       1       1       0       8       1       1       0       8
       1       1       0       8       1       1       0       8       1       1
       0       8       1       1       0       8       1       1       0       8
       1       1       0       8       1       1       0       8       1       1
       0       8       1       1       0       8       1       1       0       8
       1       1       0       8       1       1       0       8       1       1
       0       8       1       1       0       8       1       1       0       8
       1       1       0       8       1       1       0       8       1       1
       0       8       1       1       0       8       1       1       0       8
       1       1       0       8       1       1       0       8       1       1
       0       8       1       1       0       8       1       1       0       8
       1       1       0       8       1       1       0       8       1       1
       0       8       1       1       0       8       1       1       0       8
       1       1       0       8       1       1       0       8       1       1
       0       8       1       1       0       8       1       1       0       8
       1       1       0       8       1       1       0       8       1       1
       0       8       1       1       0       8       1       1       0       8
       1       1       0       8       1       1       0       8       1       1
       0       8       1       1       0       8       1       1       0       8
       1       1       0       8       1       1       0       8       1       1
       0       8       1       1       0       8       1       1       0       8
       1       1       0       8       1       1       0       8       1       1
       0       8       1       1       0       8       1       1       0       8
       1       1       0       8       1       1       0       8       1       1
       0       8       1       1       0       8       1       1       0       8
       1       1       0       8       1       1       0       8       1       1
       0       8       1       1       0       8       1       1       0       8
       1       1       0       8       1       1       0       8       1       1
       0       8       1       1       0       8       1       1       0       8
       1       1       0       8       1       1       0       8       1       1
       0       8       1       1       0       8       1       1       0       8
       1       1       0       8       1       1       0       8       1       1
       0       8       1       1       0       8       1       1       0       8
       1       1       0       8       1       1       0       8       1       1
       0       8       1       1       0       8       1       1       0       8
       1       1       0       8       1       1       0       8       1       1
       0       8       1       1       0       8       1       1       0       8
       1       1       0       8       1       1       0       8       1       1
       0       8       1       1       0       8       1       1       0       8
       1       1       0       8       1       1       0       8       1       1
       0       8       1       1       0       8       1       1       0       8
       1       1       0       8       1       1       0       8       1       1
       0       8       1       1       0       8       1       1       0       8
       1       1       0       8       1       1       0       8       1       1
       0       8       1       1       0       8       1       1       0       8
       1       1       0       8       1       1       0       8       1       1
       0       8       1       1       0       8       1       1       0       8
       1       1       0       8       1       1       0       8       1       1
       0       8       1       1       0       8       1       1       0       8
       1       1       0       8       1       1       0       8       1       1
       0       8       1       1       0       8       1       1       0       8
       1       1       0       8       1       1       0       8       1       1
       0       8       1       1       0       8       1       1       0       8
       1       1       0       8       1       1       0       8       1       1
       0       8       1       1       0       8       1       1       0       8
       1       1       0       8       1       1       0       8       1       1
       0       8       1       1       0       8       1       1       0       8
       1       1       0       8       1       1       0       8       1       1
       0       8       1       1       0       8       1       1       0       8
       1       1       0       8       1       1       0       8       1       1
       0       8       1       1       0       8       1       1       0       8
       1       1       0       8       1       1       0       8       1       1
       0       8       1       1       0       8       1       1       0       8
       1       1       0       8       1       1       0       8       1       1
       0       8       1       1       0       8       1       1       0       8
       1       1       0       8       1       1       0       8       1       1
       0       8       1       1       0       8       1       1       0       8
       1       1       0       8       1       1       0       8       1       1
       0       8       1       1       0       8       1       1       0       8
       1       1       0       8       1       1       0       8       1       1
       0       8       1       1       0       8       1       1       0       8
       1       1       0       8       1       1       0       8       1       1
       0       8       1       1       0       8       1       1       0       8
       1       1       0       8       1       1       0       8       1       1
       0       8       1       1       0       8       1       1       0       8
       1       1       0       8       1       1       0       8       1       1
       0       8       1       1       0       8       1       1       0       8
       1       1       0       8       1       1       0       8       1       1
       0       8       1       1       0       8       1       1       0       8
       1       1       0       8       1       1       0       8       1       1
       0       8       1       1       0       8       1       1       0       8
       1       1       0       8       1       1       0       8       1       1
       0       8       1       1       0       8       1       1       0       8
       1       1       0       8       1       1       0       8       1       1
       0       8       1       1       0       8       1       1       0       8
       1       1       0       8       1       1       0       8       1       1
       0       8       1       1       0       8       1       1       0       8
       1       1       0       8       1       1       0       8       1       1
       0       8       1       1       0       8       1       1       0       8
       1       1       0       8       1       1       0       8       1       1
       0       8       1       1       0       8       1       1       0       8
       1       1       0       8       1       1       0       8       1       1
       0       8       1       1       0       8       1       1       0       8
       1       1       0       8       1       1       0       8       1       1
       0       8       1       1       0       8       1       1       0       8
       1       1       0       8       1       1       0       8       1       1
       0       8       1       1       0       8       1       1       0       8
       1       1       0       8       1       1       0       8       1       1
       0       8       1       1       0       8       1       1       0       8
       1       1       0       8       1       1       0       8       1       1
       0       8       1       1       0       8       1       1       0       8
       1       1       0       8       1       1       0       8       1       1
       0       8       1       1       0       8       1       1       0       8
       1       1       0       8       1       1       0       8       1       1
       0       8       1       1       0       8       1       1       0       8
       1       1       0       8       1       1       0       8       1       1
       0       8       1       1       0       8       1       1       0       8
       1       1       0       8       1       1       0       8       1       1
       0       8       1       1       0       8       1       1       0       8
       1       1       0       8       1       1       0       8       1       1
       0       8       1       1       0       8       1       1       0       8
       1       1       0       8       1       1       0       8       1       1
       0       8       1       1       0       8       1       1       0       8
       1       1       0       8       1       1       0       8       1       1
       0       8       1       1       0       8       1       1       0       8
       1       1       0       8       1       1       0       8       1       1
       0       8       1       1       0       8       1       1       0       8
       1       1       0       8       1       1       0       8       1       1
       0       8       1       1       0       8       1       1       0       8
       1       1       0       8       1       1       0       8       1       1
       0       8       1       1       0       8       1       1       0       8
       1       1       0       8       1       1       0       8       1       1
       0       8       1       1       0       8       1       1       0       8
       1       1       0       8       1       1       0       8       1       1
       0       8       1       1       0       8       1       1       0       8
       1       1       0       8       1       1       0       8       1       1
       0       8       1       1       0       8       1       1       0       8
       1       1       0       8       1       1       0       8       1       1
       0       8       1       1       0       8       1       1       0       8
       1       1       0       8       1       1       0       8       1       1
       0       8       1       1       0       8       1       1       0       8
       1       1       0       8       1       1       0       8       1       1
       0       8       1       1       0       8       1       1       0       8
       1       1       0       8       1       1       0       8       1       1
       0       8       1       1       0       8       1       1       0       8
       1       1       0       8       1       1       0       8       1       1
       0       8       1       1       0       8       1       1       0       8
       1       1       0       8       1       1       0       8       1       1
       0       8       1       1       0       8       1       1       0       8
       1       1       0       8       1       1       0       8       1       1
       0       8       1       1       0       8       1       1       0       8
       1       1       0       8       1       1       0       8       1       1
       0       8       1       1       0       8       1       1       0       8
       1       1       0       8       1       1       0       8       1       1
       0       8       1       1       0       8       1       1       0       8
       1       1       0       8       1       1       0       8       1       1
       0       8       1       1       0       8       1       1       0       8
       1       1       0       8       1       1       0       8       1       1
       0       8       1       1       0       8       1       1       0       8
       1       1       0       8       1       1       0       8       1       1
       0       8       1       1       0       8       1       1       0       8
       1       1       0       8       1       1       0       8       1       1
       0       8       1       1       0       8       1       1       0       8
       1       1       0       8       1       1       0       8       1       1
       0       8       1       1       0       8       1       1       0       8
       1       1       0       8       1       1       0       8       1       1
       0       8       1       1       0       8       1       1       0       8
       1       1       0       8       1       1       0       8       1       1
       0       8       1       1       0       8       1       1       0       8
       1       1       0       8       1       1       0       8       1       1
       0       8       1       1       0       8       1       1       0       8
       1       1       0       8       1       1       0       8       1       1
       0       8       1       1       0       8       1       1       0       8
       1       1       0       8       1       1       0       8       1       1
       0       8       1       1       0       8       1       1       0       8
       1       1       0       8       1       1       0       8       1       1
       0       8       1       1       0       8       1       1       0       8
       1       1       0       8       1       1       0       8       1       1
       0       8       1       1       0       8       1       1       0       8
       1       1       0       8       1       1       0       8       1       1
       0       8       1       1       0       8       1       1       0       8
       1       1       0       8       1       1       0       8       1       1
       0       8       1       1       0       8       1       1       0       8
       1       1       0       8       1       1       0       8       1       1
       0       8       1       1       0       8       1       1       0       8
       1       1       0       8       1       1       0       8       1       1
       0       8       1       1       0       8       1       1       0       8
       1       1       0       8       1       1       0       8       1       1
       0       8       1       1       0       8       1       1       0       8
       1       1       0       8       1       1       0       8       1       1
       0       8       1       1       0       8       1       1       0       8
       1       1       0       8       1       1       0       8       1       1
       0       8       1       1       0       8       1       1       0       8
       1       1       0       8       1       1       0       8       1       1
       0       8       1       1       0       8       1       1       0       8
       1       1       0       8       1       1       0       8       1       1
       0       8       1       1       0       8       1       1       0       8
       1       1       0       8       1       1       0       8       1       1
       0       8       1       1       0       8       1       1       0       8
       1       1       0       8       1       1       0       8       1       1
       0       8       1       1       0       8       1       1       0       8
       1       1       0       8       1       1       0       8       1       1
       0       8       1       1       0       8       1       1       0       8
       1       1       0       8       1       1       0       8       1       1
       0       8       1       1       0       8       1       1       0       8
       1       1       0       8       1       1       0       8       1       1
       0       8       1       1       0       8       1       1       0       8
       1       1       0       8       1       1       0       8       1       1
       0       8       1       1       0       8       1       1       0       8
       1       1       0       8       1       1       0       8       1       1
       0       8       1       1       0       8       1       1       0       8
       1       1       0       8       1       1       0       8       1       1
       0       8       1       1       0       8       1       1       0       8
       1       1       0       8       1       1       0       8       1       1
       0       8       1       1       0       8       1       1       0       8
       1       1       0       8       1       1       0       8       1       1
       0       8       1       1       0       8       1       1       0       8
       1       1       0       8       1       1       0       8       1       1
       0       8       1       1       0       8       1       1       0       8
       1       1       0       8       1       1       0       8       1       1
       0       8       1       1       0       8       1       1       0       8
       1       1       0       8       1       1       0       8       1       1
       0       8       1       1       0       8       1       1       0       8
       1       1       0       8       1       1       0       8       1       1
       0       8       1       1       0       8       1       1       0       8
       1       1       0       8       1       1       0       8       1       1
       0       8       1       1       0       8       1       1       0       8
       1       1       0       8       1       1       0       8       1       1
       0       8       1       1       0       8       1       1       0       8
       1       1       0       8       1       1       0       8       1       1
       0       8       1       1       0       8       1       1       0       8
       1       1       0       8       1       1       0       8       1       1
       0       8       1       1       0       8       1       1       0       8
       1       1       0       8       1       1       0       8       1       1
       0       8       1       1       0       8       1       1       0       8
       1       1       0       8       1       1       0       8       1       1
       0       8       1       1       0       8       1       1       0       8
       1       1       0       8       1       1       0       8       1       1
       0       8       1       1       0       8       1       1       0       8
       1       1       0       8       1       1       0       8       1       1
       0       8       1       1       0       8       1       1       0       8
       1       1       0       8       1       1       0       8       1       1
       0       8       1       1       0       8       1       1       0       8
       1       1       0       8       1       1       0       8       1       1
       0       8       1       1       0       8       1       1       0       8
       1       1       0       8       1       1       0       8       1       1
       0       8       1       1       0       8       1       1       0       8
       1       1       0       8       1       1       0       8       1       1
       0       8       1       1       0       8       1       1       0       8
       1       1       0       8       1       1       0       8       1       1
       0       8       1       1       0       8       1       1       0       8
       1       1       0       8       1       1       0       8       1       1
       0       8       1       1       0       8       1       1       0       8
       1       1       0       8       1       1       0       8       1       1
       0       8       1       1       0       8       1       1       0       8
       1       1       0       8       1       1       0       8       1       1
       0       8       1       1       0       8       1       1       0       8
       1       1       0       8       1       1       0       8       1       1
       0       8       1       1       0       8       1       1       0       8
       1       1       0       8       1       1       0       8       1       1
       0       8       1       1       0       8       1       1       0       8
       1       1       0       8       1       1       0       8       1       1
       0       8       1       1       0       8       1       1       0       8
       1       1       0       8       1       1       0       8       1       1
       0       8       1       1       0       8       1       1       0       8
       1       1       0       8       1       1       0       8       1       1
       0       8       1       1       0       8       1       1       0       8
       1       1       0       8       1       1       0       8       1       1
       0       8       1       1       0       8       1       1       0       8
       1       1       0       8       1       1       0       8       1       1
       0       8       1       1       0       8       1       1       0       8
       1       1       0       8       1       1       0       8       1       1
       0       8       1       1       0       8       1       1       0       8
       1       1       0       8       1       1       0       8       1       1
       0       8       1       1       0       8       1       1       0       8
       1       1       0       8       1       1       0       8       1       1
       0       8       1       1       0       8       1       1       0       8
       1       1       0       8       1       1       0       8       1       1
       0       8       1       1       0       8       1       1       0       8
       1       1       0       8       1       1       0       8       1       1
       0       8       1       1       0       8       1       1       0       8
       1       1       0       8       1       1       0       8       1       1
       0       8       1       1       0       8       1       1       0       8
       1       1       0       8       1       1       0       8       1       1
       0       8       1       1       0       8       1       1       0       8
       1       1       0       8       1       1       0       8       1       1
       0       8       1       1       0       8       1       1       0       8
       1       1       0       8       1       1       0       8       1       1
       0       8       1       1       0       8       1       1       0       8
       1       1       0       8       1       1       0       8       1       1
       0       8       1       1       0       8       1       1       0       8
       1       1       0       8       1       1       0       8       1       1
       0       8       1       1       0       8       1       1       0       8
       1       1       0       8       1       1       0       8       1       1
       0       8       1       1       0       8       1       1       0       8
       1       1       0       8       1       1       0       8       1       1
       0       8       1       1       0       8       1       1       0       8
       1       1       0       8       1       1       0       8       1       1
       0       8       1       1       0       8       1       1       0       8
       1       1       0       8       1       1       0       8       1       1
       0       8       1       1       0       8       1       1       0       8
       1       1       0       8       1       1       0       8       1       1
       0       8       1       1       0       8       1       1       0       8
       1       1       0       8       1       1       0       8       1       1
       0       8       1       1       0       8       1       1       0       8
       1       1       0       8       1       1       0       8       1       1
       0       8       1       1       0       8       1       1       0       8
       1       1       0       8       1       1       0       8       1       1
       0       8       1       1       0       8       1       1       0       8
       1       1       0       8       1       1       0       8       1       1
       0       8       1       1       0       8       1       1       0       8
       1       1       0       8       1       1       0       8       1       1
       0       8       1       1       0       8       1       1       0       8
       1       1       0       8       1       1       0       8       1       1
       0       8       1       1       0       8       1       1       0       8
       1       1       0       8       1       1       0       8       1       1
       0       8       1       1       0       8       1       1       0       8
       1       1       0       8       1       1       0       8       1       1
       0       8       1       1       0       8       1       1       0       8
       1       1       0       8       1       1       0       8       1       1
       0       8       1       1       0       8       1       1       0       8
       1       1       0       8       1       1       0       8       1       1
       0       8       1       1       0       8       1       1       0       8
       1       1       0       8       1       1       0       8       1       1
       0       8       1       1       0       8       1       1       0       8
       1       1       0       8       1       1       0       8       1       1
       0       8       1       1       0       8       1       1       0       8
       1       1       0       8       1       1       0       8       1       1
       0       8       1       1       0       8       1       1       0       8
       1       1       0       8       1       1       0       8       1       1
       0       8       1       1       0       8       1       1       0       8
       1       1       0       8       1       1       0       8       1       1
       0       8       1       1       0       8       1       1       0       8
       1       1       0       8       1       1       0       8       1       1
       0       8       1       1       0       8       1       1       0       8
       1       1       0       8       1       1       0       8       1       1
       0       8       1       1       0       8       1       1       0       8
       1       1       0       8       1       1       0       8       1       1
       0       8       1       1       0       8       1       1       0       8
       1       1       0       8       1       1       0       8       1       1
       0       8       1       1       0       8       1       1       0       8
       1       1       0       8       1       1       0       8       1       1
       0       8       1       1       0       8       1       1       0       8
       1       1       0       8       1       1       0       8       1       1
       0       8       1       1       0       8       1       1       0       8
       1       1       0       8       1       1       0       8       1       1
       0       8       1       1       0       8       1       1       0       8
       1       1       0       8       1       1       0       8       1       1
       0       8       1       1       0       8       1       1       0       8
       1       1       0       8       1       1       0       8       1       1
       0       8       1       1       0       8       1       1       0       8
       1       1       0       8       1       1       0       8       1       1
       0       8       1       1       0       8       1       1       0       8
       1       1       0       8       1       1       0       8       1       1
       0       8       1       1       0       8       1       1       0       8
       1       1       0       8       1       1       0       8       1       1
       0       8       1       1       0       8       1       1       0       8
       1       1       0       8       1       1       0       8       1       1
       0       8       1       1       0       8       1       1       0       8
       1       1       0       8       1       1       0       8       1       1
       0       8       1       1       0       8       1       1       0       8
       1       1       0       8       1       1       0       8       1       1
       0       8       1       1       0       8       1       1       0       8
       1       1       0       8       1       1       0       8       1       1
       0       8       1       1       0       8       1       1       0       8
       1       1       0       8       1       1       0       8       1       1
       0       8       1       1       0       8       1       1       0       8
       1       1       0       8       1       1       0       8       1       1
       0       8       1       1       0       8       1       1       0       8
       1       1       0       8       1       1       0       8       1       1
       0       8       1       1       0       8       1       1       0       8
       1       1       0       8       1       1       0       8       1       1
       0       8       1       1       0       8       1       1       0       8
       1       1       0       8       1       1       0       8       1       1
       0       8       1       1       0       8       1       1       0       8
       1       1       0       8       1       1       0       8       1       1
       0       8       1       1       0       8       1       1       0       8
       1       1       0       8       1       1       0       8       1       1
       0       8       1       1       0       8       1       1       0       8
       1       1       0       8       1       1       0       8       1       1
       0       8       1       1       0       8       1       1       0       8
       1       1       0       8       1       1       0       8       1       1
       0       8       1       1       0       8       1       1       0       8
       1       1       0       8       1       1       0       8       1       1
       0       8       1       1       0       8       1       1       0       8
       1       1       0       8       1       1       0       8       1       1
       0       8       1       1       0       8       1       1       0       8
       1       1       0       8       1       1       0       8       1       1
       0       8       1       1       0       8       1       1       0       8
       1       1       0       8       1       1       0       8       1       1
       0       8       1       1       0       8       1       1       0       8
       1       1       0       8       1       1       0       8       1       1
       0       8       1       1       0       8       1       1       0       8
       1       1       0       8       1       1       0       8       1       1
       0       8       1       1       0       8       1       1       0       8
       1       1       0       8       1       1       0       8       1       1
       0       8       1       1       0       8       1       1       0       8
       1       1       0       8       1       1       0       8       1       1
       0       8       1       1       0       8       1       1       0       8
       1       1       0       8       1       1       0       8       1       1
       0       8       1       1       0       8       1       1       0       8
       1       1       0       8       1       1       0       8       1       1
       0       8       1       1       0       8       1       1       0       8
       1       1       0       8       1       1       0       8       1       1
       0       8       1       1       0       8       1       1       0       8
       1       1       0       8       1       1       0       8       1       1
       0       8       1       1       0       8       1       1       0       8
       1       1       0       8       1       1       0       8       1       1
       0       8       1       1       0       8       1       1       0       8
       1       1       0       8       1       1       0       8       1       1
       0       8       1       1       0       8       1       1       0       8
       1       1       0       8       1       1       0       8       1       1
       0       8       1       1       0       8       1       1       0       8
       1       1       0       8       1       1       0       8       1       1
       0       8       1       1       0       8       1       1       0       8
       1       1       0       8       1       1       0       8       1       1
       0       8       1       1       0       8       1       1       0       8
       1       1       0       8       1       1       0       8       1       1
       0       8       1       1       0       8       1       1       0       8
       1       1       0       8       1       1       0       8       1       1
       0       8       1       1       0       8       1       1       0       8
       1       1       0       8       1       1       0       8       1       1
       0       8       1       1       0       8       1       1       0       8
       1       1       0       8       1       1       0       8       1       1
       0       8       1       1       0       8       1       1       0       8
       1       1       0       8       1       1       0       8       1       1
       0       8       1       1       0       8       1       1       0       8
       1       1       0       8       1       1       0       8       1       1
       0       8       1       1       0       8       1       1       0       8
       1       1       0       8       1       1       0       8       1       1
       0       8       1       1       0       8       1       1       0       8
       1       1       0       8       1       1       0       8       1       1
       0       8       1       1       0       8       1       1       0       8
       1       1       0       8       1       1       0       8       1       1
       0       8       1       1       0       8       1       1       0       8
       1       1       0       8       1       1       0       8       1       1
       0       8       1       1       0       8       1       1       0       8
       1       1       0       8       1       1       0       8       1       1
       0       8       1       1       0       8       1       1       0       8
       1       1       0       8       1       1       0       8       1       1
       0       8       1       1       0       8       1       1       0       8
       1       1       0       8       1       1       0       8       1       1
       0       8       1       1       0       8       1       1       0       8
       1       1       0       8       1       1       0       8       1       1
       0       8       1       1       0       8       1       1       0       8
       1       1       0       8       1       1       0       8       1       1
       0       8       1       1       0       8       1       1       0       8
       1       1       0       8       1       1       0       8       1       1
       0       8       1       1       0       8       1       1       0       8
       1       1       0       8       1       1       0       8       1       1
       0       8       1       1       0       8       1       1       0       8
       1       1       0       8       1       1       0       8       1       1
       0       8       1       1       0       8       1       1       0       8
       1       1       0       8       1       1       0       8       1       1
       0       8       1       1       0       8       1       1       0       8
       1       1       0       8       1       1       0       8       1       1
       0       8       1       1       0       8       1       1       0       8
       1       1       0       8       1       1       0       8       1       1
       0       8       1       1       0       8       1       1       0       8
       1       1       0       8       1       1       0       8       1       1
       0       8       1       1       0       8       1       1       0       8
       1       1       0       8       1       1       0       8       1       1
       0       8       1       1       0       8       1       1       0       8
       1       1       0       8       1       1       0       8       1       1
       0       8       1       1       0       8       1       1       0       8
       1       1       0       8       1       1       0       8       1       1
       0       8       1       1       0       8       1       1       0       8
       1       1       0       8       1       1       0       8       1       1
       0       8       1       1       0       8       1       1       0       8
       1       1       0       8       1       1       0       8       1       1
       0       8       1       1       0       8       1       1       0       8
       1       1       0       8       1       1       0       8       1       1
       0       8       1       1       0       8       1       1       0       8
       1       1       0       8       1       1       0       8       1       1
       0       8       1       1       0       8       1       1       0       8
       1       1       0       8       1       1       0       8       1       1
       0       8       1       1       0       8       1       1       0       8
       1       1       0       8       1       1       0       8       1       1
       0       8       1       1       0       8       1       1       0       8
       1       1       0       8       1       1       0       8       1       1
       0       8       1       1       0       8       1       1       0       8
       1       1       0       8       1       1       0       8       1       1
       0       8       1       1       0       8       1       1       0       8
       1       1       0       8       1       1       0       8       1       1
       0       8       1       1       0       8       1       1       0       8
       1       1       0       8       1       1       0       8       1       1
       0       8       1       1       0       8       1       1       0       8
       1       1       0       8       1       1       0       8       1       1
       0       8       1       1       0       8       1       1       0       8
       1       1       0       8       1       1       0       8       1       1
       0       8       1       1       0       8       1       1       0       8
       1       1       0       8       1       1       0       8       1       1
       0       8       1       1       0       8       1       1       0       8
       1       1       0       8       1       1       0       8       1       1
       0       8       1       1       0       8       1       1       0       8
       1       1       0       8       1       1       0       8       1       1
       0       8       1       1       0       8       1       1       0       8
       1       1       0       8       1       1       0       8       1       1
       0       8       1       1       0       8       1       1       0       8
       1       1       0       8       1       1       0       8       1       1
       0       8       1       1       0       8       1       1       0       8
       1       1       0       8       1       1       0       8       1       1
       0       8       1       1       0       8       1       1       0       8
       1       1       0       8       1       1       0       8       1       1
       0       8       1       1       0       8       1       1       0       8
       1       1       0       8       1       1       0       8       1       1
       0       8       1       1       0       8       1       1       0       8
       1       1       0       8       1       1       0       8       1       1
       0       8       1       1       0       8       1       1       0       8
       1       1       0       8       1       1       0       8       1       1
       0       8       1       1       0       8       1       1       0       8
       1       1       0       8       1       1       0       8       1       1
       0       8       1       1       0       8       1       1       0       8
       1       1       0       8       1       1       0       8       1       1
       0       8       1       1       0       8       1       1       0       8
       1       1       0       8       1       1       0       8       1       1
       0       8       1       1       0       8       1       1       0       8
       1       1       0       8       1       1       0       8       1       1
       0       8       1       1       0       8       1       1       0       8
       1       1       0       8       1       1       0       8       1       1
       0       8       1       1       0       8       1       1       0       8
       1       1       0       8       1       1       0       8       1       1
       0       8       1       1       0       8       1       1       0       8
       1       1       0       8       1       1       0       8       1       1
       0       8       1       1       0       8       1       1       0       8
       1       1       0       8       1       1       0       8       1       1
       0       8       1       1       0       8       1       1       0       8
       1       1       0       8       1       1       0       8       1       1
       0       8       1       1       0       8       1       1       0       8
       1       1       0       8       1       1       0       8       1       1
       0       8       1       1       0       8       1       1       0       8
       1       1       0       8       1       1       0       8       1       1
       0       8       1       1       0       8       1       1       0       8
       1       1       0       8       1       1       0       8       1       1
       0       8       1       1       0       8       1       1       0       8
       1       1       0       8       1       1       0       8       1       1
       0       8       1       1       0       8       1       1       0       8
       1       1       0       8       1       1       0       8       1       1
       0       8       1       1       0       8       1       1       0       8
       1       1       0       8       1       1       0       8       1       1
       0       8       1       1       0       8       1       1       0       8
       1       1       0       8       1       1       0       8       1       1
       0       8       1       1       0       8       1       1       0       8
       1       1       0       8       1       1       0       8       1       1
       0       8       1       1       0       8       1       1       0       8
       1       1       0       8       1       1       0       8       1       1
       0       8       1       1       0       8       1       1       0       8
       1       1       0       8       1       1       0       8       1       1
       0       8       1       1       0       8       1       1       0       8
       1       1       0       8       1       1       0       8       1       1
       0       8       1       1       0       8       1       1       0       8
       1       1       0       8       1       1       0       8       1       1
       0       8       1       1       0       8       1       1       0       8
       1       1       0       8       1       1       0       8       1       1
       0       8       1       1       0       8       1       1       0       8
       1       1       0       8       1       1       0       8       1       1
       0       8       1       1       0       8       1       1       0       8
       1       1       0       8       1       1       0       8       1       1
       0       8       1       1       0       8       1       1       0       8
       1       1       0       8       1       1       0       8       1       1
       0       8       1       1       0       8       1       1       0       8
       1       1       0       8       1       1       0       8       1       1
       0       8       1       1       0       8       1       1       0       8
       1       1       0       8       1       1       0       8       1       1
       0       8       1       1       0       8       1       1       0       8
       1       1       0       8       1       1       0       8       1       1
       0       8       1       1       0       8       1       1       0       8
       1       1       0       8       1       1       0       8       1       1
       0       8       1       1       0       8       1       1       0       8
       1       1       0       8       1       1       0       8       1       1
       0       8       1       1       0       8       1       1       0       8
       1       1       0       8       1       1       0       8       1       1
       0       8       1       1       0       8       1       1       0       8
       1       1       0       8       1       1       0       8       1       1
       0       8       1       1       0       8       1       1       0       8
       1       1       0       8       1       1       0       8       1       1
       0       8       1       1       0       8       1       1       0       8
       1       1       0       8       1       1       0       8       1       1
       0       8       1       1       0       8       1       1       0       8
       1       1       0       8       1       1       0       8       1       1
       0       8       1       1       0       8       1       1       0       8
       1       1       0       8       1       1       0       8       1       1
       0       8       1       1       0       8       1       1       0       8
       1       1       0       8       1       1       0       8       1       1
       0       8       1       1       0       8       1       1       0       8
       1       1       0       8       1       1       0       8       1       1
       0       8       1       1       0       8       1       1       0       8
       1       1       0       8       1       1       0       8       1       1
       0       8       1       1       0       8       1       1       0       8
       1       1       0       8       1       1       0       8       1       1
       0       8       1       1       0       8       1       1       0       8
       1       1       0       8       1       1       0       8       1       1
       0       8       1       1       0       8       1       1       0       8
       1       1       0       8       1       1       0       8       1       1
       0       8       1       1       0       8       1       1       0       8
       1       1       0       8       1       1       0       8       1       1
       0       8       1       1       0       8       1       1       0       8
       1       1       0       8       1       1       0       8       1       1
       0       8       1       1       0       8       1       1       0       8
       1       1       0       8       1       1       0       8       1       1
       0       8       1       1       0       8       1       1       0       8
       1       1       0       8       1       1       0       8       1       1
       0       8       1       1       0       8       1       1       0       8
       1       1       0       8       1       1       0       8       1       1
       0       8       1       1       0       8       1       1       0       8
       1       1       0       8       1       1       0       8       1       1
       0       8       1       1       0       8       1       1       0       8
       1       1       0       8       1       1       0       8       1       1
       0       8       1       1       0       8       1       1       0       8
       1       1       0       8       1       1       0       8       1       1
       0       8       1       1       0       8       1       1       0       8
       1       1       0       8       1       1       0       8       1       1
       0       8       1       1       0       8       1       1       0       8
       1       1       0       8       1       1       0       8       1       1
       0       8       1       1       0       8       1       1       0       8
       1       1       0       8       1       1       0       8       1       1
       0       8       1       1       0       8       1       1       0       8
       1       1       0       8       1       1       0       8       1       1
       0       8       1       1       0       8       1       1       0       8
       1       1       0       8       1       1       0       8       1       1
       0       8       1       1       0       8       1       1       0       8
       1       1       0       8       1       1       0       8       1       1
       0       8       1       1       0       8       1       1       0       8
       1       1       0       8       1       1       0       8       1       1
       0       8       1       1       0       8       1       1       0       8
       1       1       0       8       1       1       0       8       1       1
       0       8       1       1       0       8       1       1       0       8
       1       1       0       8       1       1       0       8       1       1
       0       8       1       1       0       8       1       1       0       8
       1       1       0       8       1       1       0       8       1       1
       0       8       1       1       0       8       1       1       0       8
       1       1       0       8       1       1       0       8       1       1
       0       8       1       1       0       8       1       1       0       8
       1       1       0       8       1       1       0       8       1       1
       0       8       1       1       0       8       1       1       0       8
       1       1       0       8       1       1       0       8       1       1
       0       8       1       1       0       8       1       1       0       8
       1       1       0       8       1       1       0       8       1       1
       0       8       1       1       0       8       1       1       0       8
       1       1       0       8       1       1       0       8       1       1
       0       8       1       1       0       8       1       1       0       8
       1       1       0       8       1       1       0       8       1       1
       0       8       1       1       0       8       1       1       0       8
       1       1       0       8       1       1       0       8       1       1
       0       8       1       1       0       8       1       1       0       8
       1       1       0       8       1       1       0       8       1       1
       0       8       1       1       0       8       1       1       0       8
       1       1       0       8       1       1       0       8       1       1
       0       8       1       1       0       8       1       1       0       8
       1       1       0       8       1       1       0       8       1       1
       0       8       1       1       0       8       1       1       0       8
       1       1       0       8       1       1       0       8       1       1
       0       8       1       1       0       8       1       1       0       8
       1       1       0       8       1       1       0       8       1       1
       0       8       1       1       0       8       1       1       0       8
       1       1       0       8       1       1       0       8       1       1
       0       8       1       1       0       8       1       1       0       8
       1       1       0       8       1       1       0       8       1       1
       0       8       1       1       0       8       1       1       0       8
       1       1       0       8       1       1       0       8       1       1
       0       8       1       1       0       8       1       1       0       8
       1       1       0       8       1       1       0       8       1       1
       0       8       1       1       0       8       1       1       0       8
       1       1       0       8       1       1       0       8       1       1
       0       8       1       1       0       8       1       1       0       8
       1       1       0       8       1       1       0       8       1       1
       0       8       1       1       0       8       1       1       0       8
       1       1       0       8       1       1       0       8       1       1
       0       8       1       1       0       8       1       1       0       8
       1       1       0       8       1       1       0       8       1       1
       0       8       1       1       0       8       1       1       0       8
       1       1       0       8       1       1       0       8       1       1
       0       8       1       1       0       8       1       1       0       8
       1       1       0       8       1       1       0       8       1       1
       0       8       1       1       0       8       1       1       0       8
       1       1       0       8       1       1       0       8       1       1
       0       8       1       1       0       8       1       1       0       8
       1       1       0       8       1       1       0       8       1       1
       0       8       1       1       0       8       1       1       0       8
       1       1       0       8       1       1       0       8       1       1
       0       8       1       1       0       8       1       1       0       8
       1       1       0       8       1       1       0       8       1       1
       0       8       1       1       0       8       1       1       0       8
       1       1       0       8       1       1       0       8       1       1
       0       8       1       1       0       8       1       1       0       8
       1       1       0       8       1       1       0       8       1       1
       0       8       1       1       0       8       1       1       0       8
       1       1       0       8       1       1       0       8       1       1
       0       8       1       1       0       8       1       1       0       8
       1       1       0       8       1       1       0       8       1       1
       0       8       1       1       0       8       1       1       0       8
       1       1       0       8       1       1       0       8       1       1
       0       8       1       1       0       8       1       1       0       8
       1       1       0       8       1       1       0       8       1       1
       0       8       1       1       0       8       1       1       0       8
       1       1       0       8       1       1       0       8       1       1
       0       8       1       1       0       8       1       1       0       8
       1       1       0       8       1       1       0       8       1       1
       0       8       1       1       0       8       1       1       0       8
       1       1       0       8       1       1       0       8       1       1
       0       8       1       1       0       8       1       1       0       8
       1       1       0       8       1       1       0       8       1       1
       0       8       1       1       0       8       1       1       0       8
       1       1       0       8       1       1       0       8       1       1
       0       8       1       1       0       8       1       1       0       8
       1       1       0       8       1       1       0       8       1       1
       0       8       1       1       0       8       1       1       0       8
       1       1       0       8       1       1       0       8       1       1
       0       8       1       1       0       8       1       1       0       8
       1       1       0       8       1       1       0       8       1       1
       0       8       1       1       0       8       1       1       0       8
       1       1       0       8       1       1       0       8       1       1
       0       8       1       1       0       8       1       1       0       8
       1       1       0       8       1       1       0       8       1       1
       0       8       1       1       0       8       1       1       0       8
       1       1       0       8       1       1       0       8       1       1
       0       8       1       1       0       8       1       1       0       8
       1       1       0       8       1       1       0       8       1       1
       0       8       1       1       0       8       1       1       0       8
       1       1       0       8       1       1       0       8       1       1
       0       8       1       1       0       8       1       1       0       8
       1       1       0       8       1       1       0       8       1       1
       0       8       1       1       0       8       1       1       0       8
       1       1       0       8       1       1       0       8       1       1
       0       8       1       1       0       8       1       1       0       8
       1       1       0       8       1       1       0       8       1       1
       0       8       1       1       0       8       1       1       0       8
       1       1       0       8       1       1       0       8       1       1
       0       8       1       1       0       8       1       1       0       8
       1       1       0       8       1       1       0       8       1       1
       0       8       1       1       0       8       1       1       0       8
       1       1       0       8       1       1       0       8       1       1
       0       8       1       1       0       8       1       1       0       8
       1       1       0       8       1       1       0       8       1       1
       0       8       1       1       0       8       1       1       0       8
       1       1       0       8       1       1       0       8       1       1
       0       8       1       1       0       8       1       1       0       8
       1       1       0       8       1       1       0       8       1       1
       0       8       1       1       0       8       1       1       0       8
       1       1       0       8       1       1       0       8       1       1
       0       8       1       1       0       8       1       1       0       8
       1       1       0       8       1       1       0       8       1       1
       0       8       1       1       0       8       1       1       0       8
       1       1       0       8       1       1       0       8       1       1
       0       8       1       1       0       8       1       1       0       8
       1       1       0       8       1       1       0       8       1       1
       0       8       1       1       0       8       1       1       0       8
       1       1       0       8       1       1       0       8       1       1
       0       8       1       1       0       8       1       1       0       8
       1       1       0       8       1       1       0       8       1       1
       0       8       1       1       0       8       1       1       0       8
       1       1       0       8       1       1       0       8       1       1
       0       8       1       1       0       8       1       1       0       8
       1       1       0       8       1       1       0       8       1       1
       0       8       1       1       0       8       1       1       0       8
       1       1       0       8       1       1       0       8       1       1
       0       8       1       1       0       8       1       1       0       8
       1       1       0       8       1       1       0       8       1       1
       0       8       1       1       0       8       1       1       0       8
       1       1       0       8       1       1       0       8       1       1
       0       8       1       1       0       8       1       1       0       8
       1       1       0       8       1       1       0       8       1       1
       0       8       1       1       0       8       1       1       0       8
       1       1       0       8       1       1       0       8       1       1
       0       8       1       1       0       8       1       1       0       8
       1       1       0       8       1       1       0       8       1       1
       0       8       1       1       0       8       1       1       0       8
       1       1       0       8       1       1       0       8       1       1
       0       8       1       1       0       8       1       1       0       8
       1       1       0       8       1       1       0       8       1       1
       0       8       1       1       0       8       1       1       0       8
       1       1       0       8       1       1       0       8       1       1
       0       8       1       1       0       8       1       1       0       8
       1       1       0       8       1       1       0       8       1       1
       0       8       1       1       0       8       1       1       0       8
       1       1       0       8       1       1       0       8       1       1
       0       8       1       1       0       8       1       1       0       8
       1       1       0       8       1       1       0       8       1       1
       0       8       1       1       0       8       1       1       0       8
       1       1       0       8       1       1       0       8       1       1
       0       8       1       1       0       8       1       1       0       8
       1       1       0       8       1       1       0       8       1       1
       0       8       1       1       0       8       1       1       0       8
       1       1       0       8       1       1       0       8       1       1
       0       8       1       1       0       8       1       1       0       8
       1       1       0       8       1       1       0       8       1       1
       0       8       1       1       0       8       1       1       0       8
       1       1       0       8       1       1       0       8       1       1
       0       8       1       1       0       8       1       1       0       8
       1       1       0       8       1       1       0       8       1       1
       0       8       1       1       0       8       1       1       0       8
       1       1       0       8       1       1       0       8       1       1
       0       8       1       1       0       8       1       1       0       8
       1       1       0       8       1       1       0       8       1       1
       0       8       1       1       0       8       1       1       0       8
       1       1       0       8       1       1       0       8       1       1
       0       8       1       1       0       8       1       1       0       8
       1       1       0       8       1       1       0       8       1       1
       0       8       1       1       0       8       1       1       0       8
       1       1       0       8       1       1       0       8       1       1
       0       8       1       1       0       8       1       1       0       8
       1       1       0       8       1       1       0       8       1       1
       0       8       1       1       0       8       1       1       0       8
       1       1       0       8       1       1       0       8       1       1
       0       8       1       1       0       8       1       1       0       8
       1       1       0       8       1       1       0       8       1       1
       0       8       1       1       0       8       1       1       0       8
       1       1       0       8       1       1       0       8       1       1
       0       8       1       1       0       8       1       1       0       8
       1       1       0       8       1       1       0       8       1       1
       0       8       1       1       0       8       1       1       0       8
       1       1       0       8       1       1       0       8       1       1
       0       8       1       1       0       8       1       1       0       8
       1       1       0       8       1       1       0       8       1       1
       0       8       1       1       0       8       1       1       0       8
       1       1       0       8       1       1       0       8       1       1
       0       8       1       1       0       8       1       1       0       8
       1       1       0       8       1       1       0       8       1       1
       0       8       1       1       0       8       1       1       0       8
       1       1       0       8       1       1       0       8       1       1
       0       8       1       1       0       8       1       1       0       8
       1       1       0       8       1       1       0       8       1       1
       0       8       1       1       0       8       1       1       0       8
       1       1       0       8       1       1       0       8       1       1
       0       8       1       1       0       8       1       1       0       8
       1       1       0       8       1       1       0       8       1       1
       0       8       1       1       0       8       1       1       0       8
       1       1       0       8       1       1       0       8       1       1
       0       8       1       1       0       8       1       1       0       8
       1       1       0       8       1       1       0       8       1       1
       0       8       1       1       0       8       1       1       0       8
       1       1       0       8       1       1       0       8       1       1
       0       8       1       1       0       8       1       1       0       8
       1       1       0       8       1       1       0       8       1       1
       0       8       1       1       0       8       1       1       0       8
       1       1       0       8       1       1       0       8       1       1
       0       8       1       1       0       8       1       1       0       8
       1       1       0       8       1       1       0       8       1       1
       0       8       1       1       0       8       1       1       0       8
       1       1       0       8       1       1       0       8       1       1
       0       8       1       1       0       8       1       1       0       8
       1       1       0       8       1       1       0       8       1       1
       0       8       1       1       0       8       1       1       0       8
       1       1       0       8       1       1       0       8       1       1
       0       8       1       1       0       8       1       1       0       8
       1       1       0       8       1       1       0       8       1       1
       0       8       1       1       0       8       1       1       0       8
       1       1       0       8       1       1       0       8       1       1
       0       8       1       1       0       8       1       1       0       8
       1       1       0       8       1       1       0       8       1       1
       0       8       1       1       0       8       1       1       0       8
       1       1       0       8       1       1       0       8       1       1
       0       8       1       1       0       8       1       1       0       8
       1       1       0       8       1       1       0       8       1       1
       0       8       1       1       0       8       1       1       0       8
       1       1       0       8       1       1       0       8       1       1
       0       8       1       1       0       8       1       1       0       8
       1       1       0       8       1       1       0       8       1       1
       0       8       1       1       0       8       1       1       0       8
       1       1       0       8       1       1       0       8       1       1
       0       8       1       1       0       8       1       1       0       8
       1       1       0       8       1       1       0       8       1       1
       0       8       1       1       0       8       1       1       0       8
       1       1       0       8       1       1       0       8       1       1
       0       8       1       1       0       8       1       1       0       8
       1       1       0       8       1       1       0       8       1       1
       0       8       1       1       0       8       1       1       0       8
       1       1       0       8       1       1       0       8       1       1
       0       8       1       1       0       8       1       1       0       8
       1       1       0       8       1       1       0       8       1       1
       0       8       1       1       0       8       1       1       0       8
       1       1       0       8       1       1       0       8       1       1
       0       8       1       1       0       8       1       1       0       8
       1       1       0       8       1       1       0       8       1       1
       0       8       1       1       0       8       1       1       0       8
       1       1       0       8       1       1       0       8       1       1
       0       8       1       1       0       8       1       1       0       8
       1       1       0       8       1       1       0       8       1       1
       0       8       1       1       0       8       1       1       0       8
       1       1       0       8       1       1       0       8       1       1
       0       8       1       1       0       8       1       1       0       8
       1       1       0       8       1       1       0       8       1       1
       0       8       1       1       0       8       1       1       0       8
       1       1       0       8       1       1       0       8       1       1
       0       8       1       1       0       8       1       1       0       8
       1       1       0       8       1       1       0       8       1       1
       0       8       1       1       0       8       1       1       0       8
       1       1       0       8       1       1       0       8       1       1
       0       8       1       1       0       8       1       1       0       8
       1       1       0       8       1       1       0       8       1       1
       0       8       1       1       0       8       1       1       0       8
       1       1       0       8       1       1       0       8       1       1
       0       8       1       1       0       8       1       1       0       8
       1       1       0       8       1       1       0       8       1       1
       0       8       1       1       0       8       1       1       0       8
       1       1       0       8       1       1       0       8       1       1
       0       8       1       1       0       8       1       1       0       8
       1       1       0       8       1       1       0       8       1       1
       0       8       1       1       0       8       1       1       0       8
       1       1       0       8       1       1       0       8       1       1
       0       8       1       1       0       8       1       1       0       8
       1       1       0       8       1       1       0       8       1       1
       0       8       1       1       0       8       1       1       0       8
       1       1       0       8       1       1       0       8       1       1
       0       8       1       1       0       8       1       1       0       8
       1       1       0       8       1       1       0       8       1       1
       0       8       1       1       0       8       1       1       0       8
       1       1       0       8       1       1       0       8       1       1
       0       8       1       1       0       8       1       1       0       8
       1       1       0       8       1       1       0       8       1       1
       0       8       1       1       0       8       1       1       0       8
       1       1       0       8       1       1       0       8       1       1
       0       8       1       1       0       8       1       1       0       8
       1       1       0       8       1       1       0       8       1       1
       0       8       1       1       0       8       1       1       0       8
       1       1       0       8       1       1       0       8       1       1
       0       8       1       1       0       8       1       1       0       8
       1       1       0       8       1       1       0       8       1       1
       0       8       1       1       0       8       1       1       0       8
       1       1       0       8       1       1       0       8       1       1
       0       8       1       1       0       8       1       1       0       8
       1       1       0       8       1       1       0       8       1       1
       0       8       1       1       0       8       1       1       0       8
       1       1       0       8       1       1       0       8       1       1
       0       8       1       1       0       8       1       1       0       8
       1       1       0       8       1       1       0       8       1       1
       0       8       1       1       0       8       1       1       0       8
       1       1       0       8       1       1       0       8       1       1
       0       8       1       1       0       8       1       1       0       8
       1       1       0       8       1       1       0       8       1       1
       0       8       1       1       0       8       1       1       0       8
       1       1       0       8       1       1       0       8       1       1
       0       8       1       1       0       8       1       1       0       8
       1       1       0       8       1       1       0       8       1       1
       0       8       1       1       0       8       1       1       0       8
       1       1       0       8       1       1       0       8       1       1
       0       8       1       1       0       8       1       1       0       8
       1       1       0       8       1       1       0       8       1       1
       0       8       1       1       0       8       1       1       0       8
       1       1       0       8       1       1       0       8       1       1
       0       8       1       1       0       8       1       1       0       8
       1       1       0       8       1       1       0       8       1       1
       0       8       1       1       0       8       1       1       0       8
       1       1       0       8       1       1       0       8       1       1
       0       8       1       1       0       8       1       1       0       8
       1       1       0       8       1       1       0       8       1       1
       0       8       1       1       0       8       1       1       0       8
       1       1       0       8       1       1       0       8       1       1
       0       8       1       1       0       8       1       1       0       8
       1       1       0       8       1       1       0       8       1       1
       0       8       1       1       0       8       1       1       0       8
       1       1       0       8       1       1       0       8       1       1
       0       8       1       1       0       8       1       1       0       8
       1       1       0       8       1       1       0       8       1       1
       0       8       1       1       0       8       1       1       0       8
       1       1       0       8       1       1       0       8       1       1
       0       8       1       1       0       8       1       1       0       8
       1       1       0       8       1       1       0       8       1       1
       0       8       1       1       0       8       1       1       0       8
       1       1       0       8       1       1       0       8       1       1
       0       8       1       1       0       8       1       1       0       8
       1       1       0       8       1       1       0       8       1       1
       0       8       1       1       0       8       1       1       0       8
       1       1       0       8       1       1       0       8       1       1
       0       8       1       1       0       8       1       1       0       8
       1       1       0       8       1       1       0       8       1       1
       0       8       1       1       0       8       1       1       0       8
       1       1       0       8       1       1       0       8       1       1
       0       8       1       1       0       8       1       1       0       8
       1       1       0       8       1       1       0       8       1       1
       0       8       1       1       0       8       1       1       0       8
       1       1       0       8       1       1       0       8       1       1
       0       8       1       1       0       8       1       1       0       8
       1       1       0       8       1       1       0       8       1       1
       0       8       1       1       0       8       1       1       0       8
       1       1       0       8       1       1       0       8       1       1
       0       8       1       1       0       8       1       1       0       8
       1       1       0       8       1       1       0       8       1       1
       0       8       1       1       0       8       1       1       0       8
       1       1       0       8       1       1       0       8       1       1
       0       8       1       1       0       8       1       1       0       8
       1       1       0       8       1       1       0       8       1       1
       0       8       1       1       0       8       1       1       0       8
       1       1       0       8       1       1       0       8       1       1
       0       8       1       1       0       8       1       1       0       8
       1       1       0       8       1       1       0       8       1       1
       0       8       1       1       0       8       1       1       0       8
       1       1       0       8       1       1       0       8       1       1
       0       8       1       1       0       8       1       1       0       8
       1       1       0       8       1       1       0       8       1       1
       0       8       1       1       0       8       1       1       0       8
       1       1       0       8       1       1       0       8       1       1
       0       8       1       1       0       8       1       1       0       8
       1       1       0       8       1       1       0       8       1       1
       0       8       1       1       0       8       1       1       0       8
       1       1       0       8       1       1       0       8       1       1
       0       8       1       1       0       8       1       1       0       8
       1       1       0       8       1       1       0       8       1       1
       0       8       1       1       0       8       1       1       0       8
       1       1       0       8       1       1       0       8       1       1
       0       8       1       1       0       8       1       1       0       8
       1       1       0       8       1       1       0       8       1       1
       0       8       1       1       0       8       1       1       0       8
       1       1       0       8       1       1       0       8       1       1
       0       8       1       1       0       8       1       1       0       8
       1       1       0       8       1       1       0       8       1       1
       0       8       1       1       0       8       1       1       0       8
       1       1       0       8       1       1       0       8       1       1
       0       8       1       1       0       8       1       1       0       8
       1       1       0       8       1       1       0       8       1       1
       0       8       1       1       0       8       1       1       0       8
       1       1       0       8       1       1       0       8       1       1
       0       8       1       1       0       8       1       1       0       8
       1       1       0       8       1       1       0       8       1       1
       0       8       1       1       0       8       1       1       0       8
       1       1       0       8       1       1       0       8       1       1
       0       8       1       1       0       8       1       1       0       8
       1       1       0       8       1       1       0       8       1       1
       0       8       1       1       0       8       1       1       0       8
       1       1       0       8       1       1       0       8       1       1
       0       8       1       1       0       8       1       1       0       8
       1       1       0       8       1       1       0       8       1       1
       0       8       1       1       0       8       1       1       0       8
       1       1       0       8       1       1       0       8       1       1
       0       8       1       1       0       8       1       1       0       8
       1       1       0       8       1       1       0       8       1       1
       0       8       1       1       0       8       1       1       0       8
       1       1       0       8       1       1       0       8       1       1
       0       8       1       1       0       8       1       1       0       8
       1       1       0       8       1       1       0       8       1       1
       0       8       1       1       0       8       1       1       0       8
       1       1       0       8       1       1       0       8       1       1
       0       8       1       1       0       8       1       1       0       8
       1       1       0       8       1       1       0       8       1       1
       0       8       1       1       0       8       1       1       0       8
       1       1       0       8       1       1       0       8       1       1
       0       8       1       1       0       8       1       1       0       8
       1       1       0       8       1       1       0       8       1       1
       0       8       1       1       0       8       1       1       0       8
       1       1       0       8       1       1       0       8       1       1
       0       8       1       1       0       8       1       1       0       8
       1       1       0       8       1       1       0       8       1       1
       0       8       1       1       0       8       1       1       0       8
       1       1       0       8       1       1       0       8       1       1
       0       8       1       1       0       8       1       1       0       8
       1       1       0       8       1       1       0       8       1       1
       0       8       1       1       0       8       1       1       0       8
       1       1       0       8       1       1       0       8       1       1
       0       8       1       1       0       8       1       1       0       8
       1       1       0       8       1       1       0       8       1       1
       0       8       1       1       0       8       1       1       0       8
       1       1       0       8       1       1       0       8       1       1
       0       8       1       1       0       8       1       1       0       8
       1       1       0       8       1       1       0       8       1       1
       0       8       1       1       0       8       1       1       0       8
       1       1       0       8       1       1       0       8       1       1
       0       8       1       1       0       8       1       1       0       8
       1       1       0       8       1       1       0       8       1       1
       0       8       1       1       0       8       1       1       0       8
       1       1       0       8       1       1       0       8       1       1
       0       8       1       1       0       8       1       1       0       8
       1       1       0       8       1       1       0       8       1       1
       0       8       1       1       0       8       1       1       0       8
       1       1       0       8       1       1       0       8       1       1
       0       8       1       1       0       8       1       1       0       8
       1       1       0       8       1       1       0       8       1       1
       0       8       1       1       0       8       1       1       0       8
       1       1       0       8       1       1       0       8       1       1
       0       8       1       1       0       8       1       1       0       8
       1       1       0       8       1       1       0       8       1       1
       0       8       1       1       0       8       1       1       0       8
       1       1       0       8       1       1       0       8       1       1
       0       8       1       1       0       8       1       1       0       8
       1       1       0       8       1       1       0       8       1       1
       0       8       1       1       0       8       1       1       0       8
       1       1       0       8       1       1       0       8       1       1
       0       8       1       1       0       8       1       1       0       8
       1       1       0       8       1       1       0       8       1       1
       0       8       1       1       0       8       1       1       0       8
       1       1       0       8       1       1       0       8       1       1
       0       8       1       1       0       8       1       1       0       8
       1       1       0       8       1       1       0       8       1       1
       0       8       1       1       0       8       1       1       0       8
       1       1       0       8       1       1       0       8       1       1
       0       8       1       1       0       8       1       1       0       8
       1       1       0       8       1       1       0       8       1       1
       0       8       1       1       0       8       1       1       0       8
       1       1       0       8       1       1       0       8       1       1
       0       8       1       1       0       8       1       1       0       8
       1       1       0       8       1       1       0       8       1       1
       0       8       1       1       0       8       1       1       0       8
       1       1       0       8       1       1       0       8       1       1
       0       8       1       1       0       8       1       1       0       8
       1       1       0       8       1       1       0       8       1       1
       0       8       1       1       0       8       1       1       0       8
       1       1       0       8       1       1       0       8       1       1
       0       8       1       1       0       8       1       1       0       8
       1       1       0       8       1       1       0       8       1       1
       0       8       1       1       0       8       1       1       0       8
       1       1       0       8       1       1       0       8       1       1
       0       8       1       1       0       8       1       1       0       8
       1       1       0       8       1       1       0       8       1       1
       0       8       1       1       0       8       1       1       0       8
       1       1       0       8       1       1       0       8       1       1
       0       8       1       1       0       8       1       1       0       8
       1       1       0       8       1       1       0       8       1       1
       0       8       1       1       0       8       1       1       0       8
       1       1       0       8       1       1       0       8       1       1
       0       8       1       1       0       8       1       1       0       8
       1       1       0       8       1       1       0       8       1       1
       0       8       1       1       0       8       1       1       0       8
       1       1       0       8       1       1       0       8       1       1
       0       8       1       1       0       8       1       1       0       8
       1       1       0       8       1       1       0       8       1       1
       0       8       1       1       0       8       1       1       0       8
       1       1       0       8       1       1       0       8       1       1
       0       8       1       1       0       8       1       1       0       8
       1       1       0       8       1       1       0       8       1       1
       0       8       1       1       0       8       1       1       0       8
       1       1       0       8       1       1       0       8       1       1
       0       8       1       1       0       8       1       1       0       8
       1       1       0       8       1       1       0       8       1       1
       0       8       1       1       0       8       1       1       0       8
       1       1       0       8       1       1       0       8       1       1
       0       8       1       1       0       8       1       1       0       8
       1       1       0       8       1       1       0       8       1       1
       0       8       1       1       0       8       1       1       0       8
       1       1       0       8       1       1       0       8       1       1
       0       8       1       1       0       8       1       1       0       8
       1       1       0       8       1       1       0       8       1       1
       0       8       1       1       0       8       1       1       0       8
       1       1       0       8       1       1       0       8       1       1
       0       8       1       1       0       8       1       1       0       8
       1       1       0       8       1       1       0       8       1       1
       0       8       1       1       0       8       1       1       0       8
       1       1       0       8       1       1       0       8       1       1
       0       8       1       1       0       8       1       1       0       8
       1       1       0       8       1       1       0       8       1       1
       0       8       1       1       0       8       1       1       0       8
       1       1       0       8       1       1       0       8       1       1
       0       8       1       1       0       8       1       1       0       8
       1       1       0       8       1       1       0       8       1       1
       0       8       1       1       0       8       1       1       0       8
       1       1       0       8       1       1       0       8       1       1
       0       8       1       1       0       8       1       1       0       8
       1       1       0       8       1       1       0       8       1       1
       0       8       1       1       0       8       1       1       0       8
       1       1       0       8       1       1       0       8       1       1
       0       8       1       1       0       8       1       1       0       8
       1       1       0       8       1       1       0       8       1       1
       0       8       1       1       0       8       1       1       0       8
       1       1       0       8       1       1       0       8       1       1
       0       8       1       1       0       8       1       1       0       8
       1       1       0       8       1       1       0       8       1       1
       0       8       1       1       0       8       1       1       0       8
       1       1       0       8       1       1       0       8       1       1
       0       8       1       1       0       8       1       1       0       8
       1       1       0       8       1       1       0       8       1       1
       0       8       1       1       0       8       1       1       0       8
       1       1       0       8       1       1       0       8       1       1
       0       8       1       1       0       8       1       1       0       8
       1       1       0       8       1       1       0       8       1       1
       0       8       1       1       0       8       1       1       0       8
       1       1       0       8       1       1       0       8       1       1
       0       8       1       1       0       8       1       1       0       8
       1       1       0       8       1       1       0       8       1       1
       0       8       1       1       0       8       1       1       0       8
       1       1       0       8       1       1       0       8       1       1
       0       8       1       1       0       8       1       1       0       8
       1       1       0       8       1       1       0       8       1       1
       0       8       1       1       0       8       1       1       0       8
       1       1       0       8       1       1       0       8       1       1
       0       8       1       1       0       8       1       1       0       8
       1       1       0       8       1       1       0       8       1       1
       0       8       1       1       0       8       1       1       0       8
       1       1       0       8       1       1       0       8       1       1
       0       8       1       1       0       8       1       1       0       8
       1       1       0       8       1       1       0       8       1       1
       0       8       1       1       0       8       1       1       0       8
       1       1       0       8       1       1       0       8       1       1
       0       8       1       1       0       8       1       1       0       8
       1       1       0       8       1       1       0       8       1       1
       0       8       1       1       0       8       1       1       0       8
       1       1       0       8       1       1       0       8       1       1
       0       8       1       1       0       8       1       1       0       8
       1       1       0       8       1       1       0       8       1       1
       0       8       1       1       0       8       1       1       0       8
       1       1       0       8       1       1       0       8       1       1
       0       8       1       1       0       8       1       1       0       8
       1       1       0       8       1       1       0       8       1       1
       0       8       1       1       0       8       1       1       0       8
       1       1       0       8       1       1       0       8       1       1
       0       8       1       1       0       8       1       1       0       8
       1       1       0       8       1       1       0       8       1       1
       0       8       1       1       0       8       1       1       0       8
       1       1       0       8       1       1       0       8       1       1
       0       8       1       1       0       8       1       1       0       8
       1       1       0       8       1       1       0       8       1       1
       0       8       1       1       0       8       1       1       0       8
       1       1       0       8       1       1       0       8       1       1
       0       8       1       1       0       8       1       1       0       8
       1       1       0       8       1       1       0       8       1       1
       0       8       1       1       0       8       1       1       0       8
       1       1       0       8       1       1       0       8       1       1
       0       8       1       1       0       8       1       1       0       8
       1       1       0       8       1       1       0       8       1       1
       0       8       1       1       0       8       1       1       0       8
       1       1       0       8       1       1       0       8       1       1
       0       8       1       1       0       8       1       1       0       8
       1       1       0       8       1       1       0       8       1       1
       0       8       1       1       0       8       1       1       0       8
       1       1       0       8       1       1       0       8       1       1
       0       8       1       1       0       8       1       1       0       8
       1       1       0       8       1       1       0       8       1       1
       0       8       1       1       0       8       1       1       0       8
       1       1       0       8       1       1       0       8       1       1
       0       8       1       1       0       8       1       1       0       8
       1       1       0       8       1       1       0       8       1       1
       0       8       1       1       0       8       1       1       0       8
       1       1       0       8       1       1       0       8       1       1
       0       8       1       1       0       8       1       1       0       8
       1       1       0       8       1       1       0       8       1       1
       0       8       1       1       0       8       1       1       0       8
       1       1       0       8       1       1       0       8       1       1
       0       8       1       1       0       8       1       1       0       8
       1       1       0       8       1       1       0       8       1       1
       0       8       1       1       0       8       1       1       0       8
       1       1       0       8       1       1       0       8       1       1
       0       8       1       1       0       8       1       1       0       8
       1       1       0       8       1       1       0       8       1       1
       0       8       1       1       0       8       1       1       0       8
       1       1       0       8       1       1       0       8       1       1
       0       8       1       1       0       8       1       1       0       8
       1       1       0       8       1       1       0       8       1       1
       0       8       1       1       0       8       1       1       0       8
       1       1       0       8       1       1       0       8       1       1
       0       8       1       1       0       8       1       1       0       8
       1       1       0       8       1       1       0       8       1       1
       0       8       1       1       0       8       1       1       0       8
       1       1       0       8       1       1       0       8       1       1
       0       8       1       1       0       8       1       1       0       8
       1       1       0       8       1       1       0       8       1       1
       0       8       1       1       0       8       1       1       0       8
       1       1       0       8       1       1       0       8       1       1
       0       8       1       1       0       8       1       1       0       8
       1       1       0       8       1       1       0       8       1       1
       0       8       1       1       0       8       1       1       0       8
       1       1       0       8       1       1       0       8       1       1
       0       8       1       1       0       8       1       1       0       8
       1       1       0       8       1       1       0       8       1       1
       0       8       1       1       0       8       1       1       0       8
       1       1       0       8       1       1       0       8       1       1
       0       8       1       1       0       8       1       1       0       8
       1       1       0       8       1       1       0       8       1       1
       0       8       1       1       0       8       1       1       0       8
       1       1       0       8       1       1       0       8       1       1
       0       8       1       1       0       8       1       1       0       8
       1       1       0       8       1       1       0       8       1       1
       0       8       1       1       0       8       1       1       0       8
       1       1       0       8       1       1       0       8       1       1
       0       8       1       1       0       8       1       1       0       8
       1       1       0       8       1       1       0       8       1       1
       0       8       1       1       0       8       1       1       0       8
       1       1       0       8       1       1       0       8       1       1
       0       8       1       1       0       8       1       1       0       8
       1       1       0       8       1       1       0       8       1       1
       0       8       1       1       0       8       1       1       0       8
       1       1       0       8       1       1       0       8       1       1
       0       8       1       1       0       8       1       1       0       8
       1       1       0       8       1       1       0       8       1       1
       0       8       1       1       0       8       1       1       0       8
       1       1       0       8       1       1       0       8       1       1
       0       8       1       1       0       8       1       1       0       8
       1       1       0       8       1       1       0       8       1       1
       0       8       1       1       0       8       1       1       0       8
       1       1       0       8       1       1       0       8       1       1
       0       8       1       1       0       8       1       1       0       8
       1       1       0       8       1       1       0       8       1       1
       0       8       1       1       0       8       1       1       0       8
       1       1       0       8       1       1       0       8       1       1
       0       8       1       1       0       8       1       1       0       8
       1       1       0       8       1       1       0       8       1       1
       0       8       1       1       0       8       1       1       0       8
       1       1       0       8       1       1       0       8       1       1
       0       8       1       1       0       8       1       1       0       8
       1       1       0       8       1       1       0       8       1       1
       0       8       1       1       0       8       1       1       0       8
       1       1       0       8       1       1       0       8       1       1
       0       8       1       1       0       8       1       1       0       8
       1       1       0       8       1       1       0       8       1       1
       0       8       1       1       0       8       1       1       0       8
       1       1       0       8       1       1       0       8       1       1
       0       8       1       1       0       8       1       1       0       8
       1       1       0       8       1       1       0       8       1       1
       0       8       1       1       0       8       1       1       0       8
       1       1       0       8       1       1       0       8       1       1
       0       8       1       1       0       8       1       1       0       8
       1       1       0       8       1       1       0       8       1       1
       0       8       1       1       0       8       1       1       0       8
       1       1       0       8       1       1       0       8       1       1
       0       8       1       1       0       8       1       1       0       8
       1       1       0       8       1       1       0       8       1       1
       0       8       1       1       0       8       1       1       0       8
       1       1       0       8       1       1       0       8       1       1
       0       8       1       1       0       8       1       1       0       8
       1       1       0       8       1       1       0       8       1       1
       0       8       1       1       0       8       1       1       0       8
       1       1       0       8       1       1       0       8       1       1
       0       8       1       1       0       8       1       1       0       8
       1       1       0       8       1       1       0       8       1       1
       0       8       1       1       0       8       1       1       0       8
       1       1       0       8       1       1       0       8       1       1
       0       8       1       1       0       8       1       1       0       8
       1       1       0       8       1       1       0       8       1       1
       0       8       1       1       0       8       1       1       0       8
       1       1       0       8       1       1       0       8       1       1
       0       8       1       1       0       8       1       1       0       8
       1       1       0       8       1       1       0       8       1       1
       0       8       1       1       0       8       1       1       0       8
       1       1       0       8       1       1       0       8       1       1
       0       8       1       1       0       8       1       1       0       8
       1       1       0       8       1       1       0       8       1       1
       0       8       1       1       0       8       1       1       0       8
       1       1       0       8       1       1       0       8       1       1
       0       8       1       1       0       8       1       1       0       8
       1       1       0       8       1       1       0       8       1       1
       0       8       1       1       0       8       1       1       0       8
       1       1       0       8       1       1       0       8       1       1
       0       8       1       1       0       8       1       1       0       8
       1       1       0       8       1       1       0       8       1       1
       0       8       1       1       0       8       1       1       0       8
       1       1       0       8       1       1       0       8       1       1
       0       8       1       1       0       8       1       1       0       8
       1       1       0       8       1       1       0       8       1       1
       0       8       1       1       0       8       1       1       0       8
       1       1       0       8       1       1       0       8       1       1
       0       8       1       1       0       8       1       1       0       8
       1       1       0       8       1       1       0       8       1       1
       0       8       1       1       0       8       1       1       0       8
       1       1       0       8       1       1       0       8       1       1
       0       8       1       1       0       8       1       1       0       8
       1       1       0       8       1       1       0       8       1       1
       0       8       1       1       0       8       1       1       0       8
       1       1       0       8       1       1       0       8       1       1
       0       8       1       1       0       8       1       1       0       8
       1       1       0       8       1       1       0       8       1       1
       0       8       1       1       0       8       1       1       0       8
       1       1       0       8       1       1       0       8       1       1
       0       8       1       1       0       8       1       1       0       8
       1       1       0       8       1       1       0       8       1       1
       0       8       1       1       0       8       1       1       0       8
       1       1       0       8       1       1       0       8       1       1
       0       8       1       1       0       8       1       1       0       8
       1       1       0       8       1       1       0       8       1       1
       0       8       1       1       0       8       1       1       0       8
       1       1       0       8       1       1       0       8       1       1
       0       8       1       1       0       8       1       1       0       8
       1       1       0       8       1       1       0       8       1       1
       0       8       1       1       0       8       1       1       0       8
       1       1       0       8       1       1       0       8       1       1
       0       8       1       1       0       8       1       1       0       8
       1       1       0       8       1       1       0       8       1       1
       0       8       1       1       0       8       1       1       0       8
       1       1       0       8       1       1       0       8       1       1
       0       8       1       1       0       8       1       1       0       8
       1       1       0       8       1       1       0       8       1       1
       0       8       1       1       0       8       1       1       0       8
       1       1       0       8       1       1       0       8       1       1
       0       8       1       1       0       8       1       1       0       8
       1       1       0       8       1       1       0       8       1       1
       0       8       1       1       0       8       1       1       0       8
       1       1       0       8       1       1       0       8       1       1
       0       8       1       1       0       8       1       1       0       8
       1       1       0       8       1       1       0       8       1       1
       0       8       1       1       0       8       1       1       0       8
       1       1       0       8       1       1       0       8       1       1
       0       8       1       1       0       8       1       1       0       8
       1       1       0       8       1       1       0       8       1       1
       0       8       1       1       0       8       1       1       0       8
       1       1       0       8       1       1       0       8       1       1
       0       8       1       1       0       8       1       1       0       8
       1       1       0       8       1       1       0       8       1       1
       0       8       1       1       0       8       1       1       0       8
       1       1       0       8       1       1       0       8       1       1
       0       8       1       1       0       8       1       1       0       8
       1       1       0       8       1       1       0       8       1       1
       0       8       1       1       0       8       1       1       0       8
       1       1       0       8       1       1       0       8       1       1
       0       8       1       1       0       8       1       1       0       8
       1       1       0       8       1       1       0       8       1       1
       0       8       1       1       0       8       1       1       0       8
       1       1       0       8       1       1       0       8       1       1
       0       8       1       1       0       8       1       1       0       8
       1       1       0       8       1       1       0       8       1       1
       0       8       1       1       0       8       1       1       0       8
       1       1       0       8       1       1       0       8       1       1
       0       8       1       1       0       8       1       1       0       8
       1       1       0       8       1       1       0       8       1       1
       0       8       1       1       0       8       1       1       0       8
       1       1       0       8       1       1       0       8       1       1
       0       8       1       1       0       8       1       1       0       8
       1       1       0       8       1       1       0       8       1       1
       0       8       1       1       0       8       1       1       0       8
       1       1       0       8       1       1       0       8       1       1
       0       8       1       1       0       8       1       1       0       8
       1       1       0       8       1       1       0       8       1       1
       0       8       1       1       0       8       1       1       0       8
       1       1       0       8       1       1       0       8       1       1
       0       8       1       1       0       8       1       1       0       8
       1       1       0       8       1       1       0       8       1       1
       0       8       1       1       0       8       1       1       0       8
       1       1       0       8       1       1       0       8       1       1
       0       8       1       1       0       8       1       1       0       8
       1       1       0       8       1       1       0       8       1       1
       0       8       1       1       0       8       1       1       0       8
       1       1       0       8       1       1       0       8       1       1
       0       8       1       1       0       8       1       1       0       8
       1       1       0       8       1       1       0       8       1       1
       0       8       1       1       0       8       1       1       0       8
       1       1       0       8       1       1       0       8       1       1
       0       8       1       1       0       8       1       1       0       8
       1       1       0       8       1       1       0       8       1       1
       0       8       1       1       0       8       1       1       0       8
       1       1       0       8       1       1       0       8       1       1
       0       8       1       1       0       8       1       1       0       8
       1       1       0       8       1       1       0       8       1       1
       0       8       1       1       0       8       1       1       0       8
       1       1       0       8       1       1       0       8       1       1
       0       8       1       1       0       8       1       1       0       8
       1       1       0       8       1       1       0       8       1       1
       0       8       1       1       0       8       1       1       0       8
       1       1       0       8       1       1       0       8       1       1
       0       8       1       1       0       8       1       1       0       8
       1       1       0       8       1       1       0       8       1       1
       0       8       1       1       0       8       1       1       0       8
       1       1       0       8       1       1       0       8       1       1
       0       8       1       1       0       8       1       1       0       8
       1       1       0       8       1       1       0       8       1       1
       0       8       1       1       0       8       1       1       0       8
       1       1       0       8       1       1       0       8       1       1
       0       8       1       1       0       8       1       1       0       8
       1       1       0       8       1       1       0       8       1       1
       0       8       1       1       0       8       1       1       0       8
       1       1       0       8       1       1       0       8       1       1
       0       8       1       1       0       8       1       1       0       8
       1       1       0       8       1       1       0       8       1       1
       0       8       1       1       0       8       1       1       0       8
       1       1       0       8       1       1       0       8       1       1
       0       8       1       1       0       8       1       1       0       8
       1       1       0       8       1       1       0       8       1       1
       0       8       1       1       0       8       1       1       0       8
       1       1       0       8       1       1       0       8       1       1
       0       8       1       1       0       8       1       1       0       8
       1       1       0       8       1       1       0       8       1       1
       0       8       1       1       0       8       1       1       0       8
       1       1       0       8       1       1       0       8       1       1
       0       8       1       1       0       8       1       1       0       8
       1       1       0       8       1       1       0       8       1       1
       0       8       1       1       0       8       1       1       0       8
       1       1       0       8       1       1       0       8       1       1
       0       8       1       1       0       8       1       1       0       8
       1       1       0       8       1       1       0       8       1       1
       0       8       1       1       0       8       1       1       0       8
       1       1       0       8       1       1       0       8       1       1
       0       8       1       1       0       8       1       1       0       8
       1       1       0       8       1       1       0       8       1       1
       0       8       1       1       0       8       1       1       0       8
       1       1       0       8       1       1       0       8       1       1
       0       8       1       1       0       8       1       1       0       8
       1       1       0       8       1       1       0       8       1       1
       0       8       1       1       0       8       1       1       0       8
       1       1       0       8       1       1       0       8       1       1
       0       8       1       1       0       8       1       1       0       8
       1       1       0       8       1       1       0       8       1       1
       0       8       1       1       0       8       1       1       0       8
       1       1       0       8       1       1       0       8       1       1
       0       8       1       1       0       8       1       1       0       8
       1       1       0       8       1       1       0       8       1       1
       0       8       1       1       0       8       1       1       0       8
       1       1       0       8       1       1       0       8       1       1
       0       8       1       1       0       8       1       1       0       8
       1       1       0       8       1       1       0       8       1       1
       0       8       1       1       0       8       1       1       0       8
       1       1       0       8       1       1       0       8       1       1
       0       8       1       1       0       8       1       1       0       8
       1       1       0       8       1       1       0       8       1       1
       0       8       1       1       0       8       1       1       0       8
       1       1       0       8       1       1       0       8       1       1
       0       8       1       1       0       8       1       1       0       8
       1       1       0       8       1       1       0       8       1       1
       0       8       1       1       0       8       1       1       0       8
       1       1       0       8       1       1       0       8       1       1
       0       8       1       1       0       8       1       1       0       8
       1       1       0       8       1       1       0       8       1       1
       0       8       1       1       0       8       1       1       0       8
       1       1       0       8       1       1       0       8       1       1
       0       8       1       1       0       8       1       1       0       8
       1       1       0       8       1       1       0       8       1       1
       0       8       1       1       0       8       1       1       0       8
       1       1       0       8       1       1       0       8       1       1
       0       8       1       1       0       8       1       1       0       8
       1       1       0       8       1       1       0       8       1       1
       0       8       1       1       0       8       1       1       0       8
       1       1       0       8       1       1       0       8       1       1
       0       8       1       1       0       8       1       1       0       8
       1       1       0       8       1       1       0       8       1       1
       0       8       1       1       0       8       1       1       0       8
       1       1       0       8       1       1       0       8       1       1
       0       8       1       1       0       8       1       1       0       8
       1       1       0       8       1       1       0       8       1       1
       0       8       1       1       0       8       1       1       0       8
       1       1       0       8       1       1       0       8       1       1
       0       8       1       1       0       8       1       1       0       8
       1       1       0       8       1       1       0       8       1       1
       0       8       1       1       0       8       1       1       0       8
       1       1       0       8       1       1       0       8       1       1
       0       8       1       1       0       8       1       1       0       8
       1       1       0       8       1       1       0       8       1       1
       0       8       1       1       0       8       1       1       0       8
       1       1       0       8       1       1       0       8       1       1
       0       8       1       1       0       8       1       1       0       8
       1       1       0       8       1       1       0       8       1       1
       0       8       1       1       0       8       1       1       0       8
       1       1       0       8       1       1       0       8       1       1
       0       8       1       1       0       8       1       1       0       8
       1       1       0       8       1       1       0       8       1       1
       0       8       1       1       0       8       1       1       0       8
       1       1       0       8       1       1       0       8       1       1
       0       8       1       1       0       8       1       1       0       8
       1       1       0       8       1       1       0       8       1       1
       0       8       1       1       0       8       1       1       0       8
       1       1       0       8       1       1       0       8       1       1
       0       8       1       1       0       8       1       1       0       8
       1       1       0       8       1       1       0       8       1       1
       0       8       1       1       0       8       1       1       0       8
       1       1       0       8       1       1       0       8       1       1
       0       8       1       1       0       8       1       1       0       8
       1       1       0       8       1       1       0       8       1       1
       0       8       1       1       0       8       1       1       0       8
       1       1       0       8       1       1       0       8       1       1
       0       8       1       1       0       8       1       1       0       8
       1       1       0       8       1       1       0       8       1       1
       0       8       1       1       0       8       1       1       0       8
       1       1       0       8       1       1       0       8       1       1
       0       8       1       1       0       8       1       1       0       8
       1       1       0       8       1       1       0       8       1       1
       0       8       1       1       0       8       1       1       0       8
       1       1       0       8       1       1       0       8       1       1
       0       8       1       1       0       8       1       1       0       8
       1       1       0       8       1       1       0       8       1       1
       0       8       1       1       0       8       1       1       0       8
       1       1       0       8       1       1       0       8       1       1
       0       8       1       1       0       8       1       1       0       8
       1       1       0       8       1       1       0       8       1       1
       0       8       1       1       0       8       1       1       0       8
       1       1       0       8       1       1       0       8       1       1
       0       8       1       1       0       8       1       1       0       8
       1       1       0       8       1       1       0       8       1       1
       0       8       1       1       0       8       1       1       0       8
       1       1       0       8       1       1       0       8       1       1
       0       8       1       1       0       8       1       1       0       8
       1       1       0       8       1       1       0       8       1       1
       0       8       1       1       0       8       1       1       0       8
       1       1       0       8       1       1       0       8       1       1
       0       8       1       1       0       8       1       1       0       8
       1       1       0       8       1       1       0       8       1       1
       0       8       1       1       0       8       1       1       0       8
       1       1       0       8       1       1       0       8       1       1
       0       8       1       1       0       8       1       1       0       8
       1       1       0       8       1       1       0       8       1       1
       0       8       1       1       0       8       1       1       0       8
       1       1       0       8       1       1       0       8       1       1
       0       8       1       1       0       8       1       1       0       8
       1       1       0       8       1       1       0       8       1       1
       0       8       1       1       0       8       1       1       0       8
       1       1       0       8       1       1       0       8       1       1
       0       8       1       1       0       8       1       1       0       8
       1       1       0       8       1       1       0       8       1       1
       0       8       1       1       0       8       1       1       0       8
       1       1       0       8       1       1       0       8       1       1
       0       8       1       1       0       8       1       1       0       8
       1       1       0       8       1       1       0       8       1       1
       0       8       1       1       0       8       1       1       0       8
       1       1       0       8       1       1       0       8       1       1
       0       8       1       1       0       8       1       1       0       8
       1       1       0       8       1       1       0       8       1       1
       0       8       1       1       0       8       1       1       0       8
       1       1       0       8       1       1       0       8       1       1
       0       8       1       1       0       8       1       1       0       8
       1       1       0       8       1       1       0       8       1       1
       0       8       1       1       0       8       1       1       0       8
       1       1       0       8       1       1       0       8       1       1
       0       8       1       1       0       8       1       1       0       8
       1       1       0       8       1       1       0       8       1       1
       0       8       1       1       0       8       1       1       0       8
       1       1       0       8       1       1       0       8       1       1
       0       8       1       1       0       8       1       1       0       8
       1       1       0       8       1       1       0       8       1       1
       0       8       1       1       0       8       1       1       0       8
       1       1       0       8       1       1       0       8       1       1
       0       8       1       1       0       8       1       1       0       8
       1       1       0       8       1       1       0       8       1       1
       0       8       1       1       0       8       1       1       0       8
       1       1       0       8       1       1       0       8       1       1
       0       8       1       1       0       8       1       1       0       8
       1       1       0       8       1       1       0       8       1       1
       0       8       1       1       0       8       1       1       0       8
       1       1       0       8       1       1       0       8       1       1
       0       8       1       1       0       8       1       1       0       8
       1       1       0       8       1       1       0       8       1       1
       0       8       1       1       0       8       1       1       0       8
       1       1       0       8       1       1       0       8       1       1
       0       8       1       1       0       8       1       1       0       8
       1       1       0       8       1       1       0       8       1       1
       0       8       1       1       0       8       1       1       0       8
       1       1       0       8       1       1       0       8       1       1
       0       8       1       1       0       8       1       1       0       8
       1       1       0       8       1       1       0       8       1       1
       0       8       1       1       0       8       1       1       0       8
       1       1       0       8       1       1       0       8       1       1
       0       8       1       1       0       8       1       1       0       8
       1       1       0       8       1       1       0       8       1       1
       0       8       1       1       0       8       1       1       0       8
       1       1       0       8       1       1       0       8       1       1
       0       8       1       1       0       8       1       1       0       8
       1       1       0       8       1       1       0       8       1       1
       0       8       1       1       0       8       1       1       0       8
       1       1       0       8       1       1       0       8       1       1
       0       8       1       1       0       8       1       1       0       8
       1       1       0       8       1       1       0       8       1       1
       0       8       1       1       0       8       1       1       0       8
       1       1       0       8       1       1       0       8       1       1
       0       8       1       1       0       8       1       1       0       8
       1       1       0       8       1       1       0       8       1       1
       0       8       1       1       0       8       1       1       0       8
       1       1       0       8       1       1       0       8       1       1
       0       8       1       1       0       8       1       1       0       8
       1       1       0       8       1       1       0       8       1       1
       0       8       1       1       0       8       1       1       0       8
       1       1       0       8       1       1       0       8       1       1
       0       8       1       1       0       8       1       1       0       8
       1       1       0       8       1       1       0       8       1       1
       0       8       1       1       0       8       1       1       0       8
       1       1       0       8       1       1       0       8       1       1
       0       8       1       1       0       8       1       1       0       8
       1       1       0       8       1       1       0       8       1       1
       0       8       1       1       0       8       1       1       0       8
       1       1       0       8       1       1       0       8       1       1
       0       8       1       1       0       8       1       1       0       8
       1       1       0       8       1       1       0       8       1       1
       0       8       1       1       0       8       1       1       0       8
       1       1       0       8       1       1       0       8       1       1
       0       8       1       1       0       8       1       1       0       8
       1       1       0       8       1       1       0       8       1       1
       0       8       1       1       0       8       1       1       0       8
       1       1       0       8       1       1       0       8       1       1
       0       8       1       1       0       8       1       1       0       8
       1       1       0       8       1       1       0       8       1       1
       0       8       1       1       0       8       1       1       0       8
       1       1       0       8       1       1       0       8       1       1
       0       8       1       1       0       8       1       1       0       8
       1       1       0       8       1       1       0       8       1       1
       0       8       1       1       0       8       1       1       0       8
       1       1       0       8       1       1       0       8       1       1
       0       8       1       1       0       8       1       1       0       8
       1       1       0       8       1       1       0       8       1       1
       0       8       1       1       0       8       1       1       0       8
       1       1       0       8       1       1       0       8       1       1
       0       8       1       1       0       8       1       1       0       8
       1       1       0       8       1       1       0       8       1       1
       0       8       1       1       0       8       1       1       0       8
       1       1       0       8       1       1       0       8       1       1
       0       8       1       1       0       8       1       1       0       8
       1       1       0       8       1       1       0       8       1       1
       0       8       1       1       0       8       1       1       0       8
       1       1       0       8       1       1       0       8       1       1
       0       8       1       1       0       8       1       1       0       8
       1       1       0       8       1       1       0       8       1       1
       0       8       1       1       0       8       1       1       0       8
       1       1       0       8       1       1       0       8       1       1
       0       8       1       1       0       8       1       1       0       8
       1       1       0       8       1       1       0       8       1       1
       0       8       1       1       0       8       1       1       0       8
       1       1       0       8       1       1       0       8       1       1
       0       8       1       1       0       8       1       1       0       8
       1       1       0       8       1       1       0       8       1       1
       0       8       1       1       0       8       1       1       0       8
       1       1       0       8       1       1       0       8       1       1
       0       8       1       1       0       8       1       1       0       8
       1       1       0       8       1       1       0       8       1       1
       0       8       1       1       0       8       1       1       0       8
       1       1       0       8       1       1       0       8       1       1
       0       8       1       1       0       8       1       1       0       8
       1       1       0       8       1       1       0       8       1       1
       0       8       1       1       0       8       1       1       0       8
       1       1       0       8       1       1       0       8       1       1
       0       8       1       1       0       8       1       1       0       8
       1       1       0       8       1       1       0       8       1       1
       0       8       1       1       0       8       1       1       0       8
       1       1       0       8       1       1       0       8       1       1
       0       8       1       1       0       8       1       1       0       8
       1       1       0       8       1       1       0       8       1       1
       0       8       1       1       0       8       1       1       0       8
       1       1       0       8       1       1       0       8       1       1
       0       8       1       1       0       8       1       1       0       8
       1       1       0       8       1       1       0       8       1       1
       0       8       1       1       0       8       1       1       0       8
       1       1       0       8       1       1       0       8       1       1
       0       8       1       1       0       8       1       1       0       8
       1       1       0       8       1       1       0       8       1       1
       0       8       1       1       0       8       1       1       0       8
       1       1       0       8       1       1       0       8       1       1
       0       8       1       1       0       8       1       1       0       8
       1       1       0       8       1       1       0       8       1       1
       0       8       1       1       0       8       1       1       0       8
       1       1       0       8       1       1       0       8       1       1
       0       8       1       1       0       8       1       1       0       8
       1       1       0       8       1       1       0       8       1       1
       0       8       1       1       0       8       1       1       0       8
       1       1       0       8       1       1       0       8       1       1
       0       8       1       1       0       8       1       1       0       8
       1       1       0       8       1       1       0       8       1       1
       0       8       1       1       0       8       1       1       0       8
       1       1       0       8       1       1       0       8       1       1
       0       8       1       1       0       8       1       1       0       8
       1       1       0       8       1       1       0       8       1       1
       0       8       1       1       0       8       1       1       0       8
       1       1       0       8       1       1       0       8       1       1
       0       8       1       1       0       8       1       1       0       8
       1       1       0       8       1       1       0       8       1       1
       0       8       1       1       0       8       1       1       0       8
       1       1       0       8       1       1       0       8       1       1
       0       8       1       1       0       8       1       1       0       8
       1       1       0       8       1       1       0       8       1       1
       0       8       1       1       0       8       1       1       0       8
       1       1       0       8       1       1       0       8       1       1
       0       8       1       1       0       8       1       1       0       8
       1       1       0       8       1       1       0       8       1       1
       0       8       1       1       0       8       1       1       0       8
       1       1       0       8       1       1       0       8       1       1
       0       8       1       1       0       8       1       1       0       8
       1       1       0       8       1       1       0       8       1       1
       0       8       1       1       0       8       1       1       0       8
       1       1       0       8       1       1       0       8       1       1
       0       8       1       1       0       8       1       1       0       8
       1       1       0       8       1       1       0       8       1       1
       0       8       1       1       0       8       1       1       0       8
       1       1       0       8       1       1       0       8       1       1
       0       8       1       1       0       8       1       1       0       8
       1       1       0       8       1       1       0       8       1       1
       0       8       1       1       0       8       1       1       0       8
       1       1       0       8       1       1       0       8       1       1
       0       8       1       1       0       8       1       1       0       8
       1       1       0       8       1       1       0       8       1       1
       0       8       1       1       0       8       1       1       0       8
       1       1       0       8       1       1       0       8       1       1
       0       8       1       1       0       8       1       1       0       8
       1       1       0       8       1       1       0       8       1       1
       0       8       1       1       0       8       1       1       0       8
       1       1       0       8       1       1       0       8       1       1
       0       8       1       1       0       8       1       1       0       8
       1       1       0       8       1       1       0       8       1       1
       0       8       1       1       0       8       1       1       0       8
       1       1       0       8       1       1       0       8       1       1
       0       8       1       1       0       8       1       1       0       8
       1       1       0       8       1       1       0       8       1       1
       0       8       1       1       0       8       1       1       0       8
       1       1       0       8       1       1       0       8       1       1
       0       8       1       1       0       8       1       1       0       8
       1       1       0       8       1       1       0       8       1       1
       0       8       1       1       0       8       1       1       0       8
       1       1       0       8       1       1       0       8       1       1
       0       8       1       1       0       8       1       1       0       8
       1       1       0       8       1       1       0       8       1       1
       0       8       1       1       0       8       1       1       0       8
       1       1       0       8       1       1       0       8       1       1
       0       8       1       1       0       8       1       1       0       8
       1       1       0       8       1       1       0       8       1       1
       0       8       1       1       0       8       1       1       0       8
       1       1       0       8       1       1       0       8       1       1
       0       8       1       1       0       8       1       1       0       8
       1       1       0       8       1       1       0       8       1       1
       0       8       1       1       0       8       1       1       0       8
       1       1       0       8       1       1       0       8       1       1
       0       8       1       1       0       8       1       1       0       8
       1       1       0       8       1       1       0       8       1       1
       0       8       1       1       0       8       1       1       0       8
       1       1       0       8       1       1       0       8       1       1
       0       8       1       1       0       8       1       1       0       8
       1       1       0       8       1       1       0       8       1       1
       0       8       1       1       0       8       1       1       0       8
       1       1       0       8       1       1       0       8       1       1
       0       8       1       1       0       8       1       1       0       8
       1       1       0       8       1       1       0       8       1       1
       0       8       1       1       0       8       1       1       0       8
       1       1       0       8       1       1       0       8       1       1
       0       8       1       1       0       8       1       1       0       8
       1       1       0       8       1       1       0       8       1       1
       0       8       1       1       0       8       1       1       0       8
       1       1       0       8       1       1       0       8       1       1
       0       8       1       1       0       8       1       1       0       8
       1       1       0       8       1       1       0       8       1       1
       0       8       1       1       0       8       1       1       0       8
       1       1       0       8       1       1       0       8       1       1
       0       8       1       1       0       8       1       1       0       8
       1       1       0       8       1       1       0       8       1       1
       0       8       1       1       0       8       1       1       0       8
       1       1       0       8       1       1       0       8       1       1
       0       8       1       1       0       8       1       1       0       8
       1       1       0       8       1       1       0       8       1       1
       0       8       1       1       0       8       1       1       0       8
       1       1       0       8       1       1       0       8       1       1
       0       8       1       1       0       8       1       1       0       8
       1       1       0       8       1       1       0       8       1       1
       0       8       1       1       0       8       1       1       0       8
       1       1       0       8       1       1       0       8       1       1
       0       8       1       1       0       8       1       1       0       8
       1       1       0       8       1       1       0       8       1       1
       0       8       1       1       0       8       1       1       0       8
       1       1       0       8       1       1       0       8       1       1
       0       8       1       1       0       8       1       1       0       8
       1       1       0       8       1       1       0       8       1       1
       0       8       1       1       0       8       1       1       0       8
       1       1       0       8       1       1       0       8       1       1
       0       8       1       1       0       8       1       1       0       8
       1       1       0       8       1       1       0       8       1       1
       0       8       1       1       0       8       1       1       0       8
       1       1       0       8       1       1       0       8       1       1
       0       8       1       1       0       8       1       1       0       8
       1       1       0       8       1       1       0       8       1       1
       0       8       1       1       0       8       1       1       0       8
       1       1       0       8       1       1       0       8       1       1
       0       8       1       1       0       8       1       1       0       8
       1       1       0       8       1       1       0       8       1       1
       0       8       1       1       0       8       1       1       0       8
       1       1       0       8       1       1       0       8       1       1
       0       8       1       1       0       8       1       1       0       8
       1       1       0       8       1       1       0       8       1       1
       0       8       1       1       0       8       1       1       0       8
       1       1       0       8       1       1       0       8       1       1
       0       8       1       1       0       8       1       1       0       8
       1       1       0       8       1       1       0       8       1       1
       0       8       1       1       0       8       1       1       0       8
       1       1       0       8       1       1       0       8       1       1
       0       8       1       1       0       8       1       1       0       8
       1       1       0       8       1       1       0       8       1       1
       0       8       1       1       0       8       1       1       0       8
       1       1       0       8       1       1       0       8       1       1
       0       8       1       1       0       8       1       1       0       8
       1       1       0       8       1       1       0       8       1       1
       0       8       1       1       0       8       1       1       0       8
       1       1       0       8       1       1       0       8       1       1
       0       8       1       1       0       8       1       1       0       8
       1       1       0       8       1       1       0       8       1       1
       0       8       1       1       0       8       1       1       0       8
       1       1       0       8       1       1       0       8       1       1
       0       8       1       1       0       8       1       1       0       8
       1       1       0       8       1       1       0       8       1       1
       0       8       1       1       0       8       1       1       0       8
       1       1       0       8       1       1       0       8       1       1
       0       8       1       1       0       8       1       1       0       8
       1       1       0       8       1       1       0       8       1       1
       0       8       1       1       0       8       1       1       0       8
       1       1       0       8       1       1       0       8       1       1
       0       8       1       1       0       8       1       1       0       8
       1       1       0       8       1       1       0       8       1       1
       0       8       1       1       0       8       1       1       0       8
       1       1       0       8       1       1       0       8       1       1
       0       8       1       1       0       8       1       1       0       8
       1       1       0       8       1       1       0       8       1       1
       0       8       1       1       0       8       1       1       0       8
       1       1       0       8       1       1       0       8       1       1
       0       8       1       1       0       8       1       1       0       8
       1       1       0       8       1       1       0       8       1       1
       0       8       1       1       0       8       1       1       0       8
       1       1       0       8       1       1       0       8       1       1
       0       8       1       1       0       8       1       1       0       8
       1       1       0       8       1       1       0       8       1       1
       0       8       1       1       0       8       1       1       0       8
       1       1       0       8       1       1       0       8       1       1
       0       8       1       1       0       8       1       1       0       8
       1       1       0       8       1       1       0       8       1       1
       0       8       1       1       0       8       1       1       0       8
       1       1       0       8       1       1       0       8       1       1
       0       8       1       1       0       8       1       1       0       8
       1       1       0       8       1       1       0       8       1       1
       0       8       1       1       0       8       1       1       0       8
       1       1       0       8       1       1       0       8       1       1
       0       8       1       1       0       8       1       1       0       8
       1       1       0       8       1       1       0       8       1       1
       0       8       1       1       0       8       1       1       0       8
       1       1       0       8       1       1       0       8       1       1
       0       8       1       1       0       8       1       1       0       8
       1       1       0       8       1       1       0       8       1       1
       0       8       1       1       0       8       1       1       0       8
       1       1       0       8       1       1       0       8       1       1
       0       8       1       1       0       8       1       1       0       8
       1       1       0       8       1       1       0       8       1       1
       0       8       1       1       0       8       1       1       0       8
       1       1       0       8       1       1       0       8       1       1
       0       8       1       1       0       8       1       1       0       8
       1       1       0       8       1       1       0       8       1       1
       0       8       1       1       0       8       1       1       0       8
       1       1       0       8       1       1       0       8       1       1
       0       8       1       1       0       8       1       1       0       8
       1       1       0       8       1       1       0       8       1       1
       0       8       1       1       0       8       1       1       0       8
       1       1       0       8       1       1       0       8       1       1
       0       8       1       1       0       8       1       1       0       8
       1       1       0       8       1       1       0       8       1       1
       0       8       1       1       0       8       1       1       0       8
       1       1       0       8       1       1       0       8       1       1
       0       8       1       1       0       8       1       1       0       8
       1       1       0       8       1       1       0       8       1       1
       0       8       1       1       0       8       1       1       0       8
       1       1       0       8       1       1       0       8       1       1
       0       8       1       1       0       8       1       1       0       8
       1       1       0       8       1       1       0       8       1       1
       0       8       1       1       0       8       1       1       0       8
       1       1       0       8       1       1       0       8       1       1
       0       8       1       1       0       8       1       1       0       8
       1       1       0       8       1       1       0       8       1       1
       0       8       1       1       0       8       1       1       0       8
       1       1       0       8       1       1       0       8       1       1
       0       8       1       1       0       8       1       1       0       8
       1       1       0       8       1       1       0       8       1       1
       0       8       1       1       0       8       1       1       0       8
       1       1       0       8       1       1       0       8       1       1
       0       8       1       1       0       8       1       1       0       8
       1       1       0       8       1       1       0       8       1       1
       0       8       1       1       0       8       1       1       0       8
       1       1       0       8       1       1       0       8       1       1
       0       8       1       1       0       8       1       1       0       8
       1       1       0       8       1       1       0       8       1       1
       0       8       1       1       0       8       1       1       0       8
       1       1       0       8       1       1       0       8       1       1
       0       8       1       1       0       8       1       1       0       8
       1       1       0       8       1       1       0       8       1       1
       0       8       1       1       0       8       1       1       0       8
       1       1       0       8       1       1       0       8       1       1
       0       8       1       1       0       8       1       1       0       8
       1       1       0       8       1       1       0       8       1       1
       0       8       1       1       0       8       1       1       0       8
       1       1       0       8       1       1       0       8       1       1
       0       8       1       1       0       8       1       1       0       8
       1       1       0       8       1       1       0       8       1       1
       0       8       1       1       0       8       1       1       0       8
       1       1       0       8       1       1       0       8       1       1
       0       8       1       1       0       8       1       1       0       8
       1       1       0       8       1       1       0       8       1       1
       0       8       1       1       0       8       1       1       0       8
       1       1       0       8       1       1       0       8       1       1
       0       8       1       1       0       8       1       1       0       8
       1       1       0       8       1       1       0       8       1       1
       0       8       1       1       0       8       1       1       0       8
       1       1       0       8       1       1       0       8       1       1
       0       8       1       1       0       8       1       1       0       8
       1       1       0       8       1       1       0       8       1       1
       0       8       1       1       0       8       1       1       0       8
       1       1       0       8       1       1       0       8       1       1
       0       8       1       1       0       8       1       1       0       8
       1       1       0       8       1       1       0       8       1       1
       0       8       1       1       0       8       1       1       0       8
       1       1       0       8       1       1       0       8       1       1
       0       8       1       1       0       8       1       1       0       8
       1       1       0       8       1       1       0       8       1       1
       0       8       1       1       0       8       1       1       0       8
       1       1       0       8       1       1       0       8       1       1
       0       8       1       1       0       8       1       1       0       8
       1       1       0       8       1       1       0       8       1       1
       0       8       1       1       0       8       1       1       0       8
       1       1       0       8       1       1       0       8       1       1
       0       8       1       1       0       8       1       1       0       8
       1       1       0       8       1       1       0       8       1       1
       0       8       1       1       0       8       1       1       0       8
       1       1       0       8       1       1       0       8       1       1
       0       8       1       1       0       8       1       1       0       8
       1       1       0       8       1       1       0       8       1       1
       0       8       1       1       0       8       1       1       0       8
       1       1       0       8       1       1       0       8       1       1
       0       8       1       1       0       8       1       1       0       8
       1       1       0       8       1       1       0       8       1       1
       0       8       1       1       0       8       1       1       0       8
       1       1       0       8       1       1       0       8       1       1
       0       8       1       1       0       8       1       1       0       8
       1       1       0       8       1       1       0       8       1       1
       0       8       1       1       0       8       1       1       0       8
       1       1       0       8       1       1       0       8       1       1
       0       8       1       1       0       8       1       1       0       8
       1       1       0       8       1       1       0       8       1       1
       0       8       1       1       0       8       1       1       0       8
       1       1       0       8       1       1       0       8       1       1
       0       8       1       1       0       8       1       1       0       8
       1       1       0       8       1       1       0       8       1       1
       0       8       1       1       0       8       1       1       0       8
       1       1       0       8       1       1       0       8       1       1
       0       8       1       1       0       8       1       1       0       8
       1       1       0       8       1       1       0       8       1       1
       0       8       1       1       0       8       1       1       0       8
       1       1       0       8       1       1       0       8       1       1
       0       8       1       1       0       8       1       1       0       8
       1       1       0       8       1       1       0       8       1       1
       0       8       1       1       0       8       1       1       0       8
       1       1       0       8       1       1       0       8       1       1
       0       8       1       1       0       8       1       1       0       8
       1       1       0       8       1       1       0       8       1       1
       0       8       1       1       0       8       1       1       0       8
       1       1       0       8       1       1       0       8       1       1
       0       8       1       1       0       8       1       1       0       8
       1       1       0       8       1       1       0       8       1       1
       0       8       1       1       0       8       1       1       0       8
       1       1       0       8       1       1       0       8       1       1
       0       8       1       1       0       8       1       1       0       8
       1       1       0       8       1       1       0       8       1       1
       0       8       1       1       0       8       1       1       0       8
       1       1       0       8       1       1       0       8       1       1
       0       8       1       1       0       8       1       1       0       8
       1       1       0       8       1       1       0       8       1       1
       0       8       1       1       0       8       1       1       0       8
       1       1       0       8       1       1       0       8       1       1
       0       8       1       1       0       8       1       1       0       8
       1       1       0       8       1       1       0       8       1       1
       0       8       1       1       0       8       1       1       0       8
       1       1       0       8       1       1       0       8       1       1
       0       8       1       1       0       8       1       1       0       8
       1       1       0       8       1       1       0       8       1       1
       0       8       1       1       0       8       1       1       0       8
       1       1       0       8       1       1       0       8       1       1
       0       8       1       1       0       8       1       1       0       8
       1       1       0       8       1       1       0       8       1       1
       0       8       1       1       0       8       1       1       0       8
       1       1       0       8       1       1       0       8       1       1
       0       8       1       1       0       8       1       1       0       8
       1       1       0       8       1       1       0       8       1       1
       0       8       1       1       0       8       1       1       0       8
       1       1       0       8       1       1       0       8       1       1
       0       8       1       1       0       8       1       1       0       8
       1       1       0       8       1       1       0       8       1       1
       0       8       1       1       0       8       1       1       0       8
       1       1       0       8       1       1       0       8       1       1
       0       8       1       1       0       8       1       1       0       8
       1       1       0       8       1       1       0       8       1       1
       0       8       1       1       0       8       1       1       0       8
       1       1       0       8       1       1       0       8       1       1
       0       8       1       1       0       8       1       1       0       8
       1       1       0       8       1       1       0       8       1       1
       0       8       1       1       0       8       1       1       0       8
       1       1       0       8       1       1       0       8       1       1
       0       8       1       1       0       8       1       1       0       8
       1       1       0       8       1       1       0       8       1       1
       0       8       1       1       0       8       1       1       0       8
       1       1       0       8       1       1       0       8       1       1
       0       8       1       1       0       8       1       1       0       8
       1       1       0       8       1       1       0       8       1       1
       0       8       1       1       0       8       1       1       0       8
       1       1       0       8       1       1       0       8       1       1
       0       8       1       1       0       8       1       1       0       8
       1       1       0       8       1       1       0       8       1       1
       0       8       1       1       0       8       1       1       0       8
       1       1       0       8       1       1       0       8       1       1
       0       8       1       1       0       8       1       1       0       8
       1       1       0       8       1       1       0       8       1       1
       0       8       1       1       0       8       1       1       0       8
       1       1       0       8       1       1       0       8       1       1
       0       8       1       1       0       8       1       1       0       8
       1       1       0       8       1       1       0       8       1       1
       0       8       1       1       0       8       1       1       0       8
       1       1       0       8       1       1       0       8       1       1
       0       8       1       1       0       8       1       1       0       8
       1       1       0       8       1       1       0       8       1       1
       0       8       1       1       0       8       1       1       0       8
       1       1       0       8       1       1       0       8       1       1
       0       8       1       1       0       8       1       1       0       8
       1       1       0       8       1       1       0       8       1       1
       0       8       1       1       0       8       1       1       0       8
       1       1       0       8       1       1       0       8       1       1
       0       8       1       1       0       8       1       1       0       8
       1       1       0       8       1       1       0       8       1       1
       0       8       1       1       0       8       1       1       0       8
       1       1       0       8       1       1       0       8       1       1
       0       8       1       1       0       8       1       1       0       8
       1       1       0       8       1       1       0       8       1       1
       0       8       1       1       0       8       1       1       0       8
       1       1       0       8       1       1       0       8       1       1
       0       8       1       1       0       8       1       1       0       8
       1       1       0       8       1       1       0       8       1       1
       0       8       1       1       0       8       1       1       0       8
       1       1       0       8       1       1       0       8       1       1
       0       8       1       1       0       8       1       1       0       8
       1       1       0       8       1       1       0       8       1       1
       0       8       1       1       0       8       1       1       0       8
       1       1       0       8       1       1       0       8       1       1
       0       8       1       1       0       8       1       1       0       8
       1       1       0       8       1       1       0       8       1       1
       0       8       1       1       0       8       1       1       0       8
       1       1       0       8       1       1       0       8       1       1
       0       8       1       1       0       8       1       1       0       8
       1       1       0       8       1       1       0       8       1       1
       0       8       1       1       0       8       1       1       0       8
       1       1       0       8       1       1       0       8       1       1
       0       8       1       1       0       8       1       1       0       8
       1       1       0       8       1       1       0       8       1       1
       0       8       1       1       0       8       1       1       0       8
       1       1       0       8       1       1       0       8       1       1
       0       8       1       1       0       8       1       1       0       8
       1       1       0       8       1       1       0       8       1       1
       0       8       1       1       0       8       1       1       0       8
       1       1       0       8       1       1       0       8       1       1
       0       8       1       1       0       8       1       1       0       8
       1       1       0       8       1       1       0       8       1       1
       0       8       1       1       0       8       1       1       0       8
       1       1       0       8       1       1       0       8       1       1
       0       8       1       1       0       8       1       1       0       8
       1       1       0       8       1       1       0       8       1       1
       0       8       1       1       0       8       1       1       0       8
       1       1       0       8       1       1       0       8       1       1
       0       8       1       1       0       8       1       1       0       8
       1       1       0       8       1       1       0       8       1       1
       0       8       1       1       0       8       1       1       0       8
       1       1       0       8       1       1       0       8       1       1
       0       8       1       1       0       8       1       1       0       8
       1       1       0       8       1       1       0       8       1       1
       0       8       1       1       0       8       1       1       0       8
       1       1       0       8       1       1       0       8       1       1
       0       8       1       1       0       8       1       1       0       8
       1       1       0       8       1       1       0       8       1       1
       0       8       1       1       0       8       1       1       0       8
       1       1       0       8       1       1       0       8       1       1
       0       8       1       1       0       8       1       1       0       8
       1       1       0       8       1       1       0       8       1       1
       0       8       1       1       0       8       1       1       0       8
       1       1       0       8       1       1       0       8       1       1
       0       8       1       1       0       8       1       1       0       8
       1       1       0       8       1       1       0       8       1       1
       0       8       1       1       0       8       1       1       0       8
       1       1       0       8       1       1       0       8       1       1
       0       8       1       1       0       8       1       1       0       8
       1       1       0       8       1       1       0       8       1       1
       0       8       1       1       0       8       1       1       0       8
       1       1       0       8       1       1       0       8       1       1
       0       8       1       1       0       8       1       1       0       8
       1       1       0       8       1       1       0       8       1       1
       0       8       1       1       0       8       1       1       0       8
       1       1       0       8       1       1       0       8       1       1
       0       8       1       1       0       8       1       1       0       8
       1       1       0       8       1       1       0       8       1       1
       0       8       1       1       0       8       1       1       0       8
       1       1       0       8       1       1       0       8       1       1
       0       8       1       1       0       8       1       1       0       8
       1       1       0       8       1       1       0       8       1       1
       0       8       1       1       0       8       1       1       0       8
       1       1       0       8       1       1       0       8       1       1
       0       8       1       1       0       8       1       1       0       8
       1       1       0       8       1       1       0       8       1       1
       0       8       1       1       0       8       1       1       0       8
       1       1       0       8       1       1       0       8       1       1
       0       8       1       1       0       8       1       1       0       8
       1       1       0       8       1       1       0       8       1       1
       0       8       1       1       0       8       1       1       0       8
       1       1       0       8       1       1       0       8       1       1
       0       8       1       1       0       8       1       1       0       8
       1       1       0       8       1       1       0       8       1       1
       0       8       1       1       0       8       1       1       0       8
       1       1       0       8       1       1       0       8       1       1
       0       8       1       1       0       8       1       1       0       8
       1       1       0       8       1       1       0       8       1       1
       0       8       1       1       0       8       1       1       0       8
       1       1       0       8       1       1       0       8       1       1
       0       8       1       1       0       8       1       1       0       8
       1       1       0       8       1       1       0       8       1       1
       0       8       1       1       0       8       1       1       0       8
       1       1       0       8       1       1       0       8       1       1
       0       8       1       1       0       8       1       1       0       8
       1       1       0       8       1       1       0       8       1       1
       0       8       1       1       0       8       1       1       0       8
       1       1       0       8       1       1       0       8       1       1
       0       8       1       1       0       8       1       1       0       8
       1       1       0       8       1       1       0       8       1       1
       0       8       1       1       0       8       1       1       0       8
       1       1       0       8       1       1       0       8       1       1
       0       8       1       1       0       8       1       1       0       8
       1       1       0       8       1       1       0       8       1       1
       0       8       1       1       0       8       1       1       0       8
       1       1       0       8       1       1       0       8       1       1
       0       8       1       1       0       8       1       1       0       8
       1       1       0       8       1       1       0       8       1       1
       0       8       1       1       0       8       1       1       0       8
       1       1       0       8       1       1       0       8       1       1
       0       8       1       1       0       8       1       1       0       8
       1       1       0       8       1       1       0       8       1       1
       0       8       1       1       0       8       1       1       0       8
       1       1       0       8       1       1       0       8       1       1
       0       8       1       1       0       8       1       1       0       8
       1       1       0       8       1       1       0       8       1       1
       0       8       1       1       0       8       1       1       0       8
       1       1       0       8       1       1       0       8       1       1
       0       8       1       1       0       8       1       1       0       8
       1       1       0       8       1       1       0       8       1       1
       0       8       1       1       0       8       1       1       0       8
       1       1       0       8       1       1       0       8       1       1
       0       8       1       1       0       8       1       1       0       8
       1       1       0       8       1       1       0       8       1       1
       0       8       1       1       0       8       1       1       0       8
       1       1       0       8       1       1       0       8       1       1
       0       8       1       1       0       8       1       1       0       8
       1       1       0       8       1       1       0       8       1       1
       0       8       1       1       0       8       1       1       0       8
       1       1       0       8       1       1       0       8       1       1
       0       8       1       1       0       8       1       1       0       8
       1       1       0       8       1       1       0       8       1       1
       0       8       1       1       0       8       1       1       0       8
       1       1       0       8       1       1       0       8       1       1
       0       8       1       1       0       8       1       1       0       8
       1       1       0       8       1       1       0       8       1       1
       0       8       1       1       0       8       1       1       0       8
       1       1       0       8       1       1       0       8       1       1
       0       8       1       1       0       8       1       1       0       8
       1       1       0       8       1       1       0       8       1       1
       0       8       1       1       0       8       1       1       0       8
       1       1       0       8       1       1       0       8       1       1
       0       8       1       1       0       8       1       1       0       8
       1       1       0       8       1       1       0       8       1       1
       0       8       1       1       0       8       1       1       0       8
       1       1       0       8       1       1       0       8       1       1
       0       8       1       1       0       8       1       1       0       8
       1       1       0       8       1       1       0       8       1       1
       0       8       1       1       0       8       1       1       0       8
       1       1       0       8       1       1       0       8       1       1
       0       8       1       1       0       8       1       1       0       8
       1       1       0       8       1       1       0       8       1       1
       0       8       1       1       0       8       1       1       0       8
       1       1       0       8       1       1       0       8       1       1
       0       8       1       1       0       8       1       1       0       8
       1       1       0       8       1       1       0       8       1       1
       0       8       1       1       0       8       1       1       0       8
       1       1       0       8       1       1       0       8       1       1
       0       8       1       1       0       8       1       1       0       8
       1       1       0       8       1       1       0       8       1       1
       0       8       1       1       0       8       1       1       0       8
       1       1       0       8       1       1       0       8       1       1
       0       8       1       1       0       8       1       1       0       8
       1       1       0       8       1       1       0       8       1       1
       0       8       1       1       0       8       1       1       0       8
       1       1       0       8       1       1       0       8       1       1
       0       8       1       1       0       8       1       1       0       8
       1       1       0       8       1       1       0       8       1       1
       0       8       1       1       0       8       1       1       0       8
       1       1       0       8       1       1       0       8       1       1
       0       8       1       1       0       8       1       1       0       8
       1       1       0       8       1       1       0       8       1       1
       0       8       1       1       0       8       1       1       0       8
       1       1       0       8       1       1       0       8       1       1
       0       8       1       1       0       8       1       1       0       8
       1       1       0       8       1       1       0       8       1       1
       0       8       1       1       0       8       1       1       0       8
       1       1       0       8       1       1       0       8       1       1
       0       8       1       1       0       8       1       1       0       8
       1       1       0       8       1       1       0       8       1       1
       0       8       1       1       0       8       1       1       0       8
       1       1       0       8       1       1       0       8       1       1
       0       8       1       1       0       8       1       1       0       8
       1       1       0       8       1       1       0       8       1       1
       0       8       1       1       0       8       1       1       0       8
       1       1       0       8       1       1       0       8       1       1
       0       8       1       1       0       8       1       1       0       8
       1       1       0       8       1       1       0       8       1       1
       0       8       1       1       0       8       1       1       0       8
       1       1       0       8       1       1       0       8       1       1
       0       8       1       1       0       8       1       1       0       8
       1       1       0       8       1       1       0       8       1       1
       0       8       1       1       0       8       1       1       0       8
       1       1       0       8       1       1       0       8       1       1
       0       8       1       1       0       8       1       1       0       8
       1       1       0       8       1       1       0       8       1       1
       0       8       1       1       0       8       1       1       0       8
       1       1       0       8       1       1       0       8       1       1
       0       8       1       1       0       8       1       1       0       8
       1       1       0       8       1       1       0       8       1       1
       0       8       1       1       0       8       1       1       0       8
       1       1       0       8       1       1       0       8       1       1
       0       8       1       1       0       8       1       1       0       8
       1       1       0       8       1       1       0       8       1       1
       0       8       1       1       0       8       1       1       0       8
       1       1       0       8       1       1       0       8       1       1
       0       8       1       1       0       8       1       1       0       8
       1       1       0       8       1       1       0       8       1       1
       0       8       1       1       0       8       1       1       0       8
       1       1       0       8       1       1       0       8       1       1
       0       8       1       1       0       8       1       1       0       8
       1       1       0       8       1       1       0       8       1       1
       0       8       1       1       0       8       1       1       0       8
       1       1       0       8       1       1       0       8       1       1
       0       8       1       1       0       8       1       1       0       8
       1       1       0       8       1       1       0       8       1       1
       0       8       1       1       0       8       1       1       0       8
       1       1       0       8       1       1       0       8       1       1
       0       8       1       1       0       8       1       1       0       8
       1       1       0       8       1       1       0       8       1       1
       0       8       1       1       0       8       1       1       0       8
       1       1       0       8       1       1       0       8       1       1
       0       8       1       1       0       8       1       1       0       8
       1       1       0       8       1       1       0       8       1       1
       0       8       1       1       0       8       1       1       0       8
       1       1       0       8       1       1       0       8       1       1
       0       8       1       1       0       8       1       1       0       8
       1       1       0       8       1       1       0       8       1       1
       0       8       1       1       0       8       1       1       0       8
       1       1       0       8       1       1       0       8       1       1
       0       8       1       1       0       8       1       1       0       8
       1       1       0       8       1       1       0       8       1       1
       0       8       1       1       0       8       1       1       0       8
       1       1       0       8       1       1       0       8       1       1
       0       8       1       1       0       8       1       1       0       8
       1       1       0       8       1       1       0       8       1       1
       0       8       1       1       0       8       1       1       0       8
       1       1       0       8       1       1       0       8       1       1
       0       8       1       1       0       8       1       1       0       8
       1       1       0       8       1       1       0       8       1       1
       0       8       1       1       0       8       1       1       0       8
       1       1       0       8       1       1       0       8       1       1
       0       8       1       1       0       8       1       1       0       8
       1       1       0       8       1       1       0       8       1       1
       0       8       1       1       0       8       1       1       0       8
       1       1       0       8       1       1       0       8       1       1
       0       8       1       1       0       8       1       1       0       8
       1       1       0       8       1       1       0       8       1       1
       0       8       1       1       0       8       1       1       0       8
       1       1       0       8       1       1       0       8       1       1
       0       8       1       1       0       8       1       1       0       8
       1       1       0       8       1       1       0       8       1       1
       0       8       1       1       0       8       1       1       0       8
       1       1       0       8       1       1       0       8       1       1
       0       8       1       1       0       8       1       1       0       8
       1       1       0       8       1       1       0       8       1       1
       0       8       1       1       0       8       1       1       0       8
       1       1       0       8       1       1       0       8       1       1
       0       8       1       1       0       8       1       1       0       8
       1       1       0       8       1       1       0       8       1       1
       0       8       1       1       0       8       1       1       0       8
       1       1       0       8       1       1       0       8       1       1
       0       8       1       1       0       8       1       1       0       8
       1       1       0       8       1       1       0       8       1       1
       0       8       1       1       0       8       1       1       0       8
       1       1       0       8       1       1       0       8       1       1
       0       8       1       1       0       8       1       1       0       8
       1       1       0       8       1       1       0       8       1       1
       0       8       1       1       0       8       1       1       0       8
       1       1       0       8       1       1       0       8       1       1
       0       8       1       1       0       8       1       1       0       8
       1       1       0       8       1       1       0       8       1       1
       0       8       1       1       0       8       1       1       0       8
       1       1       0       8       1       1       0       8       1       1
       0       8       1       1       0       8       1       1       0       8
       1       1       0       8       1       1       0       8       1       1
       0       8       1       1       0       8       1       1       0       8
       1       1       0       8       1       1       0       8       1       1
       0       8       1       1       0       8       1       1       0       8
       1       1       0       8       1       1       0       8       1       1
       0       8       1       1       0       8       1       1       0       8
       1       1       0       8       1       1       0       8       1       1
       0       8       1       1       0       8       1       1       0       8
       1       1       0       8       1       1       0       8       1       1
       0       8       1       1       0       8       1       1       0       8
       1       1       0       8       1       1       0       8       1       1
       0       8       1       1       0       8       1       1       0       8
       1       1       0       8       1       1       0       8       1       1
       0       8       1       1       0       8       1       1       0       8
       1       1       0       8       1       1       0       8       1       1
       0       8       1       1       0       8       1       1       0       8
       1       1       0       8       1       1       0       8       1       1
       0       8       1       1       0       8       1       1       0       8
       1       1       0       8       1       1       0       8       1       1
       0       8       1       1       0       8       1       1       0       8
       1       1       0       8       1       1       0       8       1       1
       0       8       1       1       0       8       1       1       0       8
       1       1       0       8       1       1       0       8       1       1
       0       8       1       1       0       8       1       1       0       8
       1       1       0       8       1       1       0       8       1       1
       0       8       1       1       0       8       1       1       0       8
       1       1       0       8       1       1       0       8       1       1
       0       8       1       1       0       8       1       1       0       8
       1       1       0       8       1       1       0       8       1       1
       0       8       1       1       0       8       1       1       0       8
       1       1       0       8       1       1       0       8       1       1
       0       8       1       1       0       8       1       1       0       8
       1       1       0       8       1       1       0       8       1       1
       0       8       1       1       0       8       1       1       0       8
       1       1       0       8       1       1       0       8       1       1
       0       8       1       1       0       8       1       1       0       8
       1       1       0       8       1       1       0       8       1       1
       0       8       1       1       0       8       1       1       0       8
       1       1       0       8       1       1       0       8       1       1
       0       8       1       1       0       8       1       1       0       8
       1       1       0       8       1       1       0       8       1       1
       0       8       1       1       0       8       1       1       0       8
       1       1       0       8       1       1       0       8       1       1
       0       8       1       1       0       8       1       1       0       8
       1       1       0       8       1       1       0       8       1       1
       0       8       1       1       0       8       1       1       0       8
       1       1       0       8       1       1       0       8       1       1
       0       8       1       1       0       8       1       1       0       8
       1       1       0       8       1       1       0       8       1       1
       0       8       1       1       0       8       1       1       0       8
       1       1       0       8       1       1       0       8       1       1
       0       8       1       1       0       8       1       1       0       8
       1       1       0       8       1       1       0       8       1       1
       0       8       1       1       0       8       1       1       0       8
       1       1       0       8       1       1       0       8       1       1
       0       8       1       1       0       8       1       1       0       8
       1       1       0       8       1       1       0       8       1       1
       0       8       1       1       0       8       1       1       0       8
       1       1       0       8       1       1       0       8       1       1
       0       8       1       1       0       8       1       1       0       8
       1       1       0       8       1       1       0       8       1       1
       0       8       1       1       0       8       1       1       0       8
       1       1       0       8       1       1       0       8       1       1
       0       8       1       1       0       8       1       1       0       8
       1       1       0       8       1       1       0       8       1       1
       0       8       1       1       0       8       1       1       0       8
       1       1       0       8       1       1       0       8       1       1
       0       8       1       1       0       8       1       1       0       8
       1       1       0       8       1       1       0       8       1       1
       0       8       1       1       0       8       1       1       0       8
       1       1       0       8       1       1       0       8       1       1
       0       8       1       1       0       8       1       1       0       8
       1       1       0       8       1       1       0       8       1       1
       0       8       1       1       0       8       1       1       0       8
       1       1       0       8       1       1       0       8       1       1
       0       8       1       1       0       8       1       1       0       8
       1       1       0       8       1       1       0       8       1       1
       0       8       1       1       0       8       1       1       0       8
       1       1       0       8       1       1       0       8       1       1
       0       8       1       1       0       8       1       1       0       8
       1       1       0       8       1       1       0       8       1       1
       0       8       1       1       0       8       1       1       0       8
       1       1       0       8       1       1       0       8       1       1
       0       8       1       1       0       8       1       1       0       8
       1       1       0       8       1       1       0       8       1       1
       0       8       1       1       0       8       1       1       0       8
       1       1       0       8       1       1       0       8       1       1
       0       8       1       1       0       8       1       1       0       8
       1       1       0       8       1       1       0       8       1       1
       0       8       1       1       0       8       1       1       0       8
       1       1       0       8       1       1       0       8       1       1
       0       8       1       1       0       8       1       1       0       8
       1       1       0       8       1       1       0       8       1       1
       0       8       1       1       0       8       1       1       0       8
       1       1       0       8       1       1       0       8       1       1
       0       8       1       1       0       8       1       1       0       8
       1       1       0       8       1       1       0       8       1       1
       0       8       1       1       0       8       1       1       0       8
       1       1       0       8       1       1       0       8       1       1
       0       8       1       1       0       8       1       1       0       8
       1       1       0       8       1       1       0       8       1       1
       0       8       1       1       0       8       1       1       0       8
       1       1       0       8       1       1       0       8       1       1
       0       8       1       1       0       8       1       1       0       8
       1       1       0       8       1       1       0       8       1       1
       0       8       1       1       0       8       1       1       0       8
       1       1       0       8       1       1       0       8       1       1
       0       8       1       1       0       8       1       1       0       8
       1       1       0       8       1       1       0       8       1       1
       0       8       1       1       0       8       1       1       0       8
       1       1       0       8       1       1       0       8       1       1
       0       8       1       1       0       8       1       1       0       8
       1       1       0       8       1       1       0       8       1       1
       0       8       1       1       0       8       1       1       0       8
       1       1       0       8       1       1       0       8       1       1
       0       8       1       1       0       8       1       1       0       8
       1       1       0       8       1       1       0       8       1       1
       0       8       1       1       0       8       1       1       0       8
       1       1       0       8       1       1       0       8       1       1
       0       8       1       1       0       8       1       1       0       8
       1       1       0       8       1       1       0       8       1       1
       0       8       1       1       0       8       1       1       0       8
       1       1       0       8       1       1       0       8       1       1
       0       8       1       1       0       8       1       1       0       8
       1       1       0       8       1       1       0       8       1       1
       0       8       1       1       0       8       1       1       0       8
       1       1       0       8       1       1       0       8       1       1
       0       8       1       1       0       8       1       1       0       8
       1       1       0       8       1       1       0       8       1       1
       0       8       1       1       0       8       1       1       0       8
       1       1       0       8       1       1       0       8       1       1
       0       8       1       1       0       8       1       1       0       8
       1       1       0       8       1       1       0       8       1       1
       0       8       1       1       0       8       1       1       0       8
       1       1       0       8       1       1       0       8       1       1
       0       8       1       1       0       8       1       1       0       8
       1       1       0       8       1       1       0       8       1       1
       0       8       1       1       0       8       1       1       0       8
       1       1       0       8       1       1       0       8       1       1
       0       8       1       1       0       8       1       1       0       8
       1       1       0       8       1       1       0       8       1       1
       0       8       1       1       0       8       1       1       0       8
       1       1       0       8       1       1       0       8       1       1
       0       8       1       1       0       8       1       1       0       8
       1       1       0       8       1       1       0       8       1       1
       0       8       1       1       0       8       1       1       0       8
       1       1       0       8       1       1       0       8       1       1
       0       8       1       1       0       8       1       1       0       8
       1       1       0       8       1       1       0       8       1       1
       0       8       1       1       0       8       1       1       0       8
       1       1       0       8       1       1       0       8       1       1
       0       8       1       1       0       8       1       1       0       8
       1       1       0       8       1       1       0       8       1       1
       0       8       1       1       0       8       1       1       0       8
       1       1       0       8       1       1       0       8       1       1
       0       8       1       1       0       8       1       1       0       8
       1       1       0       8       1       1       0       8       1       1
       0       8       1       1       0       8       1       1       0       8
       1       1       0       8       1       1       0       8       1       1
       0       8       1       1       0       8       1       1       0       8
       1       1       0       8       1       1       0       8       1       1
       0       8       1       1       0       8       1       1       0       8
       1       1       0       8       1       1       0       8       1       1
       0       8       1       1       0       8       1       1       0       8
       1       1       0       8       1       1       0       8       1       1
       0       8       1       1       0       8       1       1       0       8
       1       1       0       8       1       1       0       8       1       1
       0       8       1       1       0       8       1       1       0       8
       1       1       0       8       1       1       0       8       1       1
       0       8       1       1       0       8       1       1       0       8
       1       1       0       8       1       1       0       8       1       1
       0       8       1       1       0       8       1       1       0       8
       1       1       0       8       1       1       0       8       1       1
       0       8       1       1       0       8       1       1       0       8
       1       1       0       8       1       1       0       8       1       1
       0       8       1       1       0       8       1       1       0       8
       1       1       0       8       1       1       0       8       1       1
       0       8       1       1       0       8       1       1       0       8
       1       1       0       8       1       1       0       8       1       1
       0       8       1       1       0       8       1       1       0       8
       1       1       0       8       1       1       0       8       1       1
       0       8       1       1       0       8       1       1       0       8
       1       1       0       8       1       1       0       8       1       1
       0       8       1       1       0       8       1       1       0       8
       1       1       0       8       1       1       0       8       1       1
       0       8       1       1       0       8       1       1       0       8
       1       1       0       8       1       1       0       8       1       1
       0       8       1       1       0       8       1       1       0       8
       1       1       0       8       1       1       0       8       1       1
       0       8       1       1       0       8       1       1       0       8
       1       1       0       8       1       1       0       8       1       1
       0       8       1       1       0       8       1       1       0       8
       1       1       0       8       1       1       0       8       1       1
       0       8       1       1       0       8       1       1       0       8
       1       1       0       8       1       1       0       8       1       1
       0       8       1       1       0       8       1       1       0       8
       1       1       0       8       1       1       0       8       1       1
       0       8       1       1       0       8       1       1       0       8
       1       1       0       8       1       1       0       8       1       1
       0       8       1       1       0       8       1       1       0       8
       1       1       0       8       1       1       0       8       1       1
       0       8       1       1       0       8       1       1       0       8
       1       1       0       8       1       1       0       8       1       1
       0       8       1       1       0       8       1       1       0       8
       1       1       0       8       1       1       0       8       1       1
       0       8       1       1       0       8       1       1       0       8
       1       1       0       8       1       1       0       8       1       1
       0       8       1       1       0       8       1       1       0       8
       1       1       0       8       1       1       0       8       1       1
       0       8       1       1       0       8       1       1       0       8
       1       1       0       8       1       1       0       8       1       1
       0       8       1       1       0       8       1       1       0       8
       1       1       0       8       1       1       0       8       1       1
       0       8       1       1       0       8       1       1       0       8
       1       1       0       8       1       1       0       8       1       1
       0       8       1       1       0       8       1       1       0       8
       1       1       0       8       1       1       0       8       1       1
       0       8       1       1       0       8       1       1       0       8
       1       1       0       8       1       1       0       8       1       1
       0       8       1       1       0       8       1       1       0       8
       1       1       0       8       1       1       0       8       1       1
       0       8       1       1       0       8       1       1       0       8
       1       1       0       8       1       1       0       8       1       1
       0       8       1       1       0       8       1       1       0       8
       1       1       0       8       1       1       0       8       1       1
       0       8       1       1       0       8       1       1       0       8
       1       1       0       8       1       1       0       8       1       1
       0       8       1       1       0       8       1       1       0       8
       1       1       0       8       1       1       0       8       1       1
       0       8       1       1       0       8       1       1       0       8
       1       1       0       8       1       1       0       8       1       1
       0       8       1       1       0       8       1       1       0       8
       1       1       0       8       1       1       0       8       1       1
       0       8       1       1       0       8       1       1       0       8
       1       1       0       8       1       1       0       8       1       1
       0       8       1       1       0       8       1       1       0       8
       1       1       0       8       1       1       0       8       1       1
       0       8       1       1       0       8       1       1       0       8
       1       1       0       8       1       1       0       8       1       1
       0       8       1       1       0       8       1       1       0       8
       1       1       0       8       1       1       0       8       1       1
       0       8       1       1       0       8       1       1       0       8
       1       1       0       8       1       1       0       8       1       1
       0       8       1       1       0       8       1       1       0       8
       1       1       0       8       1       1       0       8       1       1
       0       8       1       1       0       8       1       1       0       8
       1       1       0       8       1       1       0       8       1       1
       0       8       1       1       0       8       1       1       0       8
       1       1       0       8       1       1       0       8       1       1
       0       8       1       1       0       8       1       1       0       8
       1       1       0       8       1       1       0       8       1       1
       0       8       1       1       0       8       1       1       0       8
       1       1       0       8       1       1       0       8       1       1
       0       8       1       1       0       8       1       1       0       8
       1       1       0       8       1       1       0       8       1       1
       0       8       1       1       0       8       1       1       0       8
       1       1       0       8       1       1       0       8       1       1
       0       8       1       1       0       8       1       1       0       8
       1       1       0       8       1       1       0       8       1       1
       0       8       1       1       0       8       1       1       0       8
       1       1       0       8       1       1       0       8       1       1
       0       8       1       1       0       8       1       1       0       8
       1       1       0       8       1       1       0       8       1       1
       0       8       1       1       0       8       1       1       0       8
       1       1       0       8       1       1       0       8       1       1
       0       8       1       1       0       8       1       1       0       8
       1       1       0       8       1       1       0       8       1       1
       0       8       1       1       0       8       1       1       0       8
       1       1       0       8       1       1       0       8       1       1
       0       8       1       1       0       8       1       1       0       8
       1       1       0       8       1       1       0       8       1       1
       0       8       1       1       0       8       1       1       0       8
       1       1       0       8       1       1       0       8       1       1
       0       8       1       1       0       8       1       1       0       8
       1       1       0       8       1       1       0       8       1       1
       0       8       1       1       0       8       1       1       0       8
       1       1       0       8       1       1       0       8       1       1
       0       8       1       1       0       8       1       1       0       8
       1       1       0       8       1       1       0       8       1       1
       0       8       1       1       0       8       1       1       0       8
       1       1       0       8       1       1       0       8       1       1
       0       8       1       1       0       8       1       1       0       8
       1       1       0       8       1       1       0       8       1       1
       0       8       1       1       0       8       1       1       0       8
       1       1       0       8       1       1       0       8       1       1
       0       8       1       1       0       8       1       1       0       8
       1       1       0       8       1       1       0       8       1       1
       0       8       1       1       0       8       1       1       0       8
       1       1       0       8       1       1       0       8       1       1
       0       8       1       1       0       8       1       1       0       8
       1       1       0       8       1       1       0       8       1       1
       0       8       1       1       0       8       1       1       0       8
       1       1       0       8       1       1       0       8       1       1
       0       8       1       1       0       8       1       1       0       8
       1       1       0       8       1       1       0       8       1       1
       0       8       1       1       0       8       1       1       0       8
       1       1       0       8       1       1       0       8       1       1
       0       8       1       1       0       8       1       1       0       8
       1       1       0       8       1       1       0       8       1       1
       0       8       1       1       0       8       1       1       0       8
       1       1       0       8       1       1       0       8       1       1
       0       8       1       1       0       8       1       1       0       8
       1       1       0       8       1       1       0       8       1       1
       0       8       1       1       0       8       1       1       0       8
       1       1       0       8       1       1       0       8       1       1
       0       8       1       1       0       8       1       1       0       8
       1       1       0       8       1       1       0       8       1       1
       0       8       1       1       0       8       1       1       0       8
       1       1       0       8       1       1       0       8       1       1
       0       8       1       1       0       8       1       1       0       8
       1       1       0       8       1       1       0       8       1       1
       0       8       1       1       0       8       1       1       0       8
       1       1       0       8       1       1       0       8       1       1
       0       8       1       1       0       8       1       1       0       8
       1       1       0       8       1       1       0       8       1       1
       0       8       1       1       0       8       1       1       0       8
       1       1       0       8       1       1       0       8       1       1
       0       8       1       1       0       8       1       1       0       8
       1       1       0       8       1       1       0       8       1       1
       0       8       1       1       0       8       1       1       0       8
       1       1       0       8       1       1       0       8       1       1
       0       8       1       1       0       8       1       1       0       8
       1       1       0       8       1       1       0       8       1       1
       0       8       1       1       0       8       1       1       0       8
       1       1       0       8       1       1       0       8       1       1
       0       8       1       1       0       8       1       1       0       8
       1       1       0       8       1       1       0       8       1       1
       0       8       1       1       0       8       1       1       0       8
       1       1       0       8       1       1       0       8       1       1
       0       8       1       1       0       8       1       1       0       8
       1       1       0       8       1       1       0       8       1       1
       0       8       1       1       0       8       1       1       0       8
       1       1       0       8       1       1       0       8       1       1
       0       8       1       1       0       8       1       1       0       8
       1       1       0       8       1       1       0       8       1       1
       0       8       1       1       0       8       1       1       0       8
       1       1       0       8       1       1       0       8       1       1
       0       8       1       1       0       8       1       1       0       8
       1       1       0       8       1       1       0       8       1       1
       0       8       1       1       0       8       1       1       0       8
       1       1       0       8       1       1       0       8       1       1
       0       8       1       1       0       8       1       1       0       8
       1       1       0       8       1       1       0       8       1       1
       0       8       1       1       0       8       1       1       0       8
       1       1       0       8       1       1       0       8       1       1
       0       8       1       1       0       8       1       1       0       8
       1       1       0       8       1       1       0       8       1       1
       0       8       1       1       0       8       1       1       0       8
       1       1       0       8       1       1       0       8       1       1
       0       8       1       1       0       8       1       1       0       8
       1       1       0       8       1       1       0       8       1       1
       0       8       1       1       0       8       1       1       0       8
       1       1       0       8       1       1       0       8       1       1
       0       8       1       1       0       8       1       1       0       8
       1       1       0       8       1       1       0       8       1       1
       0       8       1       1       0       8       1       1       0       8
       1       1       0       8       1       1       0       8       1       1
       0       8       1       1       0       8       1       1       0       8
       1       1       0       8       1       1       0       8       1       1
       0       8       1       1       0       8       1       1       0       8
       1       1       0       8       1       1       0       8       1       1
       0       8       1       1       0       8       1       1       0       8
       1       1       0       8       1       1       0       8       1       1
       0       8       1       1       0       8       1       1       0       8
       1       1       0       8       1       1       0       8       1       1
       0       8       1       1       0       8       1       1       0       8
       1       1       0       8       1       1       0       8       1       1
       0       8       1       1       0       8       1       1       0       8
       1       1       0       8       1       1       0       8       1       1
       0       8       1       1       0       8       1       1       0       8
       1       1       0       8       1       1       0       8       1       1
       0       8       1       1       0       8       1       1       0       8
       1       1       0       8       1       1       0       8       1       1
       0       8       1       1       0       8       1       1       0       8
       1       1       0       8       1       1       0       8       1       1
       0       8       1       1       0       8       1       1       0       8
       1       1       0       8       1       1       0       8       1       1
       0       8       1       1       0       8       1       1       0       8
       1       1       0       8       1       1       0       8       1       1
       0       8       1       1       0       8       1       1       0       8
       1       1       0       8       1       1       0       8       1       1
       0       8       1       1       0       8       1       1       0       8
       1       1       0       8       1       1       0       8       1       1
       0       8       1       1       0       8       1       1       0       8
       1       1       0       8       1       1       0       8       1       1
       0       8       1       1       0       8       1       1       0       8
       1       1       0       8       1       1       0       8       1       1
       0       8       1       1       0       8       1       1       0       8
       1       1       0       8       1       1       0       8       1       1
       0       8       1       1       0       8       1       1       0       8
       1       1       0       8       1       1       0       8       1       1
       0       8       1       1       0       8       1       1       0       8
       1       1       0       8       1       1       0       8       1       1
       0       8       1       1       0       8       1       1       0       8
       1       1       0       8       1       1       0       8       1       1
       0       8       1       1       0       8       1       1       0       8
       1       1       0       8       1       1       0       8       1       1
       0       8       1       1       0       8       1       1       0       8
       1       1       0       8       1       1       0       8       1       1
       0       8       1       1       0       8       1       1       0       8
       1       1       0       8       1       1       0       8       1       1
       0       8       1       1       0       8       1       1       0       8
       1       1       0       8       1       1       0       8       1       1
       0       8       1       1       0       8       1       1       0       8
       1       1       0       8       1       1       0       8       1       1
       0       8       1       1       0       8       1       1       0       8
       1       1       0       8       1       1       0       8       1       1
       0       8       1       1       0       8       1       1       0       8
       1       1       0       8       1       1       0       8       1       1
       0       8       1       1       0       8       1       1       0       8
       1       1       0       8       1       1       0       8       1       1
       0       8       1       1       0       8       1       1       0       8
       1       1       0       8       1       1       0       8       1       1
       0       8       1       1       0       8       1       1       0       8
       1       1       0       8       1       1       0       8       1       1
       0       8       1       1       0       8       1       1       0       8
       1       1       0       8       1       1       0       8       1       1
       0       8       1       1       0       8       1       1       0       8
       1       1       0       8       1       1       0       8       1       1
       0       8       1       1       0       8       1       1       0       8
       1       1       0       8       1       1       0       8       1       1
       0       8       1       1       0       8       1       1       0       8
       1       1       0       8       1       1       0       8       1       1
       0       8       1       1       0       8       1       1       0       8
       1       1       0       8       1       1       0       8       1       1
       0       8       1       1       0       8       1       1       0       8
       1       1       0       8       1       1       0       8       1       1
       0       8       1       1       0       8       1       1       0       8
       1       1       0       8       1       1       0       8       1       1
       0       8       1       1       0       8       1       1       0       8
       1       1       0       8       1       1       0       8       1       1
       0       8       1       1       0       8       1       1       0       8
       1       1       0       8       1       1       0       8       1       1
       0       8       1       1       0       8       1       1       0       8
       1       1       0       8       1       1       0       8       1       1
       0       8       1       1       0       8       1       1       0       8
       1       1       0       8       1       1       0       8       1       1
       0       8       1       1       0       8       1       1       0       8
       1       1       0       8       1       1       0       8       1       1
       0       8       1       1       0       8       1       1       0       8
       1       1       0       8       1       1       0       8       1       1
       0       8       1       1       0       8       1       1       0       8
       1       1       0       8       1       1       0       8       1       1
       0       8       1       1       0       8       1       1       0       8
       1       1       0       8       1       1       0       8       1       1
       0       8       1       1       0       8       1       1       0       8
       1       1       0       8       1       1       0       8       1       1
       0       8       1       1       0       8       1       1       0       8
       1       1       0       8       1       1       0       8       1       1
       0       8       1       1       0       8       1       1       0       8
       1       1       0       8       1       1       0       8       1       1
       0       8       1       1       0       8       1       1       0       8
       1       1       0       8       1       1       0       8       1       1
       0       8       1       1       0       8       1       1       0       8
       1       1       0       8       1       1       0       8       1       1
       0       8       1       1       0       8       1       1       0       8
       1       1       0       8       1       1       0       8       1       1
       0       8       1       1       0       8       1       1       0       8
       1       1       0       8       1       1       0       8       1       1
       0       8       1       1       0       8       1       1       0       8
       1       1       0       8       1       1       0       8       1       1
       0       8       1       1       0       8       1       1       0       8
       1       1       0       8       1       1       0       8       1       1
       0       8       1       1       0       8       1       1       0       8
       1       1       0       8       1       1       0       8       1       1
       0       8       1       1       0       8       1       1       0       8
       1       1       0       8       1       1       0       8       1       1
       0       8       1       1       0       8       1       1       0       8
       1       1       0       8       1       1       0       8       1       1
       0       8       1       1       0       8       1       1       0       8
       1       1       0       8       1       1       0       8       1       1
       0       8       1       1       0       8       1       1       0       8
       1       1       0       8       1       1       0       8       1       1
       0       8       1       1       0       8       1       1       0       8
       1       1       0       8       1       1       0       8       1       1
       0       8       1       1       0       8       1       1       0       8
       1       1       0       8       1       1       0       8       1       1
       0       8       1       1       0       8       1       1       0       8
       1       1       0       8       1       1       0       8       1       1
       0       8       1       1       0       8       1       1       0       8
       1       1       0       8       1       1       0       8       1       1
       0       8       1       1       0       8       1       1       0       8
       1       1       0       8       1       1       0       8       1       1
       0       8       1       1       0       8       1       1       0       8
       1       1       0       8       1       1       0       8       1       1
       0       8       1       1       0       8       1       1       0       8
       1       1       0       8       1       1       0       8       1       1
       0       8       1       1       0       8       1       1       0       8
       1       1       0       8       1       1       0       8       1       1
       0       8       1       1       0       8       1       1       0       8
       1       1       0       8       1       1       0       8       1       1
       0       8       1       1       0       8       1       1       0       8
       1       1       0       8       1       1       0       8       1       1
       0       8       1       1       0       8       1       1       0       8
       1       1       0       8       1       1       0       8       1       1
       0       8       1       1       0       8       1       1       0       8
       1       1       0       8       1       1       0       8       1       1
       0       8       1       1       0       8       1       1       0       8
       1       1       0       8       1       1       0       8       1       1
       0       8       1       1       0       8       1       1       0       8
       1       1       0       8       1       1       0       8       1       1
       0       8       1       1       0       8       1       1       0       8
       1       1       0       8       1       1       0       8       1       1
       0       8       1       1       0       8       1       1       0       8
       1       1       0       8       1       1       0       8       1       1
       0       8       1       1       0       8       1       1       0       8
       1       1       0       8       1       1       0       8       1       1
       0       8       1       1       0       8       1       1       0       8
       1       1       0       8       1       1       0       8       1       1
       0       8       1       1       0       8       1       1       0       8
       1       1       0       8       1       1       0       8       1       1
       0       8       1       1       0       8       1       1       0       8
       1       1       0       8       1       1       0       8       1       1
       0       8       1       1       0       8       1       1       0       8
       1       1       0       8       1       1       0       8       1       1
       0       8       1       1       0       8       1       1       0       8
       1       1       0       8       1       1       0       8       1       1
       0       8       1       1       0       8       1       1       0       8
       1       1       0       8       1       1       0       8       1       1
       0       8       1       1       0       8       1       1       0       8
       1       1       0       8       1       1       0       8       1       1
       0       8       1       1       0       8       1       1       0       8
       1       1       0       8       1       1       0       8       1       1
       0       8       1       1       0       8       1       1       0       8
       1       1       0       8       1       1       0       8       1       1
       0       8       1       1       0       8       1       1       0       8
       1       1       0       8       1       1       0       8       1       1
       0       8       1       1       0       8       1       1       0       8
       1       1       0       8       1       1       0       8       1       1
       0       8       1       1       0       8       1       1       0       8
       1       1       0       8       1       1       0       8       1       1
       0       8       1       1       0       8       1       1       0       8
       1       1       0       8       1       1       0       8       1       1
       0       8       1       1       0       8       1       1       0       8
       1       1       0       8       1       1       0       8       1       1
       0       8       1       1       0       8       1       1       0       8
       1       1       0       8       1       1       0       8       1       1
       0       8       1       1       0       8       1       1       0       8
       1       1       0       8       1       1       0       8       1       1
       0       8       1       1       0       8       1       1       0       8
       1       1       0       8       1       1       0       8       1       1
       0       8       1       1       0       8       1       1       0       8
       1       1       0       8       1       1       0       8       1       1
       0       8       1       1       0       8       1       1       0       8
       1       1       0       8       1       1       0       8       1       1
       0       8       1       1       0       8       1       1       0       8
       1       1       0       8       1       1       0       8       1       1
       0       8       1       1       0       8       1       1       0       8
       1       1       0       8       1       1       0       8       1       1
       0       8       1       1       0       8       1       1       0       8
       1       1       0       8       1       1       0       8       1       1
       0       8       1       1       0       8       1       1       0       8
       1       1       0       8       1       1       0       8       1       1
       0       8       1       1       0       8       1       1       0       8
       1       1       0       8       1       1       0       8       1       1
       0       8       1       1       0       8       1       1       0       8
       1       1       0       8       1       1       0       8       1       1
       0       8       1       1       0       8       1       1       0       8
       1       1       0       8       1       1       0       8       1       1
       0       8       1       1       0       8       1       1       0       8
       1       1       0       8       1       1       0       8       1       1
       0       8       1       1       0       8       1       1       0       8
       1       1       0       8       1       1       0       8       1       1
       0       8       1       1       0       8       1       1       0       8
       1       1       0       8       1       1       0       8       1       1
       0       8       1       1       0       8       1       1       0       8
       1       1       0       8       1       1       0       8       1       1
       0       8       1       1       0       8       1       1       0       8
       1       1       0       8       1       1       0       8       1       1
       0       8       1       1       0       8       1       1       0       8
       1       1       0       8       1       1       0       8       1       1
       0       8       1       1       0       8       1       1       0       8
       1       1       0       8       1       1       0       8       1       1
       0       8       1       1       0       8       1       1       0       8
       1       1       0       8       1       1       0       8       1       1
       0       8       1       1       0       8       1       1       0       8
       1       1       0       8       1       1       0       8       1       1
       0       8       1       1       0       8       1       1       0       8
       1       1       0       8       1       1       0       8       1       1
       0       8       1       1       0       8       1       1       0       8
       1       1       0       8       1       1       0       8       1       1
       0       8       1       1       0       8       1       1       0       8
       1       1       0       8       1       1       0       8       1       1
       0       8       1       1       0       8       1       1       0       8
       1       1       0       8       1       1       0       8       1       1
       0       8       1       1       0       8       1       1       0       8
       1       1       0       8       1       1       0       8       1       1
       0       8       1       1       0       8       1       1       0       8
       1       1       0       8       1       1       0       8       1       1
       0       8       1       1       0       8       1       1       0       8
       1       1       0       8       1       1       0       8       1       1
       0       8       1       1       0       8       1       1       0       8
       1       1       0       8       1       1       0       8       1       1
       0       8       1       1       0       8       1       1       0       8
       1       1       0       8       1       1       0       8       1       1
       0       8       1       1       0       8       1       1       0       8
       1       1       0       8       1       1       0       8       1       1
       0       8       1       1       0       8       1       1       0       8
       1       1       0       8       1       1       0       8       1       1
       0       8       1       1       0       8       1       1       0       8
       1       1       0       8       1       1       0       8       1       1
       0       8       1       1       0       8       1       1       0       8
       1       1       0       8       1       1       0       8       1       1
       0       8       1       1       0       8       1       1       0       8
       1       1       0       8       1       1       0       8       1       1
       0       8       1       1       0       8       1       1       0       8
       1       1       0       8       1       1       0       8       1       1
       0       8       1       1       0       8       1       1       0       8
       1       1       0       8       1       1       0       8       1       1
       0       8       1       1       0       8       1       1       0       8
       1       1       0       8       1       1       0       8       1       1
       0       8       1       1       0       8       1       1       0       8
       1       1       0       8       1       1       0       8       1       1
       0       8       1       1       0       8       1       1       0       8
       1       1       0       8       1       1       0       8       1       1
       0       8       1       1       0       8       1       1       0       8
       1       1       0       8       1       1       0       8       1       1
       0       8       1       1       0       8       1       1       0       8
       1       1       0       8       1       1       0       8       1       1
       0       8       1       1       0       8       1       1       0       8
       1       1       0       8       1       1       0       8       1       1
       0       8       1       1       0       8       1       1       0       8
       1       1       0       8       1       1       0       8       1       1
       0       8       1       1       0       8       1       1       0       8
       1       1       0       8       1       1       0       8       1       1
       0       8       1       1       0       8       1       1       0       8
       1       1       0       8       1       1       0       8       1       1
       0       8       1       1       0       8       1       1       0       8
       1       1       0       8       1       1       0       8       1       1
       0       8       1       1       0       8       1       1       0       8
       1       1       0       8       1       1       0       8       1       1
       0       8       1       1       0       8       1       1       0       8
       1       1       0       8       1       1       0       8       1       1
       0       8       1       1       0       8       1       1       0       8
       1       1       0       8       1       1       0       8       1       1
       0       8       1       1       0       8       1       1       0       8
       1       1       0       8       1       1       0       8       1       1
       0       8       1       1       0       8       1       1       0       8
       1       1       0       8       1       1       0       8       1       1
       0       8       1       1       0       8       1       1       0       8
       1       1       0       8       1       1       0       8       1       1
       0       8       1       1       0       8       1       1       0       8
       1       1       0       8       1       1       0       8       1       1
       0       8       1       1       0       8       1       1       0       8
       1       1       0       8       1       1       0       8       1       1
       0       8       1       1       0       8       1       1       0       8
       1       1       0       8       1       1       0       8       1       1
       0       8       1       1       0       8       1       1       0       8
       1       1       0       8       1       1       0       8       1       1
       0       8       1       1       0       8       1       1       0       8
       1       1       0       8       1       1       0       8       1       1
       0       8       1       1       0       8       1       1       0       8
       1       1       0       8       1       1       0       8       1       1
       0       8       1       1       0       8       1       1       0       8
       1       1       0       8       1       1       0       8       1       1
       0       8       1       1       0       8       1       1       0       8
       1       1       0       8       1       1       0       8       1       1
       0       8       1       1       0       8       1       1       0       8
       1       1       0       8       1       1       0       8       1       1
       0       8       1       1       0       8       1       1       0       8
       1       1       0       8       1       1       0       8       1       1
       0       8       1       1       0       8       1       1       0       8
       1       1       0       8       1       1       0       8       1       1
       0       8       1       1       0       8       1       1       0       8
       1       1       0       8       1       1       0       8       1       1
       0       8       1       1       0       8       1       1       0       8
       1       1       0       8       1       1       0       8       1       1
       0       8       1       1       0       8       1       1       0       8
       1       1       0       8       1       1       0       8       1       1
       0       8       1       1       0       8       1       1       0       8
       1       1       0       8       1       1       0       8       1       1
       0       8       1       1       0       8       1       1       0       8
       1       1       0       8       1       1       0       8       1       1
       0       8       1       1       0       8       1       1       0       8
       1       1       0       8       1       1       0       8       1       1
       0       8       1       1       0       8       1       1       0       8
       1       1       0       8       1       1       0       8       1       1
       0       8       1       1       0       8       1       1       0       8
       1       1       0       8       1       1       0       8       1       1
       0       8       1       1       0       8       1       1       0       8
       1       1       0       8       1       1       0       8       1       1
       0       8       1       1       0       8       1       1       0       8
       1       1       0       8       1       1       0       8       1       1
       0       8       1       1       0       8       1       1       0       8
       1       1       0       8       1       1       0       8       1       1
       0       8       1       1       0       8       1       1       0       8
       1       1       0       8       1       1       0       8       1       1
       0       8       1       1       0       8       1       1       0       8
       1       1       0       8       1       1       0       8       1       1
       0       8       1       1       0       8       1       1       0       8
       1       1       0       8       1       1       0       8       1       1
       0       8       1       1       0       8       1       1       0       8
       1       1       0       8       1       1       0       8       1       1
       0       8       1       1       0       8       1       1       0       8
       1       1       0       8       1       1       0       8       1       1
       0       8       1       1       0       8       1       1       0       8
       1       1       0       8       1       1       0       8       1       1
       0       8       1       1       0       8       1       1       0       8
       1       1       0       8       1       1       0       8       1       1
       0       8       1       1       0       8       1       1       0       8
       1       1       0       8       1       1       0       8       1       1
       0       8       1       1       0       8       1       1       0       8
       1       1       0       8       1       1       0       8       1       1
       0       8       1       1       0       8       1       1       0       8
       1       1       0       8       1       1       0       8       1       1
       0       8       1       1       0       8       1       1       0       8
       1       1       0       8       1       1       0       8       1       1
       0       8       1       1       0       8       1       1       0       8
       1       1       0       8       1       1       0       8       1       1
       0       8       1       1       0       8       1       1       0       8
       1       1       0       8       1       1       0       8       1       1
       0       8       1       1       0       8       1       1       0       8
       1       1       0       8       1       1       0       8       1       1
       0       8       1       1       0       8       1       1       0       8
       1       1       0       8       1       1       0       8       1       1
       0       8       1       1       0       8       1       1       0       8
       1       1       0       8       1       1       0       8       1       1
       0       8       1       1       0       8       1       1       0       8
       1       1       0       8       1       1       0       8       1       1
       0       8       1       1       0       8       1       1       0       8
       1       1       0       8       1       1       0       8       1       1
       0       8       1       1       0       8       1       1       0       8
       1       1       0       8       1       1       0       8       1       1
       0       8       1       1       0       8       1       1       0       8
       1       1       0       8       1       1       0       8       1       1
       0       8       1       1       0       8       1       1       0       8
       1       1       0       8       1       1       0       8       1       1
       0       8       1       1       0       8       1       1       0       8
       1       1       0       8       1       1       0       8       1       1
       0       8       1       1       0       8       1       1       0       8
       1       1       0       8       1       1       0       8       1       1
       0       8       1       1       0       8       1       1       0       8
       1       1       0       8       1       1       0       8       1       1
       0       8       1       1       0       8       1       1       0       8
       1       1       0       8       1       1       0       8       1       1
       0       8       1       1       0       8       1       1       0       8
       1       1       0       8       1       1       0       8       1       1
       0       8       1       1       0       8       1       1       0       8
       1       1       0       8       1       1       0       8       1       1
       0       8       1       1       0       8       1       1       0       8
       1       1       0       8       1       1       0       8       1       1
       0       8       1       1       0       8       1       1       0       8
       1       1       0       8       1       1       0       8       1       1
       0       8       1       1       0       8       1       1       0       8
       1       1       0       8       1       1       0       8       1       1
       0       8       1       1       0       8       1       1       0       8
       1       1       0       8       1       1       0       8       1       1
       0       8       1       1       0       8       1       1       0       8
       1       1       0       8       1       1       0       8       1       1
       0       8       1       1       0       8       1       1       0       8
       1       1       0       8       1       1       0       8       1       1
       0       8       1       1       0       8       1       1       0       8
       1       1       0       8       1       1       0       8       1       1
       0       8       1       1       0       8       1       1       0       8
       1       1       0       8       1       1       0       8       1       1
       0       8       1       1       0       8       1       1       0       8
       1       1       0       8       1       1       0       8       1       1
       0       8       1       1       0       8       1       1       0       8
       1       1       0       8       1       1       0       8       1       1
       0       8       1       1       0       8       1       1       0       8
       1       1       0       8       1       1       0       8       1       1
       0       8       1       1       0       8       1       1       0       8
       1       1       0       8       1       1       0       8       1       1
       0       8       1       1       0       8       1       1       0       8
       1       1       0       8       1       1       0       8       1       1
       0       8       1       1       0       8       1       1       0       8
       1       1       0       8       1       1       0       8       1       1
       0       8       1       1       0       8       1       1       0       8
       1       1       0       8       1       1       0       8       1       1
       0       8       1       1       0       8       1       1       0       8
       1       1       0       8       1       1       0       8       1       1
       0       8       1       1       0       8       1       1       0       8
       1       1       0       8       1       1       0       8       1       1
       0       8       1       1       0       8       1       1       0       8
       1       1       0       8       1       1       0       8       1       1
       0       8       1       1       0       8       1       1       0       8
       1       1       0       8       1       1       0       8       1       1
       0       8       1       1       0       8       1       1       0       8
       1       1       0       8       1       1       0       8       1       1
       0       8       1       1       0       8       1       1       0       8
       1       1       0       8       1       1       0       8       1       1
       0       8       1       1       0       8       1       1       0       8
       1       1       0       8       1       1       0       8       1       1
       0       8       1       1       0       8       1       1       0       8
       1       1       0       8       1       1       0       8       1       1
       0       8       1       1       0       8       1       1       0       8
       1       1       0       8       1       1       0       8       1       1
       0       8       1       1       0       8       1       1       0       8
       1       1       0       8       1       1       0       8       1       1
       0       8       1       1       0       8       1       1       0       8
       1       1       0       8       1       1       0       8       1       1
       0       8       1       1       0       8       1       1       0       8
       1       1       0       8       1       1       0       8       1       1
       0       8       1       1       0       8       1       1       0       8
       1       1       0       8       1       1       0       8       1       1
       0       8       1       1       0       8       1       1       0       8
       1       1       0       8       1       1       0       8       1       1
       0       8       1       1       0       8       1       1       0       8
       1       1       0       8       1       1       0       8       1       1
       0       8       1       1       0       8       1       1       0       8
       1       1       0       8       1       1       0       8       1       1
       0       8       1       1       0       8       1       1       0       8
       1       1       0       8       1       1       0       8       1       1
       0       8       1       1       0       8       1       1       0       8
       1       1       0       8       1       1       0       8       1       1
       0       8       1       1       0       8       1       1       0       8
       1       1       0       8       1       1       0       8       1       1
       0       8       1       1       0       8       1       1       0       8
       1       1       0       8       1       1       0       8       1       1
       0       8       1       1       0       8       1       1       0       8
       1       1       0       8       1       1       0       8       1       1
       0       8       1       1       0       8       1       1       0       8
       1       1       0       8       1       1       0       8       1       1
       0       8       1       1       0       8       1       1       0       8
       1       1       0       8       1       1       0       8       1       1
       0       8       1       1       0       8       1       1       0       8
       1       1       0       8       1       1       0       8       1       1
       0       8       1       1       0       8       1       1       0       8
       1       1       0       8       1       1       0       8       1       1
       0       8       1       1       0       8       1       1       0       8
       1       1       0       8       1       1       0       8       1       1
       0       8       1       1       0       8       1       1       0       8
       1       1       0       8       1       1       0       8       1       1
       0       8       1       1       0       8       1       1       0       8
       1       1       0       8       1       1       0       8       1       1
       0       8       1       1       0       8       1       1       0       8
       1       1       0       8       1       1       0       8       1       1
       0       8       1       1       0       8       1       1       0       8
       1       1       0       8       1       1       0       8       1       1
       0       8       1       1       0       8       1       1       0       8
       1       1       0       8       1       1       0       8       1       1
       0       8       1       1       0       8       1       1       0       8
       1       1       0       8       1       1       0       8       1       1
       0       8       1       1       0       8       1       1       0       8
       1       1       0       8       1       1       0       8       1       1
       0       8       1       1       0       8       1       1       0       8
       1       1       0       8       1       1       0       8       1       1
       0       8       1       1       0       8       1       1       0       8
       1       1       0       8       1       1       0       8       1       1
       0       8       1       1       0       8       1       1       0       8
       1       1       0       8       1       1       0       8       1       1
       0       8       1       1       0       8       1       1       0       8
       1       1       0       8       1       1       0       8       1       1
       0       8       1       1       0       8       1       1       0       8
       1       1       0       8       1       1       0       8       1       1
       0       8       1       1       0       8       1       1       0       8
       1       1       0       8       1       1       0       8       1       1
       0       8       1       1       0       8       1       1       0       8
       1       1       0       8       1       1       0       8       1       1
       0       8       1       1       0       8       1       1       0       8
       1       1       0       8       1       1       0       8       1       1
       0       8       1       1       0       8       1       1       0       8
       1       1       0       8       1       1       0       8       1       1
       0       8       1       1       0       8       1       1       0       8
       1       1       0       8       1       1       0       8       1       1
       0       8       1       1       0       8       1       1       0       8
       1       1       0       8       1       1       0       8       1       1
       0       8       1       1       0       8       1       1       0       8
       1       1       0       8       1       1       0       8       1       1
       0       8       1       1       0       8       1       1       0       8
       1       1       0       8       1       1       0       8       1       1
       0       8       1       1       0       8       1       1       0       8
       1       1       0       8       1       1       0       8       1       1
       0       8       1       1       0       8       1       1       0       8
       1       1       0       8       1       1       0       8       1       1
       0       8       1       1       0       8       1       1       0       8
       1       1       0       8       1       1       0       8       1       1
       0       8       1       1       0       8       1       1       0       8
       1       1       0       8       1       1       0       8       1       1
       0       8       1       1       0       8       1       1       0       8
       1       1       0       8       1       1       0       8       1       1
       0       8       1       1       0       8       1       1       0       8
       1       1       0       8       1       1       0       8       1       1
       0       8       1       1       0       8       1       1       0       8
       1       1       0       8       1       1       0       8       1       1
       0       8       1       1       0       8       1       1       0       8
       1       1       0       8       1       1       0       8       1       1
       0       8       1       1       0       8       1       1       0       8
       1       1       0       8       1       1       0       8       1       1
       0       8       1       1       0       8       1       1       0       8
       1       1       0       8       1       1       0       8       1       1
       0       8       1       1       0       8       1       1       0       8
       1       1       0       8       1       1       0       8       1       1
       0       8       1       1       0       8       1       1       0       8
       1       1       0       8       1       1       0       8       1       1
       0       8       1       1       0       8       1       1       0       8
       1       1       0       8       1       1       0       8       1       1
       0       8       1       1       0       8       1       1       0       8
       1       1       0       8       1       1       0       8       1       1
       0       8       1       1       0       8       1       1       0       8
       1       1       0       8       1       1       0       8       1       1
       0       8       1       1       0       8       1       1       0       8
       1       1       0       8       1       1       0       8       1       1
       0       8       1       1       0       8       1       1       0       8
       1       1       0       8       1       1       0       8       1       1
       0       8       1       1       0       8       1       1       0       8
       1       1       0       8       1       1       0       8       1       1
       0       8       1       1       0       8       1       1       0       8
       1       1       0       8       1       1       0       8       1       1
       0       8       1       1       0       8       1       1       0       8
       1       1       0       8       1       1       0       8       1       1
       0       8       1       1       0       8       1       1       0       8
       1       1       0       8       1       1       0       8       1       1
       0       8       1       1       0       8       1       1       0       8
       1       1       0       8       1       1       0       8       1       1
       0       8       1       1       0       8       1       1       0       8
       1       1       0       8       1       1       0       8       1       1
       0       8       1       1       0       8       1       1       0       8
       1       1       0       8       1       1       0       8       1       1
       0       8       1       1       0       8       1       1       0       8
       1       1       0       8       1       1       0       8       1       1
       0       8       1       1       0       8       1       1       0       8
       1       1       0       8       1       1       0       8       1       1
       0       8       1       1       0       8       1       1       0       8
       1       1       0       8       1       1       0       8       1       1
       0       8       1       1       0       8       1       1       0       8
       1       1       0       8       1       1       0       8       1       1
       0       8       1       1       0       8       1       1       0       8
       1       1       0       8       1       1       0       8       1       1
       0       8       1       1       0       8       1       1       0       8
       1       1       0       8       1       1       0       8       1       1
       0       8       1       1       0       8       1       1       0       8
       1       1       0       8       1       1       0       8       1       1
       0       8       1       1       0       8       1       1       0       8
       1       1       0       8       1       1       0       8       1       1
       0       8       1       1       0       8       1       1       0       8
       1       1       0       8       1       1       0       8       1       1
       0       8       1       1       0       8       1       1       0       8
       1       1       0       8       1       1       0       8       1       1
       0       8       1       1       0       8       1       1       0       8
       1       1       0       8       1       1       0       8       1       1
       0       8       1       1       0       8       1       1       0       8
       1       1       0       8       1       1       0       8       1       1
       0       8       1       1       0       8       1       1       0       8
       1       1       0       8       1       1       0       8       1       1
       0       8       1       1       0       8       1       1       0       8
       1       1       0       8       1       1       0       8       1       1
       0       8       1       1       0       8       1       1       0       8
       1       1       0       8       1       1       0       8       1       1
       0       8       1       1       0       8       1       1       0       8
       1       1       0       8       1       1       0       8       1       1
       0       8       1       1       0       8       1       1       0       8
       1       1       0       8       1       1       0       8       1       1
       0       8       1       1       0       8       1       1       0       8
       1       1       0       8       1       1       0       8       1       1
       0       8       1       1       0       8       1       1       0       8
       1       1       0       8       1       1       0       8       1       1
       0       8       1       1       0       8       1       1       0       8
       1       1       0       8       1       1       0       8       1       1
       0       8       1       1       0       8       1       1       0       8
       1       1       0       8       1       1       0       8       1       1
       0       8       1       1       0       8       1       1       0       8
       1       1       0       8       1       1       0       8       1       1
       0       8       1       1       0       8       1       1       0       8
       1       1       0       8       1       1       0       8       1       1
       0       8       1       1       0       8       1       1       0       8
       1       1       0       8       1       1       0       8       1       1
       0       8       1       1       0       8       1       1       0       8
       1       1       0       8       1       1       0       8       1       1
       0       8       1       1       0       8       1       1       0       8
       1       1       0       8       1       1       0       8       1       1
       0       8       1       1       0       8       1       1       0       8
       1       1       0       8       1       1       0       8       1       1
       0       8       1       1       0       8       1       1       0       8
       1       1       0       8       1       1       0       8       1       1
       0       8       1       1       0       8       1       1       0       8
       1       1       0       8       1       1       0       8       1       1
       0       8       1       1       0       8       1       1       0       8
       1       1       0       8       1       1       0       8       1       1
       0       8       1       1       0       8       1       1       0       8
       1       1       0       8       1       1       0       8       1       1
       0       8       1       1       0       8       1       1       0       8
       1       1       0       8       1       1       0       8       1       1
       0       8       1       1       0       8       1       1       0       8
       1       1       0       8       1       1       0       8       1       1
       0       8       1       1       0       8       1       1       0       8
       1       1       0       8       1       1       0       8       1       1
       0       8       1       1       0       8       1       1       0       8
       1       1       0       8       1       1       0       8       1       1
       0       8       1       1       0       8       1       1       0       8
       1       1       0       8       1       1       0       8       1       1
       0       8       1       1       0       8       1       1       0       8
       1       1       0       8       1       1       0       8       1       1
       0       8       1       1       0       8       1       1       0       8
       1       1       0       8       1       1       0       8       1       1
       0       8       1       1       0       8       1       1       0       8
       1       1       0       8       1       1       0       8       1       1
       0       8       1       1       0       8       1       1       0       8
       1       1       0       8       1       1       0       8       1       1
       0       8       1       1       0       8       1       1       0       8
       1       1       0       8       1       1       0       8       1       1
       0       8       1       1       0       8       1       1       0       8
       1       1       0       8       1       1       0       8       1       1
       0       8       1       1       0       8       1       1       0       8
       1       1       0       8       1       1       0       8       1       1
       0       8       1       1       0       8       1       1       0       8
       1       1       0       8       1       1       0       8       1       1
       0       8       1       1       0       8       1       1       0       8
       1       1       0       8       1       1       0       8       1       1
       0       8       1       1       0       8       1       1       0       8
       1       1       0       8       1       1       0       8       1       1
       0       8       1       1       0       8       1       1       0       8
       1       1       0       8       1       1       0       8       1       1
       0       8       1       1       0       8       1       1       0       8
       1       1       0       8       1       1       0       8       1       1
       0       8       1       1       0       8       1       1       0       8
       1       1       0       8       1       1       0       8       1       1
       0       8       1       1       0       8       1       1       0       8
       1       1       0       8       1       1       0       8       1       1
       0       8       1       1       0       8       1       1       0       8
       1       1       0       8       1       1       0       8       1       1
       0       8       1       1       0       8       1       1       0       8
       1       1       0       8       1       1       0       8       1       1
       0       8       1       1       0       8       1       1       0       8
       1       1       0       8       1       1       0       8       1       1
       0       8       1       1       0       8       1       1       0       8
       1       1       0       8       1       1       0       8       1       1
       0       8       1       1       0       8       1       1       0       8
       1       1       0       8       1       1       0       8       1       1
       0       8       1       1       0       8       1       1       0       8
       1       1       0       8       1       1       0       8       1       1
       0       8       1       1       0       8       1       1       0       8
       1       1       0       8       1       1       0       8       1       1
       0       8       1       1       0       8       1       1       0       8
       1       1       0       8       1       1       0       8       1       1
       0       8       1       1       0       8       1       1       0       8
       1       1       0       8       1       1       0       8       1       1
       0       8       1       1       0       8       1       1       0       8
       1       1       0       8       1       1       0       8       1       1
       0       8       1       1       0       8       1       1       0       8
       1       1       0       8       1       1       0       8       1       1
       0       8       1       1       0       8       1       1       0       8
       1       1       0       8       1       1       0       8       1       1
       0       8       1       1       0       8       1       1       0       8
       1       1       0       8       1       1       0       8       1       1
       0       8       1       1       0       8       1       1       0       8
       1       1       0       8       1       1       0       8       1       1
       0       8       1       1       0       8       1       1       0       8
       1       1       0       8       1       1       0       8       1       1
       0       8       1       1       0       8       1       1       0       8
       1       1       0       8       1       1       0       8       1       1
       0       8       1       1       0       8       1       1       0       8
       1       1       0       8       1       1       0       8       1       1
       0       8       1       1       0       8       1       1       0       8
       1       1       0       8       1       1       0       8       1       1
       0       8       1       1       0       8       1       1       0       8
       1       1       0       8       1       1       0       8       1       1
       0       8       1       1       0       8       1       1       0       8
       1       1       0       8       1       1       0       8       1       1
       0       8       1       1       0       8       1       1       0       8
       1       1       0       8       1       1       0       8       1       1
       0       8       1       1       0       8       1       1       0       8
       1       1       0       8       1       1       0       8       1       1
       0       8       1       1       0       8       1       1       0       8
       1       1       0       8       1       1       0       8       1       1
       0       8       1       1       0       8       1       1       0       8
       1       1       0       8       1       1       0       8       1       1
       0       8       1       1       0       8       1       1       0       8
       1       1       0       8       1       1       0       8       1       1
       0       8       1       1       0       8       1       1       0       8
       1       1       0       8       1       1       0       8       1       1
       0       8       1       1       0       8       1       1       0       8
       1       1       0       8       1       1       0       8       1       1
       0       8       1       1       0       8       1       1       0       8
       1       1       0       8       1       1       0       8       1       1
       0       8       1       1       0       8       1       1       0       8
       1       1       0       8       1       1       0       8       1       1
       0       8       1       1       0       8       1       1       0       8
       1       1       0       8       1       1       0       8       1       1
       0       8       1       1       0       8       1       1       0       8
       1       1       0       8       1       1       0       8       1       1
       0       8       1       1       0       8       1       1       0       8
       1       1       0       8       1       1       0       8       1       1
       0       8       1       1       0       8       1       1       0       8
       1       1       0       8       1       1       0       8       1       1
       0       8       1       1       0       8       1       1       0       8
       1       1       0       8       1       1       0       8       1       1
       0       8       1       1       0       8       1       1       0       8
       1       1       0       8       1       1       0       8       1       1
       0       8       1       1       0       8       1       1       0       8
       1       1       0       8       1       1       0       8       1       1
       0       8       1       1       0       8       1       1       0       8
       1       1       0       8       1       1       0       8       1       1
       0       8       1       1       0       8       1       1       0       8
       1       1       0       8       1       1       0       8       1       1
       0       8       1       1       0       8       1       1       0       8
       1       1       0       8       1       1       0       8       1       1
       0       8       1       1       0       8       1       1       0       8
       1       1       0       8       1       1       0       8       1       1
       0       8       1       1       0       8       1       1       0       8
       1       1       0       8       1       1       0       8       1       1
       0       8       1       1       0       8       1       1       0       8
       1       1       0       8       1       1       0       8       1       1
       0       8       1       1       0       8       1       1       0       8
       1       1       0       8       1       1       0       8       1       1
       0       8       1       1       0       8       1       1       0       8
       1       1       0       8       1       1       0       8       1       1
       0       8       1       1       0       8       1       1       0       8
       1       1       0       8       1       1       0       8       1       1
       0       8       1       1       0       8       1       1       0       8
       1       1       0       8       1       1       0       8       1       1
       0       8       1       1       0       8       1       1       0       8
       1       1       0       8       1       1       0       8       1       1
       0       8       1       1       0       8       1       1       0       8
       1       1       0       8       1       1       0       8       1       1
       0       8       1       1       0       8       1       1       0       8
       1       1       0       8       1       1       0       8       1       1
       0       8       1       1       0       8       1       1       0       8
       1       1       0       8       1       1       0       8       1       1
       0       8       1       1       0       8       1       1       0       8
       1       1       0       8       1       1       0       8       1       1
       0       8       1       1       0       8       1       1       0       8
       1       1       0       8       1       1       0       8       1       1
       0       8       1       1       0       8       1       1       0       8
       1       1       0       8       1       1       0       8       1       1
       0       8       1       1       0       8       1       1       0       8
       1       1       0       8       1       1       0       8       1       1
       0       8       1       1       0       8       1       1       0       8
       1       1       0       8       1       1       0       8       1       1
       0       8       1       1       0       8       1       1       0       8
       1       1       0       8       1       1       0       8       1       1
       0       8       1       1       0       8       1       1       0       8
       1       1       0       8       1       1       0       8       1       1
       0       8       1       1       0       8       1       1       0       8
       1       1       0       8       1       1       0       8       1       1
       0       8       1       1       0       8       1       1       0       8
       1       1       0       8       1       1       0       8       1       1
       0       8       1       1       0       8       1       1       0       8
       1       1       0       8       1       1       0       8       1       1
       0       8       1       1       0       8       1       1       0       8
       1       1       0       8       1       1       0       8       1       1
       0       8       1       1       0       8       1       1       0       8
       1       1       0       8       1       1       0       8       1       1
       0       8       1       1       0       8       1       1       0       8
       1       1       0       8       1       1       0       8       1       1
       0       8       1       1       0       8       1       1       0       8
       1       1       0       8       1       1       0       8       1       1
       0       8       1       1       0       8       1       1       0       8
       1       1       0       8       1       1       0       8       1       1
       0       8       1       1       0       8       1       1       0       8
       1       1       0       8       1       1       0       8       1       1
       0       8       1       1       0       8       1       1       0       8
       1       1       0       8       1       1       0       8       1       1
       0       8       1       1       0       8       1       1       0       8
       1       1       0       8       1       1       0       8       1       1
       0       8       1       1       0       8       1       1       0       8
       1       1       0       8       1       1       0       8       1       1
       0       8       1       1       0       8       1       1       0       8
       1       1       0       8       1       1       0       8       1       1
       0       8       1       1       0       8       1       1       0       8
       1       1       0       8       1       1       0       8       1       1
       0       8       1       1       0       8       1       1       0       8
       1       1       0       8       1       1       0       8       1       1
       0       8       1       1       0       8       1       1       0       8
       1       1       0       8       1       1       0       8       1       1
       0       8       1       1       0       8       1       1       0       8
       1       1       0       8       1       1       0       8       1       1
       0       8       1       1       0       8       1       1       0       8
       1       1       0       8       1       1       0       8       1       1
       0       8       1       1       0       8       1       1       0       8
       1       1       0       8       1       1       0       8       1       1
       0       8       1       1       0       8       1       1       0       8
       1       1       0       8       1       1       0       8       1       1
       0       8       1       1       0       8       1       1       0       8
       1       1       0       8       1       1       0       8       1       1
       0       8       1       1       0       8       1       1       0       8
       1       1       0       8       1       1       0       8       1       1
       0       8       1       1       0       8       1       1       0       8
       1       1       0       8       1       1       0       8       1       1
       0       8       1       1       0       8       1       1       0       8
       1       1       0       8       1       1       0       8       1       1
       0       8       1       1       0       8       1       1       0       8
       1       1       0       8       1       1       0       8       1       1
       0       8       1       1       0       8       1       1       0       8
       1       1       0       8       1       1       0       8       1       1
       0       8       1       1       0       8       1       1       0       8
       1       1       0       8       1       1       0       8       1       1
       0       8       1       1       0       8       1       1       0       8
       1       1       0       8       1       1       0       8       1       1
       0       8       1       1       0       8       1       1       0       8
       1       1       0       8       1       1       0       8       1       1
       0       8       1       1       0       8       1       1       0       8
       1       1       0       8       1       1       0       8       1       1
       0       8       1       1       0       8       1       1       0       8
       1       1       0       8       1       1       0       8       1       1
       0       8       1       1       0       8       1       1       0       8
       1       1       0       8       1       1       0       8       1       1
       0       8       1       1       0       8       1       1       0       8
       1       1       0       8       1       1       0       8       1       1
       0       8       1       1       0       8       1       1       0       8
       1       1       0       8       1       1       0       8       1       1
       0       8       1       1       0       8       1       1       0       8
       1       1       0       8       1       1       0       8       1       1
       0       8       1       1       0       8       1       1       0       8
       1       1       0       8       1       1       0       8       1       1
       0       8       1       1       0       8       1       1       0       8
       1       1       0       8       1       1       0       8       1       1
       0       8       1       1       0       8       1       1       0       8
       1       1       0       8       1       1       0       8       1       1
       0       8       1       1       0       8       1       1       0       8
       1       1       0       8       1       1       0       8       1       1
       0       8       1       1       0       8       1       1       0       8
       1       1       0       8       1       1       0       8       1       1
       0       8       1       1       0       8       1       1       0       8
       1       1       0       8       1       1       0       8       1       1
       0       8       1       1       0       8       1       1       0       8
       1       1       0       8       1       1       0       8       1       1
       0       8       1       1       0       8       1       1       0       8
       1       1       0       8       1       1       0       8       1       1
       0       8       1       1       0       8       1       1       0       8
       1       1       0       8       1       1       0       8       1       1
       0       8       1       1       0       8       1       1       0       8
       1       1       0       8       1       1       0       8       1       1
       0       8       1       1       0       8       1       1       0       8
       1       1       0       8       1       1       0       8       1       1
       0       8       1       1       0       8       1       1       0       8
       1       1       0       8       1       1       0       8       1       1
       0       8       1       1       0       8       1       1       0       8
       1       1       0       8       1       1       0       8       1       1
       0       8       1       1       0       8       1       1       0       8
       1       1       0       8       1       1       0       8       1       1
       0       8       1       1       0       8       1       1       0       8
       1       1       0       8       1       1       0       8       1       1
       0       8       1       1       0       8       1       1       0       8
       1       1       0       8       1       1       0       8       1       1
       0       8       1       1       0       8       1       1       0       8
       1       1       0       8       1       1       0       8       1       1
       0       8       1       1       0       8       1       1       0       8
       1       1       0       8       1       1       0       8       1       1
       0       8       1       1       0       8       1       1       0       8
       1       1       0       8       1       1       0       8       1       1
       0       8       1       1       0       8       1       1       0       8
       1       1       0       8       1       1       0       8       1       1
       0       8       1       1       0       8       1       1       0       8
       1       1       0       8       1       1       0       8       1       1
       0       8       1       1       0       8       1       1       0       8
       1       1       0       8       1       1       0       8       1       1
       0       8       1       1       0       8       1       1       0       8
       1       1       0       8       1       1       0       8       1       1
       0       8       1       1       0       8       1       1       0       8
       1       1       0       8       1       1       0       8       1       1
       0       8       1       1       0       8       1       1       0       8
       1       1       0       8       1       1       0       8       1       1
       0       8       1       1       0       8       1       1       0       8
       1       1       0       8       1       1       0       8       1       1
       0       8       1       1       0       8       1       1       0       8
       1       1       0       8       1       1       0       8       1       1
       0       8       1       1       0       8       1       1       0       8
       1       1       0       8       1       1       0       8       1       1
       0       8       1       1       0       8       1       1       0       8
       1       1       0       8       1       1       0       8       1       1
       0       8       1       1       0       8       1       1       0       8
       1       1       0       8       1       1       0       8       1       1
       0       8       1       1       0       8       1       1       0       8
       1       1       0       8       1       1       0       8       1       1
       0       8       1       1       0       8       1       1       0       8
       1       1       0       8       1       1       0       8       1       1
       0       8       1       1       0       8       1       1       0       8
       1       1       0       8       1       1       0       8       1       1
       0       8       1       1       0       8       1       1       0       8
       1       1       0       8       1       1       0       8       1       1
       0       8       1       1       0       8       1       1       0       8
       1       1       0       8       1       1       0       8       1       1
       0       8       1       1       0       8       1       1       0       8
       1       1       0       8       1       1       0       8       1       1
       0       8       1       1       0       8       1       1       0       8
       1       1       0       8       1       1       0       8       1       1
       0       8       1       1       0       8       1       1       0       8
       1       1       0       8       1       1       0       8       1       1
       0       8       1       1       0       8       1       1       0       8
       1       1       0       8       1       1       0       8       1       1
       0       8       1       1       0       8       1       1       0       8
       1       1       0       8       1       1       0       8       1       1
       0       8       1       1       0       8       1       1       0       8
       1       1       0       8       1       1       0       8       1       1
       0       8       1       1       0       8       1       1       0       8
       1       1       0       8       1       1       0       8       1       1
       0       8       1       1       0       8       1       1       0       8
       1       1       0       8       1       1       0       8       1       1
       0       8       1       1       0       8       1       1       0       8
       1       1       0       8       1       1       0       8       1       1
       0       8       1       1       0       8       1       1       0       8
       1       1       0       8       1       1       0       8       1       1
       0       8       1       1       0       8       1       1       0       8
       1       1       0       8       1       1       0       8       1       1
       0       8       1       1       0       8       1       1       0       8
       1       1       0       8       1       1       0       8       1       1
       0       8       1       1       0       8       1       1       0       8
       1       1       0       8       1       1       0       8       1       1
       0       8       1       1       0       8       1       1       0       8
       1       1       0       8       1       1       0       8       1       1
       0       8       1       1       0       8       1       1       0       8
       1       1       0       8       1       1       0       8       1       1
       0       8       1       1       0       8       1       1       0       8
       1       1       0       8       1       1       0       8       1       1
       0       8       1       1       0       8       1       1       0       8
       1       1       0       8       1       1       0       8       1       1
       0       8       1       1       0       8       1       1       0       8
       1       1       0       8       1       1       0       8       1       1
       0       8       1       1       0       8       1       1       0       8
       1       1       0       8       1       1       0       8       1       1
       0       8       1       1       0       8       1       1       0       8
       1       1       0       8       1       1       0       8       1       1
       0       8       1       1       0       8       1       1       0       8
       1       1       0       8       1       1       0       8       1       1
       0       8       1       1       0       8       1       1       0       8
       1       1       0       8       1       1       0       8       1       1
       0       8       1       1       0       8       1       1       0       8
       1       1       0       8       1       1       0       8       1       1
       0       8       1       1       0       8       1       1       0       8
       1       1       0       8       1       1       0       8       1       1
       0       8       1       1       0       8       1       1       0       8
       1       1       0       8       1       1       0       8       1       1
       0       8       1       1       0       8       1       1       0       8
       1       1       0       8       1       1       0       8       1       1
       0       8       1       1       0       8       1       1       0       8
       1       1       0       8       1       1       0       8       1       1
       0       8       1       1       0       8       1       1       0       8
       1       1       0       8       1       1       0       8       1       1
       0       8       1       1       0       8       1       1       0       8
       1       1       0       8       1       1       0       8       1       1
       0       8       1       1       0       8       1       1       0       8
       1       1       0       8       1       1       0       8       1       1
       0       8       1       1       0       8       1       1       0       8
       1       1       0       8       1       1       0       8       1       1
       0       8       1       1       0       8       1       1       0       8
       1       1       0       8       1       1       0       8       1       1
       0       8       1       1       0       8       1       1       0       8
       1       1       0       8       1       1       0       8       1       1
       0       8       1       1       0       8       1       1       0       8
       1       1       0       8       1       1       0       8       1       1
       0       8       1       1       0       8       1       1       0       8
       1       1       0       8       1       1       0       8       1       1
       0       8       1       1       0       8       1       1       0       8
       1       1       0       8       1       1       0       8       1       1
       0       8       1       1       0       8       1       1       0       8
       1       1       0       8       1       1       0       8       1       1
       0       8       1       1       0       8       1       1       0       8
       1       1       0       8       1       1       0       8       1       1
       0       8       1       1       0       8       1       1       0       8
       1       1       0       8       1       1       0       8       1       1
       0       8       1       1       0       8       1       1       0       8
       1       1       0       8       1       1       0       8       1       1
       0       8       1       1       0       8       1       1       0       8
       1       1       0       8       1       1       0       8       1       1
       0       8       1       1       0       8       1       1       0       8
       1       1       0       8       1       1       0       8       1       1
       0       8       1       1       0       8       1       1       0       8
       1       1       0       8       1       1       0       8       1       1
       0       8       1       1       0       8       1       1       0       8
       1       1       0       8       1       1       0       8       1       1
       0       8       1       1       0       8       1       1       0       8
       1       1       0       8       1       1       0       8       1       1
       0       8       1       1       0       8       1       1       0       8
       1       1       0       8       1       1       0       8       1       1
       0       8       1       1       0       8       1       1       0       8
       1       1       0       8       1       1       0       8       1       1
       0       8       1       1       0       8       1       1       0       8
       1       1       0       8       1       1       0       8       1       1
       0       8       1       1       0       8       1       1       0       8
       1       1       0       8       1       1       0       8       1       1
       0       8       1       1       0       8       1       1       0       8
       1       1       0       8       1       1       0       8       1       1
       0       8       1       1       0       8       1       1       0       8
       1       1       0       8       1       1       0       8       1       1
       0       8       1       1       0       8       1       1       0       8
       1       1       0       8       1       1       0       8       1       1
       0       8       1       1       0       8       1       1       0       8
       1       1       0       8       1       1       0       8       1       1
       0       8       1       1       0       8       1       1       0       8
       1       1       0       8       1       1       0       8       1       1
       0       8       1       1       0       8       1       1       0       8
       1       1       0       8       1       1       0       8       1       1
       0       8       1       1       0       8       1       1       0       8
       1       1       0       8       1       1       0       8       1       1
       0       8       1       1       0       8       1       1       0       8
       1       1       0       8       1       1       0       8       1       1
       0       8       1       1       0       8       1       1       0       8
       1       1       0       8       1       1       0       8       1       1
       0       8       1       1       0       8       1       1       0       8
       1       1       0       8       1       1       0       8       1       1
       0       8       1       1       0       8       1       1       0       8
       1       1       0       8       1       1       0       8       1       1
       0       8       1       1       0       8       1       1       0       8
       1       1       0       8       1       1       0       8       1       1
       0       8       1       1       0       8       1       1       0       8
       1       1       0       8       1       1       0       8       1       1
       0       8       1       1       0       8       1       1       0       8
       1       1       0       8       1       1       0       8       1       1
       0       8       1       1       0       8       1       1       0       8
       1       1       0       8       1       1       0       8       1       1
       0       8       1       1       0       8       1       1       0       8
       1       1       0       8       1       1       0       8       1       1
       0       8       1       1       0       8       1       1       0       8
       1       1       0       8       1       1       0       8       1       1
       0       8       1       1       0       8       1       1       0       8
       1       1       0       8       1       1       0       8       1       1
       0       8       1       1       0       8       1       1       0       8
       1       1       0       8       1       1       0       8       1       1
       0       8       1       1       0       8       1       1       0       8
       1       1       0       8       1       1       0       8       1       1
       0       8       1       1       0       8       1       1       0       8
       1       1       0       8       1       1       0       8       1       1
       0       8       1       1       0       8       1       1       0       8
       1       1       0       8       1       1       0       8       1       1
       0       8       1       1       0       8       1       1       0       8
       1       1       0       8       1       1       0       8       1       1
       0       8       1       1       0       8       1       1       0       8
       1       1       0       8       1       1       0       8       1       1
       0       8       1       1       0       8       1       1       0       8
       1       1       0       8       1       1       0       8       1       1
       0       8       1       1       0       8       1       1       0       8
       1       1       0       8       1       1       0       8       1       1
       0       8       1       1       0       8       1       1       0       8
       1       1       0       8       1       1       0       8       1       1
       0       8       1       1       0       8       1       1       0       8
       1       1       0       8       1       1       0       8       1       1
       0       8       1       1       0       8       1       1       0       8
       1       1       0       8       1       1       0       8       1       1
       0       8       1       1       0       8       1       1       0       8
       1       1       0       8       1       1       0       8       1       1
       0       8       1       1       0       8       1       1       0       8
       1       1       0       8       1       1       0       8       1       1
       0       8       1       1       0       8       1       1       0       8
       1       1       0       8       1       1       0       8       1       1
       0       8       1       1       0       8       1       1       0       8
       1       1       0       8       1       1       0       8       1       1
       0       8       1       1       0       8       1       1       0       8
       1       1       0       8       1       1       0       8       1       1
       0       8       1       1       0       8       1       1       0       8
       1       1       0       8       1       1       0       8       1       1
       0       8       1       1       0       8       1       1       0       8
       1       1       0       8       1       1       0       8       1       1
       0       8       1       1       0       8       1       1       0       8
       1       1       0       8       1       1       0       8       1       1
       0       8       1       1       0       8       1       1       0       8
       1       1       0       8       1       1       0       8       1       1
       0       8       1       1       0       8       1       1       0       8
       1       1       0       8       1       1       0       8       1       1
       0       8       1       1       0       8       1       1       0       8
       1       1       0       8       1       1       0       8       1       1
       0       8       1       1       0       8       1       1       0       8
       1       1       0       8       1       1       0       8       1       1
       0       8       1       1       0       8       1       1       0       8
       1       1       0       8       1       1       0       8       1       1
       0       8       1       1       0       8       1       1       0       8
       1       1       0       8       1       1       0       8       1       1
       0       8       1       1       0       8       1       1       0       8
       1       1       0       8       1       1       0       8       1       1
       0       8       1       1       0       8       1       1       0       8
       1       1       0       8       1       1       0       8       1       1
       0       8       1       1       0       8       1       1       0       8
       1       1       0       8       1       1       0       8       1       1
       0       8       1       1       0       8       1       1       0       8
       1       1       0       8       1       1       0       8       1       1
       0       8       1       1       0       8       1       1       0       8
       1       1       0       8       1       1       0       8       1       1
       0       8       1       1       0       8       1       1       0       8
       1       1       0       8       1       1       0       8       1       1
       0       8       1       1       0       8       1       1       0       8
       1       1       0       8       1       1       0       8       1       1
       0       8       1       1       0       8       1       1       0       8
       1       1       0       8       1       1       0       8       1       1
       0       8       1       1       0       8       1       1       0       8
       1       1       0       8       1       1       0       8       1       1
       0       8       1       1       0       8       1       1       0       8
       1       1       0       8       1       1       0       8       1       1
       0       8       1       1       0       8       1       1       0       8
       1       1       0       8       1       1       0       8       1       1
       0       8       1       1       0       8       1       1       0       8
       1       1       0       8       1       1       0       8       1       1
       0       8       1       1       0       8       1       1       0       8
       1       1       0       8       1       1       0       8       1       1
       0       8       1       1       0       8       1       1       0       8
       1       1       0       8       1       1       0       8       1       1
       0       8       1       1       0       8       1       1       0       8
       1       1       0       8       1       1       0       8       1       1
       0       8       1       1       0       8       1       1       0       8
       1       1       0       8       1       1       0       8       1       1
       0       8       1       1       0       8       1       1       0       8
       1       1       0       8       1       1       0       8       1       1
       0       8       1       1       0       8       1       1       0       8
       1       1       0       8       1       1       0       8       1       1
       0       8       1       1       0       8       1       1       0       8
       1       1       0       8       1       1       0       8       1       1
       0       8       1       1       0       8       1       1       0       8
       1       1       0       8       1       1       0       8       1       1
       0       8       1       1       0       8       1       1       0       8
       1       1       0       8       1       1       0       8       1       1
       0       8       1       1       0       8       1       1       0       8
       1       1       0       8       1       1       0       8       1       1
       0       8       1       1       0       8       1       1       0       8
       1       1       0       8       1       1       0       8       1       1
       0       8       1       1       0       8       1       1       0       8
       1       1       0       8       1       1       0       8       1       1
       0       8       1       1       0       8       1       1       0       8
       1       1       0       8       1       1       0       8       1       1
       0       8       1       1       0       8       1       1       0       8
       1       1       0       8       1       1       0       8       1       1
       0       8       1       1       0       8       1       1       0       8
       1       1       0       8       1       1       0       8       1       1
       0       8       1       1       0       8       1       1       0       8
       1       1       0       8       1       1       0       8       1       1
       0       8       1       1       0       8       1       1       0       8
       1       1       0       8       1       1       0       8       1       1
       0       8       1       1       0       8       1       1       0       8
       1       1       0       8       1       1       0       8       1       1
       0       8       1       1       0       8       1       1       0       8
       1       1       0       8       1       1       0       8       1       1
       0       8       1       1       0       8       1       1       0       8
       1       1       0       8       1       1       0       8       1       1
       0       8       1       1       0       8       1       1       0       8
       1       1       0       8       1       1       0       8       1       1
       0       8       1       1       0       8       1       1       0       8
       1       1       0       8       1       1       0       8       1       1
       0       8       1       1       0       8       1       1       0       8
       1       1       0       8       1       1       0       8       1       1
       0       8       1       1       0       8       1       1       0       8
       1       1       0       8       1       1       0       8       1       1
       0       8       1       1       0       8       1       1       0       8
       1       1       0       8       1       1       0       8       1       1
       0       8       1       1       0       8       1       1       0       8
       1       1       0       8       1       1       0       8       1       1
       0       8       1       1       0       8       1       1       0       8
       1       1       0       8       1       1       0       8       1       1
       0       8       1       1       0       8       1       1       0       8
       1       1       0       8       1       1       0       8       1       1
       0       8       1       1       0       8       1       1       0       8
       1       1       0       8       1       1       0       8       1       1
       0       8       1       1       0       8       1       1       0       8
       1       1       0       8       1       1       0       8       1       1
       0       8       1       1       0       8       1       1       0       8
       1       1       0       8       1       1       0       8       1       1
       0       8       1       1       0       8       1       1       0       8
       1       1       0       8       1       1       0       8       1       1
       0       8       1       1       0       8       1       1       0       8
       1       1       0       8       1       1       0       8       1       1
       0       8       1       1       0       8       1       1       0       8
       1       1       0       8       1       1       0       8       1       1
       0       8       1       1       0       8       1       1       0       8
       1       1       0       8       1       1       0       8       1       1
       0       8       1       1       0       8       1       1       0       8
       1       1       0       8       1       1       0       8       1       1
       0       8       1       1       0       8       1       1       0       8
       1       1       0       8       1       1       0       8       1       1
       0       8       1       1       0       8       1       1       0       8
       1       1       0       8       1       1       0       8       1       1
       0       8       1       1       0       8       1       1       0       8
       1       1       0       8       1       1       0       8       1       1
       0       8       1       1       0       8       1       1       0       8
       1       1       0       8       1       1       0       8       1       1
       0       8       1       1       0       8       1       1       0       8
       1       1       0       8       1       1       0       8       1       1
       0       8       1       1       0       8       1       1       0       8
       1       1       0       8       1       1       0       8       1       1
       0       8       1       1       0       8       1       1       0       8
       1       1       0       8       1       1       0       8       1       1
       0       8       1       1       0       8       1       1       0       8
       1       1       0       8       1       1       0       8       1       1
       0       8       1       1       0       8       1       1       0       8
       1       1       0       8       1       1       0       8       1       1
       0       8       1       1       0       8       1       1       0       8
       1       1       0       8       1       1       0       8       1       1
       0       8       1       1       0       8       1       1       0       8
       1       1       0       8       1       1       0       8       1       1
       0       8       1       1       0       8       1       1       0       8
       1       1       0       8       1       1       0       8       1       1
       0       8       1       1       0       8       1       1       0       8
       1       1       0       8       1       1       0       8       1       1
       0       8       1       1       0       8       1       1       0       8
       1       1       0       8       1       1       0       8       1       1
       0       8       1       1       0       8       1       1       0       8
       1       1       0       8       1       1       0       8       1       1
       0       8       1       1       0       8       1       1       0       8
       1       1       0       8       1       1       0       8       1       1
       0       8       1       1       0       8       1       1       0       8
       1       1       0       8       1       1       0       8       1       1
       0       8       1       1       0       8       1       1       0       8
       1       1       0       8       1       1       0       8       1       1
       0       8       1       1       0       8       1       1       0       8
       1       1       0       8       1       1       0       8       1       1
       0       8       1       1       0       8       1       1       0       8
       1       1       0       8       1       1       0       8       1       1
       0       8       1       1       0       8       1       1       0       8
       1       1       0       8       1       1       0       8       1       1
       0       8       1       1       0       8       1       1       0       8
       1       1       0       8       1       1       0       8       1       1
       0       8       1       1       0       8       1       1       0       8
       1       1       0       8       1       1       0       8       1       1
       0       8       1       1       0       8       1       1       0       8
       1       1       0       8       1       1       0       8       1       1
       0       8       1       1       0       8       1       1       0       8
       1       1       0       8       1       1       0       8       1       1
       0       8       1       1       0       8       1       1       0       8
       1       1       0       8       1       1       0       8       1       1
       0       8       1       1       0       8       1       1       0       8
       1       1       0       8       1       1       0       8       1       1
       0       8       1       1       0       8       1       1       0       8
       1       1       0       8       1       1       0       8       1       1
       0       8       1       1       0       8       1       1       0       8
       1       1       0       8       1       1       0       8       1       1
       0       8       1       1       0       8       1       1       0       8
       1       1       0       8       1       1       0       8       1       1
       0       8       1       1       0       8       1       1       0       8
       1       1       0       8       1       1       0       8       1       1
       0       8       1       1       0       8       1       1       0       8
       1       1       0       8       1       1       0       8       1       1
       0       8       1       1       0       8       1       1       0       8
       1       1       0       8       1       1       0       8       1       1
       0       8       1       1       0       8       1       1       0       8
       1       1       0       8       1       1       0       8       1       1
       0       8       1       1       0       8       1       1       0       8
       1       1       0       8       1       1       0       8       1       1
       0       8       1       1       0       8       1       1       0       8
       1       1       0       8       1       1       0       8       1       1
       0       8       1       1       0       8       1       1       0       8
       1       1       0       8       1       1       0       8       1       1
       0       8       1       1       0       8       1       1       0       8
       1       1       0       8       1       1       0       8       1       1
       0       8       1       1       0       8       1       1       0       8
       1       1       0       8       1       1       0       8       1       1
       0       8       1       1       0       8       1       1       0       8
       1       1       0       8       1       1       0       8       1       1
       0       8       1       1       0       8       1       1       0       8
       1       1       0       8       1       1       0       8       1       1
       0       8       1       1       0       8       1       1       0       8
       1       1       0       8       1       1       0       8       1       1
       0       8       1       1       0       8       1       1       0       8
       1       1       0       8       1       1       0       8       1       1
       0       8       1       1       0       8       1       1       0       8
       1       1       0       8       1       1       0       8       1       1
       0       8       1       1       0       8       1       1       0       8
       1       1       0       8       1       1       0       8       1       1
       0       8       1       1       0       8       1       1       0       8
       1       1       0       8       1       1       0       8       1       1
       0       8       1       1       0       8       1       1       0       8
       1       1       0       8       1       1       0       8       1       1
       0       8       1       1       0       8       1       1       0       8
       1       1       0       8       1       1       0       8       1       1
       0       8       1       1       0       8       1       1       0       8
       1       1       0       8       1       1       0       8       1       1
       0       8       1       1       0       8       1       1       0       8
       1       1       0       8       1       1       0       8       1       1
       0       8       1       1       0       8       1       1       0       8
       1       1       0       8       1       1       0       8       1       1
       0       8       1       1       0       8       1       1       0       8
       1       1       0       8       1       1       0       8       1       1
       0       8       1       1       0       8       1       1       0       8
       1       1       0       8       1       1       0       8       1       1
       0       8       1       1       0       8       1       1       0       8
       1       1       0       8       1       1       0       8       1       1
       0       8       1       1       0       8       1       1       0       8
       1       1       0       8       1       1       0       8       1       1
       0       8       1       1       0       8       1       1       0       8
       1       1       0       8       1       1       0       8       1       1
       0       8       1       1       0       8       1       1       0       8
       1       1       0       8       1       1       0       8       1       1
       0       8       1       1       0       8       1       1       0       8
       1       1       0       8       1       1       0       8       1       1
       0       8       1       1       0       8       1       1       0       8
       1       1       0       8       1       1       0       8       1       1
       0       8       1       1       0       8       1       1       0       8
       1       1       0       8       1       1       0       8       1       1
       0       8       1       1       0       8       1       1       0       8
       1       1       0       8       1       1       0       8       1       1
       0       8       1       1       0       8       1       1       0       8
       1       1       0       8       1       1       0       8       1       1
       0       8       1       1       0       8       1       1       0       8
       1       1       0       8       1       1       0       8       1       1
       0       8       1       1       0       8       1       1       0       8
       1       1       0       8       1       1       0       8       1       1
       0       8       1       1       0       8       1       1       0       8
       1       1       0       8       1       1       0       8       1       1
       0       8       1       1       0       8       1       1       0       8
       1       1       0       8       1       1       0       8       1       1
       0       8       1       1       0       8       1       1       0       8
       1       1       0       8       1       1       0       8       1       1
       0       8       1       1       0       8       1       1       0       8
       1       1       0       8       1       1       0       8       1       1
       0       8       1       1       0       8       1       1       0       8
       1       1       0       8       1       1       0       8       1       1
       0       8       1       1       0       8       1       1       0       8
       1       1       0       8       1       1       0       8       1       1
       0       8       1       1       0       8       1       1       0       8
       1       1       0       8       1       1       0       8       1       1
       0       8       1       1       0       8       1       1       0       8
       1       1       0       8       1       1       0       8       1       1
       0       8       1       1       0       8       1       1       0       8
       1       1       0       8       1       1       0       8       1       1
       0       8       1       1       0       8       1       1       0       8
       1       1       0       8       1       1       0       8       1       1
       0       8       1       1       0       8       1       1       0       8
       1       1       0       8       1       1       0       8       1       1
       0       8       1       1       0       8       1       1       0       8
       1       1       0       8       1       1       0       8       1       1
       0       8       1       1       0       8       1       1       0       8
       1       1       0       8       1       1       0       8       1       1
       0       8       1       1       0       8       1       1       0       8
       1       1       0       8       1       1       0       8       1       1
       0       8       1       1       0       8       1       1       0       8
       1       1       0       8       1       1       0       8       1       1
       0       8       1       1       0       8       1       1       0       8
       1       1       0       8       1       1       0       8       1       1
       0       8       1       1       0       8       1       1       0       8
       1       1       0       8       1       1       0       8       1       1
       0       8       1       1       0       8       1       1       0       8
       1       1       0       8       1       1       0       8       1       1
       0       8       1       1       0       8       1       1       0       8
       1       1       0       8       1       1       0       8       1       1
       0       8       1       1       0       8       1       1       0       8
       1       1       0       8       1       1       0       8       1       1
       0       8       1       1       0       8       1       1       0       8
       1       1       0       8       1       1       0       8       1       1
       0       8       1       1       0       8       1       1       0       8
       1       1       0       8       1       1       0       8       1       1
       0       8       1       1       0       8       1       1       0       8
       1       1       0       8       1       1       0       8       1       1
       0       8       1       1       0       8       1       1       0       8
       1       1       0       8       1       1       0       8       1       1
       0       8       1       1       0       8       1       1       0       8
       1       1       0       8       1       1       0       8       1       1
       0       8       1       1       0       8       1       1       0       8
       1       1       0       8       1       1       0       8       1       1
       0       8       1       1       0       8       1       1       0       8
       1       1       0       8       1       1       0       8       1       1
       0       8       1       1       0       8       1       1       0       8
       1       1       0       8       1       1       0       8       1       1
       0       8       1       1       0       8       1       1       0       8
       1       1       0       8       1       1       0       8       1       1
       0       8       1       1       0       8       1       1       0       8
       1       1       0       8       1       1       0       8       1       1
       0       8       1       1       0       8       1       1       0       8
       1       1       0       8       1       1       0       8       1       1
       0       8       1       1       0       8       1       1       0       8
       1       1       0       8       1       1       0       8       1       1
       0       8       1       1       0       8       1       1       0       8
       1       1       0       8       1       1       0       8       1       1
       0       8       1       1       0       8       1       1       0       8
       1       1       0       8       1       1       0       8       1       1
       0       8       1       1       0       8       1       1       0       8
       1       1       0       8       1       1       0       8       1       1
       0       8       1       1       0       8       1       1       0       8
       1       1       0       8       1       1       0       8       1       1
       0       8       1       1       0       8       1       1       0       8
       1       1       0       8       1       1       0       8       1       1
       0       8       1       1       0       8       1       1       0       8
       1       1       0       8       1       1       0       8       1       1
       0       8       1       1       0       8       1       1       0       8
       1       1       0       8       1       1       0       8       1       1
       0       8       1       1       0       8       1       1       0       8
       1       1       0       8       1       1       0       8       1       1
       0       8       1       1       0       8       1       1       0       8
       1       1       0       8       1       1       0       8       1       1
       0       8       1       1       0       8       1       1       0       8
       1       1       0       8       1       1       0       8       1       1
       0       8       1       1       0       8       1       1       0       8
       1       1       0       8       1       1       0       8       1       1
       0       8       1       1       0       8       1       1       0       8
       1       1       0       8       1       1       0       8       1       1
       0       8       1       1       0       8       1       1       0       8
       1       1       0       8       1       1       0       8       1       1
       0       8       1       1       0       8       1       1       0       8
       1       1       0       8       1       1       0       8       1       1
       0       8       1       1       0       8       1       1       0       8
       1       1       0       8       1       1       0       8       1       1
       0       8       1       1       0       8       1       1       0       8
       1       1       0       8       1       1       0       8       1       1
       0       8       1       1       0       8       1       1       0       8
       1       1       0       8       1       1       0       8       1       1
       0       8       1       1       0       8       1       1       0       8
       1       1       0       8       1       1       0       8       1       1
       0       8       1       1       0       8       1       1       0       8
       1       1       0       8       1       1       0       8       1       1
       0       8       1       1       0       8       1       1       0       8
       1       1       0       8       1       1       0       8       1       1
       0       8       1       1       0       8       1       1       0       8
       1       1       0       8       1       1       0       8       1       1
       0       8       1       1       0       8       1       1       0       8
       1       1       0       8       1       1       0       8       1       1
       0       8       1       1       0       8       1       1       0       8
       1       1       0       8       1       1       0       8       1       1
       0       8       1       1       0       8       1       1       0       8
       1       1       0       8       1       1       0       8       1       1
       0       8       1       1       0       8       1       1       0       8
       1       1       0       8       1       1       0       8       1       1
       0       8       1       1       0       8       1       1       0       8
       1       1       0       8       1       1       0       8       1       1
       0       8       1       1       0       8       1       1       0       8
       1       1       0       8       1       1       0       8       1       1
       0       8       1       1       0       8       1       1       0       8
       1       1       0       8       1       1       0       8       1       1
       0       8       1       1       0       8       1       1       0       8
       1       1       0       8       1       1       0       8       1       1
       0       8       1       1       0       8       1       1       0       8
       1       1       0       8       1       1       0       8       1       1
       0       8       1       1       0       8       1       1       0       8
       1       1       0       8       1       1       0       8       1       1
       0       8       1       1       0       8       1       1       0       8
       1       1       0       8       1       1       0       8       1       1
       0       8       1       1       0       8       1       1       0       8
       1       1       0       8       1       1       0       8       1       1
       0       8       1       1       0       8       1       1       0       8
       1       1       0       8       1       1       0       8       1       1
       0       8       1       1       0       8       1       1       0       8
       1       1       0       8       1       1       0       8       1       1
       0       8       1       1       0       8       1       1       0       8
       1       1       0       8       1       1       0       8       1       1
       0       8       1       1       0       8       1       1       0       8
       1       1       0       8       1       1       0       8       1       1
       0       8       1       1       0       8       1       1       0       8
       1       1       0       8       1       1       0       8       1       1
       0       8       1       1       0       8       1       1       0       8
       1       1       0       8       1       1       0       8       1       1
       0       8       1       1       0       8       1       1       0       8
       1       1       0       8       1       1       0       8       1       1
       0       8       1       1       0       8       1       1       0       8
       1       1       0       8       1       1       0       8       1       1
       0       8       1       1       0       8       1       1       0       8
       1       1       0       8       1       1       0       8       1       1
       0       8       1       1       0       8       1       1       0       8
       1       1       0       8       1       1       0       8       1       1
       0       8       1       1       0       8       1       1       0       8
       1       1       0       8       1       1       0       8       1       1
       0       8       1       1       0       8       1       1       0       8
       1       1       0       8       1       1       0       8       1       1
       0       8       1       1       0       8       1       1       0       8
       1       1       0       8       1       1       0       8       1       1
       0       8       1       1       0       8       1       1       0       8
       1       1       0       8       1       1       0       8       1       1
       0       8       1       1       0       8       1       1       0       8
       1       1       0       8       1       1       0       8       1       1
       0       8       1       1       0       8       1       1       0       8
       1       1       0       8       1       1       0       8       1       1
       0       8       1       1       0       8       1       1       0       8
       1       1       0       8       1       1       0       8       1       1
       0       8       1       1       0       8       1       1       0       8
       1       1       0       8       1       1       0       8       1       1
       0       8       1       1       0       8       1       1       0       8
       1       1       0       8       1       1       0       8       1       1
       0       8       1       1       0       8       1       1       0       8
       1       1       0       8       1       1       0       8       1       1
       0       8       1       1       0       8       1       1       0       8
       1       1       0       8       1       1       0       8       1       1
       0       8       1       1       0       8       1       1       0       8
       1       1       0       8       1       1       0       8       1       1
       0       8       1       1       0       8       1       1       0       8
       1       1       0       8       1       1       0       8       1       1
       0       8       1       1       0       8       1       1       0       8
       1       1       0       8       1       1       0       8       1       1
       0       8       1       1       0       8       1       1       0       8
       1       1       0       8       1       1       0       8       1       1
       0       8       1       1       0       8       1       1       0       8
       1       1       0       8       1       1       0       8       1       1
       0       8       1       1       0       8       1       1       0       8
       1       1       0       8       1       1       0       8       1       1
       0       8       1       1       0       8       1       1       0       8
       1       1       0       8       1       1       0       8       1       1
       0       8       1       1       0       8       1       1       0       8
       1       1       0       8       1       1       0       8       1       1
       0       8       1       1       0       8       1       1       0       8
       1       1       0       8       1       1       0       8       1       1
       0       8       1       1       0       8       1       1       0       8
       1       1       0       8       1       1       0       8       1       1
       0       8       1       1       0       8       1       1       0       8
       1       1       0       8       1       1       0       8       1       1
       0       8       1       1       0       8       1       1       0       8
       1       1       0       8       1       1       0       8       1       1
       0       8       1       1       0       8       1       1       0       8
       1       1       0       8       1       1       0       8       1       1
       0       8       1       1       0       8       1       1       0       8
       1       1       0       8       1       1       0       8       1       1
       0       8       1       1       0       8       1       1       0       8
       1       1       0       8       1       1       0       8       1       1
       0       8       1       1       0       8       1       1       0       8
       1       1       0       8       1       1       0       8       1       1
       0       8       1       1       0       8       1       1       0       8
       1       1       0       8       1       1       0       8       1       1
       0       8       1       1       0       8       1       1       0       8
       1       1       0       8       1       1       0       8       1       1
       0       8       1       1       0       8       1       1       0       8
       1       1       0       8       1       1       0       8       1       1
       0       8       1       1       0       8       1       1       0       8
       1       1       0       8       1       1       0       8       1       1
       0       8       1       1       0       8       1       1       0       8
       1       1       0       8       1       1       0       8       1       1
       0       8       1       1       0       8       1       1       0       8
       1       1       0       8       1       1       0       8       1       1
       0       8       1       1       0       8       1       1       0       8
       1       1       0       8       1       1       0       8       1       1
       0       8       1       1       0       8       1       1       0       8
       1       1       0       8       1       1       0       8       1       1
       0       8       1       1       0       8       1       1       0       8
       1       1       0       8       1       1       0       8       1       1
       0       8       1       1       0       8       1       1       0       8
       1       1       0       8       1       1       0       8       1       1
       0       8       1       1       0       8       1       1       0       8
       1       1       0       8       1       1       0       8       1       1
       0       8       1       1       0       8       1       1       0       8
       1       1       0       8       1       1       0       8       1       1
       0       8       1       1       0       8       1       1       0       8
       1       1       0       8       1       1       0       8       1       1
       0       8       1       1       0       8       1       1       0       8
       1       1       0       8       1       1       0       8       1       1
       0       8       1       1       0       8       1       1       0       8
       1       1       0       8       1       1       0       8       1       1
       0       8       1       1       0       8       1       1       0       8
       1       1       0       8       1       1       0       8       1       1
       0       8       1       1       0       8       1       1       0       8
       1       1       0       8       1       1       0       8       1       1
       0       8       1       1       0       8       1       1       0       8
       1       1       0       8       1       1       0       8       1       1
       0       8       1       1       0       8       1       1       0       8
       1       1       0       8       1       1       0       8       1       1
       0       8       1       1       0       8       1       1       0       8
       1       1       0       8       1       1       0       8       1       1
       0       8       1       1       0       8       1       1       0       8
       1       1       0       8       1       1       0       8       1       1
       0       8       1       1       0       8       1       1       0       8
       1       1       0       8       1       1       0       8       1       1
       0       8       1       1       0       8       1       1       0       8
       1       1       0       8       1       1       0       8       1       1
       0       8       1       1       0       8       1       1       0       8
       1       1       0       8       1       1       0       8       1       1
       0       8       1       1       0       8       1       1       0       8
       1       1       0       8       1       1       0       8       1       1
       0       8       1       1       0       8       1       1       0       8
       1       1       0       8       1       1       0       8       1       1
       0       8       1       1       0       8       1       1       0       8
       1       1       0       8       1       1       0       8       1       1
       0       8       1       1       0       8       1       1       0       8
       1       1       0       8       1       1       0       8       1       1
       0       8       1       1       0       8       1       1       0       8
       1       1       0       8       1       1       0       8       1       1
       0       8       1       1       0       8       1       1       0       8
       1       1       0       8       1       1       0       8       1       1
       0       8       1       1       0       8       1       1       0       8
       1       1       0       8       1       1       0       8       1       1
       0       8       1       1       0       8       1       1       0       8
       1       1       0       8       1       1       0       8       1       1
       0       8       1       1       0       8       1       1       0       8
       1       1       0       8       1       1       0       8       1       1
       0       8       1       1       0       8       1       1       0       8
       1       1       0       8       1       1       0       8       1       1
       0       8       1       1       0       8       1       1       0       8
       1       1       0       8       1       1       0       8       1       1
       0       8       1       1       0       8       1       1       0       8
       1       1       0       8       1       1       0       8       1       1
       0       8       1       1       0       8       1       1       0       8
       1       1       0       8       1       1       0       8       1       1
       0       8       1       1       0       8       1       1       0       8
       1       1       0       8       1       1       0       8       1       1
       0       8       1       1       0       8       1       1       0       8
       1       1       0       8       1       1       0       8       1       1
       0       8       1       1       0       8       1       1       0       8
       1       1       0       8       1       1       0       8       1       1
       0       8       1       1       0       8       1       1       0       8
       1       1       0       8       1       1       0       8       1       1
       0       8       1       1       0       8       1       1       0       8
       1       1       0       8       1       1       0       8       1       1
       0       8       1       1       0       8       1       1       0       8
       1       1       0       8       1       1       0       8       1       1
       0       8       1       1       0       8       1       1       0       8
       1       1       0       8       1       1       0       8       1       1
       0       8       1       1       0       8       1       1       0       8
       1       1       0       8       1       1       0       8       1       1
       0       8       1       1       0       8       1       1       0       8
       1       1       0       8       1       1       0       8       1       1
       0       8       1       1       0       8       1       1       0       8
       1       1       0       8       1       1       0       8       1       1
       0       8       1       1       0       8       1       1       0       8
       1       1       0       8       1       1       0       8       1       1
       0       8       1       1       0       8       1       1       0       8
       1       1       0       8       1       1       0       8       1       1
       0       8       1       1       0       8       1       1       0       8
       1       1       0       8       1       1       0       8       1       1
       0       8       1       1       0       8       1       1       0       8
       1       1       0       8       1       1       0       8       1       1
       0       8       1       1       0       8       1       1       0       8
       1       1       0       8       1       1       0       8       1       1
       0       8       1       1       0       8       1       1       0       8
       1       1       0       8       1       1       0       8       1       1
       0       8       1       1       0       8       1       1       0       8
       1       1       0       8       1       1       0       8       1       1
       0       8       1       1       0       8       1       1       0       8
       1       1       0       8       1       1       0       8       1       1
       0       8       1       1       0       8       1       1       0       8
       1       1       0       8       1       1       0       8       1       1
       0       8       1       1       0       8       1       1       0       8
       1       1       0       8       1       1       0       8       1       1
       0       8       1       1       0       8       1       1       0       8
       1       1       0       8       1       1       0       8       1       1
       0       8       1       1       0       8       1       1       0       8
       1       1       0       8       1       1       0       8       1       1
       0       8       1       1       0       8       1       1       0       8
       1       1       0       8       1       1       0       8       1       1
       0       8       1       1       0       8       1       1       0       8
       1       1       0       8       1       1       0       8       1       1
       0       8       1       1       0       8       1       1       0       8
       1       1       0       8       1       1       0       8       1       1
       0       8       1       1       0       8       1       1       0       8
       1       1       0       8       1       1       0       8       1       1
       0       8       1       1       0       8       1       1       0       8
       1       1       0       8       1       1       0       8       1       1
       0       8       1       1       0       8       1       1       0       8
       1       1       0       8       1       1       0       8       1       1
       0       8       1       1       0       8       1       1       0       8
       1       1       0       8       1       1       0       8       1       1
       0       8       1       1       0       8       1       1       0       8
       1       1       0       8       1       1       0       8       1       1
       0       8       1       1       0       8       1       1       0       8
       1       1       0       8       1       1       0       8       1       1
       0       8       1       1       0       8       1       1       0       8
       1       1       0       8       1       1       0       8       1       1
       0       8       1       1       0       8       1       1       0       8
       1       1       0       8       1       1       0       8       1       1
       0       8       1       1       0       8       1       1       0       8
       1       1       0       8       1       1       0       8       1       1
       0       8       1       1       0       8       1       1       0       8
       1       1       0       8       1       1       0       8       1       1
       0       8       1       1       0       8       1       1       0       8
       1       1       0       8       1       1       0       8       1       1
       0       8       1       1       0       8       1       1       0       8
       1       1       0       8       1       1       0       8       1       1
       0       8       1       1       0       8       1       1       0       8
       1       1       0       8       1       1       0       8       1       1
       0       8       1       1       0       8       1       1       0       8
       1       1       0       8       1       1       0       8       1       1
       0       8       1       1       0       8       1       1       0       8
       1       1       0       8       1       1       0       8       1       1
       0       8       1       1       0       8       1       1       0       8
       1       1       0       8       1       1       0       8       1       1
       0       8       1       1       0       8       1       1       0       8
       1       1       0       8       1       1       0       8       1       1
       0       8       1       1       0       8       1       1       0       8
       1       1       0       8       1       1       0       8       1       1
       0       8       1       1       0       8       1       1       0       8
       1       1       0       8       1       1       0       8       1       1
       0       8       1       1       0       8       1       1       0       8
       1       1       0       8       1       1       0       8       1       1
       0       8       1       1       0       8       1       1       0       8
       1       1       0       8       1       1       0       8       1       1
       0       8       1       1       0       8       1       1       0       8
       1       1       0       8       1       1       0       8       1       1
       0       8       1       1       0       8       1       1       0       8
       1       1       0       8       1       1       0       8       1       1
       0       8       1       1       0       8       1       1       0       8
       1       1       0       8       1       1       0       8       1       1
       0       8       1       1       0       8       1       1       0       8
       1       1       0       8       1       1       0       8       1       1
       0       8       1       1       0       8       1       1       0       8
       1       1       0       8       1       1       0       8       1       1
       0       8       1       1       0       8       1       1       0       8
       1       1       0       8       1       1       0       8       1       1
       0       8       1       1       0       8       1       1       0       8
       1       1       0       8       1       1       0       8       1       1
       0       8       1       1       0       8       1       1       0       8
       1       1       0       8       1       1       0       8       1       1
       0       8       1       1       0       8       1       1       0       8
       1       1       0       8       1       1       0       8       1       1
       0       8       1       1       0       8       1       1       0       8
       1       1       0       8       1       1       0       8       1       1
       0       8       1       1       0       8       1       1       0       8
       1       1       0       8       1       1       0       8       1       1
       0       8       1       1       0       8       1       1       0       8
       1       1       0       8       1       1       0       8       1       1
       0       8       1       1       0       8       1       1       0       8
       1       1       0       8       1       1       0       8       1       1
       0       8       1       1       0       8       1       1       0       8
       1       1       0       8       1       1       0       8       1       1
       0       8       1       1       0       8       1       1       0       8
       1       1       0       8       1       1       0       8       1       1
       0       8       1       1       0       8       1       1       0       8
       1       1       0       8       1       1       0       8       1       1
       0       8       1       1       0       8       1       1       0       8
       1       1       0       8       1       1       0       8       1       1
       0       8       1       1       0       8       1       1       0       8
       1       1       0       8       1       1       0       8       1       1
       0       8       1       1       0       8       1       1       0       8
       1       1       0       8       1       1       0       8       1       1
       0       8       1       1       0       8       1       1       0       8
       1       1       0       8       1       1       0       8       1       1
       0       8       1       1       0       8       1       1       0       8
       1       1       0       8       1       1       0       8       1       1
       0       8       1       1       0       8       1       1       0       8
       1       1       0       8       1       1       0       8       1       1
       0       8       1       1       0       8       1       1       0       8
       1       1       0       8       1       1       0       8       1       1
       0       8       1       1       0       8       1       1       0       8
       1       1       0       8       1       1       0       8       1       1
       0       8       1       1       0       8       1       1       0       8
       1       1       0       8       1       1       0       8       1       1
       0       8       1       1       0       8       1       1       0       8
       1       1       0       8       1       1       0       8       1       1
       0       8       1       1       0       8       1       1       0       8
       1       1       0       8       1       1       0       8       1       1
       0       8       1       1       0       8       1       1       0       8
       1       1       0       8       1       1       0       8       1       1
       0       8       1       1       0       8       1       1       0       8
       1       1       0       8       1       1       0       8       1       1
       0       8       1       1       0       8       1       1       0       8
       1       1       0       8       1       1       0       8       1       1
       0       8       1       1       0       8       1       1       0       8
       1       1       0       8       1       1       0       8       1       1
       0       8       1       1       0       8       1       1       0       8
       1       1       0       8       1       1       0       8       1       1
       0       8       1       1       0       8       1       1       0       8
       1       1       0       8       1       1       0       8       1       1
       0       8       1       1       0       8       1       1       0       8
       1       1       0       8       1       1       0       8       1       1
       0       8       1       1       0       8       1       1       0       8
       1       1       0       8       1       1       0       8       1       1
       0       8       1       1       0       8       1       1       0       8
       1       1       0       8       1       1       0       8       1       1
       0       8       1       1       0       8       1       1       0       8
       1       1       0       8       1       1       0       8       1       1
       0       8       1       1       0       8       1       1       0       8
       1       1       0       8       1       1       0       8       1       1
       0       8       1       1       0       8       1       1       0       8
       1       1       0       8       1       1       0       8       1       1
       0       8       1       1       0       8       1       1       0       8
       1       1       0       8       1       1       0       8       1       1
       0       8       1       1       0       8       1       1       0       8
       1       1       0       8       1       1       0       8       1       1
       0       8       1       1       0       8       1       1       0       8
       1       1       0       8       1       1       0       8       1       1
       0       8       1       1       0       8       1       1       0       8
       1       1       0       8       1       1       0       8       1       1
       0       8       1       1       0       8       1       1       0       8
       1       1       0       8       1       1       0       8       1       1
       0       8       1       1       0       8       1       1       0       8
       1       1       0       8       1       1       0       8       1       1
       0       8       1       1       0       8       1       1       0       8
       1       1       0       8       1       1       0       8       1       1
       0       8       1       1       0       8       1       1       0       8
       1       1       0       8       1       1       0       8       1       1
       0       8       1       1       0       8       1       1       0       8
       1       1       0       8       1       1       0       8       1       1
       0       8       1       1       0       8       1       1       0       8
       1       1       0       8       1       1       0       8       1       1
       0       8       1       1       0       8       1       1       0       8
       1       1       0       8       1       1       0       8       1       1
       0       8       1       1       0       8       1       1       0       8
       1       1       0       8       1       1       0       8       1       1
       0       8       1       1       0       8       1       1       0       8
       1       1       0       8       1       1       0       8       1       1
       0       8       1       1       0       8       1       1       0       8
       1       1       0       8       1       1       0       8       1       1
       0       8       1       1       0       8       1       1       0       8
       1       1       0       8       1       1       0       8       1       1
       0       8       1       1       0       8       1       1       0       8
       1       1       0       8       1       1       0       8       1       1
       0       8       1       1       0       8       1       1       0       8
       1       1       0       8       1       1       0       8       1       1
       0       8       1       1       0       8       1       1       0       8
       1       1       0       8       1       1       0       8       1       1
       0       8       1       1       0       8       1       1       0       8
       1       1       0       8       1       1       0       8       1       1
       0       8       1       1       0       8       1       1       0       8
       1       1       0       8       1       1       0       8       1       1
       0       8       1       1       0       8       1       1       0       8
       1       1       0       8       1       1       0       8       1       1
       0       8       1       1       0       8       1       1       0       8
       1       1       0       8       1       1       0       8       1       1
       0       8       1       1       0       8       1       1       0       8
       1       1       0       8       1       1       0       8       1       1
       0       8       1       1       0       8       1       1       0       8
       1       1       0       8       1       1       0       8       1       1
       0       8       1       1       0       8       1       1       0       8
       1       1       0       8       1       1       0       8       1       1
       0       8       1       1       0       8       1       1       0       8
       1       1       0       8       1       1       0       8       1       1
       0       8       1       1       0       8       1       1       0       8
       1       1       0       8       1       1       0       8       1       1
       0       8       1       1       0       8       1       1       0       8
       1       1       0       8       1       1       0       8       1       1
       0       8       1       1       0       8       1       1       0       8
       1       1       0       8       1       1       0       8       1       1
       0       8       1       1       0       8       1       1       0       8
       1       1       0       8       1       1       0       8       1       1
       0       8       1       1       0       8       1       1       0       8
       1       1       0       8       1       1       0       8       1       1
       0       8       1       1       0       8       1       1       0       8
       1       1       0       8       1       1       0       8       1       1
       0       8       1       1       0       8       1       1       0       8
       1       1       0       8       1       1       0       8       1       1
       0       8       1       1       0       8       1       1       0       8
       1       1       0       8       1       1       0       8       1       1
       0       8       1       1       0       8       1       1       0       8
       1       1       0       8       1       1       0       8       1       1
       0       8       1       1       0       8       1       1       0       8
       1       1       0       8       1       1       0       8       1       1
       0       8       1       1       0       8       1       1       0       8
       1       1       0       8       1       1       0       8       1       1
       0       8       1       1       0       8       1       1       0       8
       1       1       0       8       1       1       0       8       1       1
       0       8       1       1       0       8       1       1       0       8
       1       1       0       8       1       1       0       8       1       1
       0       8       1       1       0       8       1       1       0       8
       1       1       0       8       1       1       0       8       1       1
       0       8       1       1       0       8       1       1       0       8
       1       1       0       8       1       1       0       8       1       1
       0       8       1       1       0       8       1       1       0       8
       1       1       0       8       1       1       0       8       1       1
       0       8       1       1       0       8       1       1       0       8
       1       1       0       8       1       1       0       8       1       1
       0       8       1       1       0       8       1       1       0       8
       1       1       0       8       1       1       0       8       1       1
       0       8       1       1       0       8       1       1       0       8
       1       1       0       8       1       1       0       8       1       1
       0       8       1       1       0       8       1       1       0       8
       1       1       0       8       1       1       0       8       1       1
       0       8       1       1       0       8       1       1       0       8
       1       1       0       8       1       1       0       8       1       1
       0       8       1       1       0       8       1       1       0       8
       1       1       0       8       1       1       0       8       1       1
       0       8       1       1       0       8       1       1       0       8
       1       1       0       8       1       1       0       8       1       1
       0       8       1       1       0       8       1       1       0       8
       1       1       0       8       1       1       0       8       1       1
       0       8       1       1       0       8       1       1       0       8
       1       1       0       8       1       1       0       8       1       1
       0       8       1       1       0       8       1       1       0       8
       1       1       0       8       1       1       0       8       1       1
       0       8       1       1       0       8       1       1       0       8
       1       1       0       8       1       1       0       8       1       1
       0       8       1       1       0       8       1       1       0       8
       1       1       0       8       1       1       0       8       1       1
       0       8       1       1       0       8       1       1       0       8
       1       1       0       8       1       1       0       8       1       1
       0       8       1       1       0       8       1       1       0       8
       1       1       0       8       1       1       0       8       1       1
       0       8       1       1       0       8       1       1       0       8
       1       1       0       8       1       1       0       8       1       1
       0       8       1       1       0       8       1       1       0       8
       1       1       0       8       1       1       0       8       1       1
       0       8       1       1       0       8       1       1       0       8
       1       1       0       8       1       1       0       8       1       1
       0       8       1       1       0       8       1       1       0       8
       1       1       0       8       1       1       0       8       1       1
       0       8       1       1       0       8       1       1       0       8
       1       1       0       8       1       1       0       8       1       1
       0       8       1       1       0       8       1       1       0       8
       1       1       0       8       1       1       0       8       1       1
       0       8       1       1       0       8       1       1       0       8
       1       1       0       8       1       1       0       8       1       1
       0       8       1       1       0       8       1       1       0       8
       1       1       0       8       1       1       0       8       1       1
       0       8       1       1       0       8       1       1       0       8
       1       1       0       8       1       1       0       8       1       1
       0       8       1       1       0       8       1       1       0       8
       1       1       0       8       1       1       0       8       1       1
       0       8       1       1       0       8       1       1       0       8
       1       1       0       8       1       1       0       8       1       1
       0       8       1       1       0       8       1       1       0       8
       1       1       0       8       1       1       0       8       1       1
       0       8       1       1       0       8       1       1       0       8
       1       1       0       8       1       1       0       8       1       1
       0       8       1       1       0       8       1       1       0       8
       1       1       0       8       1       1       0       8       1       1
       0       8       1       1       0       8       1       1       0       8
       1       1       0       8       1       1       0       8       1       1
       0       8       1       1       0       8       1       1       0       8
       1       1       0       8       1       1       0       8       1       1
       0       8       1       1       0       8       1       1       0       8
       1       1       0       8       1       1       0       8       1       1
       0       8       1       1       0       8       1       1       0       8
       1       1       0       8       1       1       0       8       1       1
       0       8       1       1       0       8       1       1       0       8
       1       1       0       8       1       1       0       8       1       1
       0       8       1       1       0       8       1       1       0       8
       1       1       0       8       1       1       0       8       1       1
       0       8       1       1       0       8       1       1       0       8
       1       1       0       8       1       1       0       8       1       1
       0       8       1       1       0       8       1       1       0       8
       1       1       0       8       1       1       0       8       1       1
       0       8       1       1       0       8       1       1       0       8
       1       1       0       8       1       1       0       8       1       1
       0       8       1       1       0       8       1       1       0       8
       1       1       0       8       1       1       0       8       1       1
       0       8       1       1       0       8       1       1       0       8
       1       1       0       8       1       1       0       8       1       1
       0       8       1       1       0       8       1       1       0       8
       1       1       0       8       1       1       0       8       1       1
       0       8       1       1       0       8       1       1       0       8
       1       1       0       8       1       1       0       8       1       1
       0       8       1       1       0       8       1       1       0       8
       1       1       0       8       1       1       0       8       1       1
       0       8       1       1       0       8       1       1       0       8
       1       1       0       8       1       1       0       8       1       1
       0       8       1       1       0       8       1       1       0       8
       1       1       0       8       1       1       0       8       1       1
       0       8       1       1       0       8       1       1       0       8
       1       1       0       8       1       1       0       8       1       1
       0       8       1       1       0       8       1       1       0       8
       1       1       0       8       1       1       0       8       1       1
       0       8       1       1       0       8       1       1       0       8
       1       1       0       8       1       1       0       8       1       1
       0       8       1       1       0       8       1       1       0       8
       1       1       0       8       1       1       0       8       1       1
       0       8       1       1       0       8       1       1       0       8
       1       1       0       8       1       1       0       8       1       1
       0       8       1       1       0       8       1       1       0       8
       1       1       0       8       1       1       0       8       1       1
       0       8       1       1       0       8       1       1       0       8
       1       1       0       8       1       1       0       8       1       1
       0       8       1       1       0       8       1       1       0       8
       1       1       0       8       1       1       0       8       1       1
       0       8       1       1       0       8       1       1       0       8
       1       1       0       8       1       1       0       8       1       1
       0       8       1       1       0       8       1       1       0       8
       1       1       0       8       1       1       0       8       1       1
       0       8       1       1       0       8       1       1       0       8
       1       1       0       8       1       1       0       8       1       1
       0       8       1       1       0       8       1       1       0       8
       1       1       0       8       1       1       0       8       1       1
       0       8       1       1       0       8       1       1       0       8
       1       1       0       8       1       1       0       8       1       1
       0       8       1       1       0       8       1       1       0       8
       1       1       0       8       1       1       0       8       1       1
       0       8       1       1       0       8       1       1       0       8
       1       1       0       8       1       1       0       8       1       1
       0       8       1       1       0       8       1       1       0       8
       1       1       0       8       1       1       0       8       1       1
       0       8       1       1       0       8       1       1       0       8
       1       1       0       8       1       1       0       8       1       1
       0       8       1       1       0       8       1       1       0       8
       1       1       0       8       1       1       0       8       1       1
       0       8       1       1       0       8       1       1       0       8
       1       1       0       8       1       1       0       8       1       1
       0       8       1       1       0       8       1       1       0       8
       1       1       0       8       1       1       0       8       1       1
       0       8       1       1       0       8       1       1       0       8
       1       1       0       8       1       1       0       8       1       1
       0       8       1       1       0       8       1       1       0       8
       1       1       0       8       1       1       0       8       1       1
       0       8       1       1       0       8       1       1       0       8
       1       1       0       8       1       1       0       8       1       1
       0       8       1       1       0       8       1       1       0       8
       1       1       0       8       1       1       0       8       1       1
       0       8       1       1       0       8       1       1       0       8
       1       1       0       8       1       1       0       8       1       1
       0       8       1       1       0       8       1       1       0       8
       1       1       0       8       1       1       0       8       1       1
       0       8       1       1       0       8       1       1       0       8
       1       1       0       8       1       1       0       8       1       1
       0       8       1       1       0       8       1       1       0       8
       1       1       0       8       1       1       0       8       1       1
       0       8       1       1       0       8       1       1       0       8
       1       1       0       8       1       1       0       8       1       1
       0       8       1       1       0       8       1       1       0       8
       1       1       0       8       1       1       0       8       1       1
       0       8       1       1       0       8       1       1       0       8
       1       1       0       8       1       1       0       8       1       1
       0       8       1       1       0       8       1       1       0       8
       1       1       0       8       1       1       0       8       1       1
       0       8       1       1       0       8       1       1       0       8
       1       1       0       8       1       1       0       8       1       1
       0       8       1       1       0       8       1       1       0       8
       1       1       0       8       1       1       0       8       1       1
       0       8       1       1       0       8       1       1       0       8
       1       1       0       8       1       1       0       8       1       1
       0       8       1       1       0       8       1       1       0       8
       1       1       0       8       1       1       0       8       1       1
       0       8       1       1       0       8       1       1       0       8
       1       1       0       8       1       1       0       8       1       1
       0       8       1       1       0       8       1       1       0       8
       1       1       0       8       1       1       0       8       1       1
       0       8       1       1       0       8       1       1       0       8
       1       1       0       8       1       1       0       8       1       1
       0       8       1       1       0       8       1       1       0       8
       1       1       0       8       1       1       0       8       1       1
       0       8       1       1       0       8       1       1       0       8
       1       1       0       8       1       1       0       8       1       1
       0       8       1       1       0       8       1       1       0       8
       1       1       0       8       1       1       0       8       1       1
       0       8       1       1       0       8       1       1       0       8
       1       1       0       8       1       1       0       8       1       1
       0       8       1       1       0       8       1       1       0       8
       1       1       0       8       1       1       0       8       1       1
       0       8       1       1       0       8       1       1       0       8
       1       1       0       8       1       1       0       8       1       1
       0       8       1       1       0       8       1       1       0       8
       1       1       0       8       1       1       0       8       1       1
       0       8       1       1       0       8       1       1       0       8
       1       1       0       8       1       1       0       8       1       1
       0       8       1       1       0       8       1       1       0       8
       1       1       0       8       1       1       0       8       1       1
       0       8       1       1       0       8       1       1       0
%FLAG MASS                                                                      
%FORMAT(5E16.8)                                                                 
  1.00800000E+00  1.20100000E+01  1.00800000E+00  1.00800000E+00  1.20100000E+01
  1.60000000E+01  1.40100000E+01  1.00800000E+00  1.20100000E+01  1.00800000E+00
  1.20100000E+01  1.00800000E+00  1.00800000E+00  1.20100000E+01  1.20100000E+01
  1.00800000E+00  1.40100000E+01  1.00800000E+00  1.20100000E+01  1.20100000E+01
  1.00800000E+00  1.20100000E+01  1.00800000E+00  1.20100000E+01  1.00800000E+00
  1.20100000E+01  1.00800000E+00  1.20100000E+01  1.20100000E+01  1.60000000E+01
  1.40100000E+01  1.00800000E+00  1.20100000E+01  1.00800000E+00  1.20100000E+01
  1.00800000E+00  1.20100000E+01  1.00800000E+00  1.00800000E+00  1.00800000E+00
  1.20100000E+01  1.00800000E+00  1.00800000E+00  1.00800000E+00  1.20100000E+01
  1.60000000E+01  1.40100000E+01  1.00800000E+00  1.20100000E+01  1.00800000E+00
  1.20100000E+01  1.00800000E+00  1.20100000E+01  1.00800000E+00  1.00800000E+00
  1.00800000E+00  1.60000000E+01  1.00800000E+00  1.20100000E+01  1.60000000E+01
  1.40100000E+01  1.00800000E+00  1.20100000E+01  1.00800000E+00  1.20100000E+01
  1.00800000E+00  1.00800000E+00  1.20100000E+01  1.40100000E+01  1.00800000E+00
  1.20100000E+01  1.00800000E+00  1.40100000E+01  1.20100000E+01  1.00800000E+00
  1.20100000E+01  1.60000000E+01  1.40100000E+01  1.00800000E+00  1.20100000E+01
  1.00800000E+00  1.20100000E+01  1.00800000E+00  1.00800000E+00  1.20100000E+01
  1.00800000E+00  1.00800000E+00  1.20100000E+01  1.00800000E+00  1.00800000E+00
  1.40100000E+01  1.00800000E+00  1.20100000E+01  1.40100000E+01  1.00800000E+00
  1.00800000E+00  1.40100000E+01  1.00800000E+00  1.00800000E+00  1.20100000E+01
  1.60000000E+01  1.20100000E+01  1.60000000E+01  1.20100000E+01  1.20100000E+01
  1.20100000E+01  1.20100000E+01  1.20100000E+01  1.20100000E+01  1.20100000E+01
  1.20100000E+01  1.40100000E+01  1.00800000E+00  1.00800000E+00  1.00800000E+00
  1.00800000E+00  1.00800000E+00  1.00800000E+00  1.00800000E+00  1.00800000E+00
  1.00800000E+00  1.00800000E+00  1.00800000E+00  1.00800000E+00  1.00800000E+00
  1.00800000E+00  1.40100000E+01  1.00800000E+00  1.20100000E+01  1.00800000E+00
  1.20100000E+01  1.00800000E+00  1.00800000E+00  1.00800000E+00  1.20100000E+01
  1.60000000E+01  1.40100000E+01  1.00800000E+00  1.20100000E+01  1.00800000E+00
  1.00800000E+00  1.20100000E+01  1.60000000E+01  1.40100000E+01  1.00800000E+00
  1.20100000E+01  1.00800000E+00  1.20100000E+01  1.00800000E+00  1.00800000E+00
  1.20100000E+01  1.00800000E+00  1.20100000E+01  1.00800000E+00  1.00800000E+00
  1.00800000E+00  1.20100000E+01  1.00800000E+00  1.00800000E+00  1.00800000E+00
  1.20100000E+01  1.60000000E+01  1.20100000E+01  1.60000000E+01  1.20100000E+01
  1.20100000E+01  1.20100000E+01  1.20100000E+01  1.40100000E+01  1.00800000E+00
  1.00800000E+00  1.00800000E+00  1.00800000E+00  1.00800000E+00  1.00800000E+00
  1.00800000E+00  1.00800000E+00  1.40100000E+01  1.00800000E+00  1.20100000E+01
  1.00800000E+00  1.20100000E+01  1.00800000E+00  1.00800000E+00  1.60000000E+01
  1.00800000E+00  1.20100000E+01  1.60000000E+01  1.40100000E+01  1.00800000E+00
  1.20100000E+01  1.00800000E+00  1.20100000E+01  1.00800000E+00  1.00800000E+00
  1.20100000E+01  1.00800000E+00  1.00800000E+00  1.20100000E+01  1.00800000E+00
  1.00800000E+00  1.40100000E+01  1.00800000E+00  1.20100000E+01  1.40100000E+01
  1.00800000E+00  1.00800000E+00  1.40100000E+01  1.00800000E+00  1.00800000E+00
  1.20100000E+01  1.60000000E+01  1.40100000E+01  1.00800000E+00  1.20100000E+01
  1.00800000E+00  1.20100000E+01  1.00800000E+00  1.00800000E+00  1.60000000E+01
  1.00800000E+00  1.20100000E+01  1.60000000E+01  1.40100000E+01  1.00800000E+00
  1.20100000E+01  1.00800000E+00  1.00800000E+00  1.20100000E+01  1.60000000E+01
  1.40100000E+01  1.00800000E+00  1.20100000E+01  1.00800000E+00  1.00800000E+00
  1.20100000E+01  1.60000000E+01  1.40100000E+01  1.00800000E+00  1.20100000E+01
  1.00800000E+00  1.20100000E+01  1.00800000E+00  1.20100000E+01  1.00800000E+00
  1.00800000E+00  1.00800000E+00  1.20100000E+01  1.00800000E+00  1.00800000E+00
  1.00800000E+00  1.20100000E+01  1.60000000E+01  1.40100000E+01  1.00800000E+00
  1.20100000E+01  1.00800000E+00  1.20100000E+01  1.00800000E+00  1.20100000E+01
  1.00800000E+00  1.00800000E+00  1.00800000E+00  1.20100000E+01  1.00800000E+00
  1.00800000E+00  1.00800000E+00  1.20100000E+01  1.60000000E+01  1.40100000E+01
  1.00800000E+00  1.20100000E+01  1.00800000E+00  1.20100000E+01  1.00800000E+00
  1.00800000E+00  1.20100000E+01  1.00800000E+00  1.00800000E+00  1.20100000E+01
  1.00800000E+00  1.00800000E+00  1.20100000E+01  1.00800000E+00  1.00800000E+00
  1.40100000E+01  1.00800000E+00  1.00800000E+00  1.00800000E+00  1.20100000E+01
  1.60000000E+01  1.40100000E+01  1.00800000E+00  1.20100000E+01  1.00800000E+00
  1.20100000E+01  1.00800000E+00  1.00800000E+00  1.20100000E+01  1.60000000E+01
  1.40100000E+01  1.00800000E+00  1.00800000E+00  1.20100000E+01  1.60000000E+01
  1.40100000E+01  1.00800000E+00  1.20100000E+01  1.00800000E+00  1.20100000E+01
  1.00800000E+00  1.00800000E+00  1.20100000E+01  1.60000000E+01  1.40100000E+01
  1.00800000E+00  1.00800000E+00  1.20100000E+01  1.60000000E+01  1.40100000E+01
  1.00800000E+00  1.20100000E+01  1.00800000E+00  1.20100000E+01  1.00800000E+00
  1.00800000E+00  1.20100000E+01  1.20100000E+01  1.00800000E+00  1.20100000E+01
  1.00800000E+00  1.20100000E+01  1.00800000E+00  1.20100000E+01  1.00800000E+00
  1.20100000E+01  1.00800000E+00  1.20100000E+01  1.60000000E+01  1.40100000E+01
  1.00800000E+00  1.20100000E+01  1.00800000E+00  1.20100000E+01  1.00800000E+00
  1.20100000E+01  1.00800000E+00  1.00800000E+00  1.00800000E+00  1.20100000E+01
  1.00800000E+00  1.00800000E+00  1.00800000E+00  1.20100000E+01  1.60000000E+01
  1.40100000E+01  1.20100000E+01  1.00800000E+00  1.00800000E+00  1.20100000E+01
  1.00800000E+00  1.00800000E+00  1.20100000E+01  1.00800000E+00  1.00800000E+00
  1.20100000E+01  1.00800000E+00  1.20100000E+01  1.60000000E+01  1.40100000E+01
  1.00800000E+00  1.20100000E+01  1.00800000E+00  1.20100000E+01  1.00800000E+00
  1.20100000E+01  1.00800000E+00  1.00800000E+00  1.00800000E+00  1.60000000E+01
  1.00800000E+00  1.20100000E+01  1.60000000E+01  1.40100000E+01  1.00800000E+00
  1.20100000E+01  1.00800000E+00  1.20100000E+01  1.00800000E+00  1.00800000E+00
  1.20100000E+01  1.60000000E+01  1.60000000E+01  1.20100000E+01  1.60000000E+01
  1.40100000E+01  1.00800000E+00  1.20100000E+01  1.00800000E+00  1.20100000E+01
  1.00800000E+00  1.20100000E+01  1.00800000E+00  1.00800000E+00  1.00800000E+00
  1.20100000E+01  1.00800000E+00  1.00800000E+00  1.00800000E+00  1.20100000E+01
  1.60000000E+01  1.40100000E+01  1.00800000E+00  1.20100000E+01  1.00800000E+00
  1.00800000E+00  1.20100000E+01  1.60000000E+01  1.40100000E+01  1.20100000E+01
  1.00800000E+00  1.00800000E+00  1.20100000E+01  1.00800000E+00  1.00800000E+00
  1.20100000E+01  1.00800000E+00  1.00800000E+00  1.20100000E+01  1.00800000E+00
  1.20100000E+01  1.60000000E+01  1.40100000E+01  1.00800000E+00  1.20100000E+01
  1.00800000E+00  1.20100000E+01  1.00800000E+00  1.00800000E+00  1.20100000E+01
  1.20100000E+01  1.00800000E+00  1.20100000E+01  1.00800000E+00  1.20100000E+01
  1.00800000E+00  1.20100000E+01  1.00800000E+00  1.20100000E+01  1.00800000E+00
  1.20100000E+01  1.60000000E+01  1.40100000E+01  1.00800000E+00  1.20100000E+01
  1.00800000E+00  1.20100000E+01  1.00800000E+00  1.00800000E+00  1.00800000E+00
  1.20100000E+01  1.60000000E+01  1.40100000E+01  1.00800000E+00  1.20100000E+01
  1.00800000E+00  1.20100000E+01  1.00800000E+00  1.00800000E+00  1.20100000E+01
  1.20100000E+01  1.00800000E+00  1.20100000E+01  1.00800000E+00  1.20100000E+01
  1.00800000E+00  1.20100000E+01  1.00800000E+00  1.20100000E+01  1.00800000E+00
  1.20100000E+01  1.60000000E+01  1.40100000E+01  1.00800000E+00  1.00800000E+00
  2.29900000E+01  2.29900000E+01  2.29900000E+01  2.29900000E+01  2.29900000E+01
  2.29900000E+01  2.29900000E+01  2.29900000E+01  2.29900000E+01  2.29900000E+01
  2.29900000E+01  2.29900000E+01  2.29900000E+01  2.29900000E+01  2.29900000E+01
  2.29900000E+01  2.29900000E+01  2.29900000E+01  2.29900000E+01  2.29900000E+01
  2.29900000E+01  3.54500000E+01  3.54500000E+01  3.54500000E+01  3.54500000E+01
  3.54500000E+01  3.54500000E+01  3.54500000E+01  3.54500000E+01  3.54500000E+01
  3.54500000E+01  3.54500000E+01  3.54500000E+01  3.54500000E+01  3.54500000E+01
  3.54500000E+01  3.54500000E+01  3.54500000E+01  3.54500000E+01  3.54500000E+01
  3.54500000E+01  3.54500000E+01  3.54500000E+01  3.54500000E+01  1.60000000E+01
  1.00800000E+00  1.00800000E+00  0.00000000E+00  1.60000000E+01  1.00800000E+00
  1.00800000E+00  0.00000000E+00  1.60000000E+01  1.00800000E+00  1.00800000E+00
  0.00000000E+00  1.60000000E+01  1.00800000E+00  1.00800000E+00  0.00000000E+00
  1.60000000E+01  1.00800000E+00  1.00800000E+00  0.00000000E+00  1.60000000E+01
  1.00800000E+00  1.00800000E+00  0.00000000E+00  1.60000000E+01  1.00800000E+00
  1.00800000E+00  0.00000000E+00  1.60000000E+01  1.00800000E+00  1.00800000E+00
  0.00000000E+00  1.60000000E+01  1.00800000E+00  1.00800000E+00  0.00000000E+00
  1.60000000E+01  1.00800000E+00  1.00800000E+00  0.00000000E+00  1.60000000E+01
  1.00800000E+00  1.00800000E+00  0.00000000E+00  1.60000000E+01  1.00800000E+00
  1.00800000E+00  0.00000000E+00  1.60000000E+01  1.00800000E+00  1.00800000E+00
  0.00000000E+00  1.60000000E+01  1.00800000E+00  1.00800000E+00  0.00000000E+00
  1.60000000E+01  1.00800000E+00  1.00800000E+00  0.00000000E+00  1.60000000E+01
  1.00800000E+00  1.00800000E+00  0.00000000E+00  1.60000000E+01  1.00800000E+00
  1.00800000E+00  0.00000000E+00  1.60000000E+01  1.00800000E+00  1.00800000E+00
  0.00000000E+00  1.60000000E+01  1.00800000E+00  1.00800000E+00  0.00000000E+00
  1.60000000E+01  1.00800000E+00  1.00800000E+00  0.00000000E+00  1.60000000E+01
  1.00800000E+00  1.00800000E+00  0.00000000E+00  1.60000000E+01  1.00800000E+00
  1.00800000E+00  0.00000000E+00  1.60000000E+01  1.00800000E+00  1.00800000E+00
  0.00000000E+00  1.60000000E+01  1.00800000E+00  1.00800000E+00  0.00000000E+00
  1.60000000E+01  1.00800000E+00  1.00800000E+00  0.00000000E+00  1.60000000E+01
  1.00800000E+00  1.00800000E+00  0.00000000E+00  1.60000000E+01  1.00800000E+00
  1.00800000E+00  0.00000000E+00  1.60000000E+01  1.00800000E+00  1.00800000E+00
  0.00000000E+00  1.60000000E+01  1.00800000E+00  1.00800000E+00  0.00000000E+00
  1.60000000E+01  1.00800000E+00  1.00800000E+00  0.00000000E+00  1.60000000E+01
  1.00800000E+00  1.00800000E+00  0.00000000E+00  1.60000000E+01  1.00800000E+00
  1.00800000E+00  0.00000000E+00  1.60000000E+01  1.00800000E+00  1.00800000E+00
  0.00000000E+00  1.60000000E+01  1.00800000E+00  1.00800000E+00  0.00000000E+00
  1.60000000E+01  1.00800000E+00  1.00800000E+00  0.00000000E+00  1.60000000E+01
  1.00800000E+00  1.00800000E+00  0.00000000E+00  1.60000000E+01  1.00800000E+00
  1.00800000E+00  0.00000000E+00  1.60000000E+01  1.00800000E+00  1.00800000E+00
  0.00000000E+00  1.60000000E+01  1.00800000E+00  1.00800000E+00  0.00000000E+00
  1.60000000E+01  1.00800000E+00  1.00800000E+00  0.00000000E+00  1.60000000E+01
  1.00800000E+00  1.00800000E+00  0.00000000E+00  1.60000000E+01  1.00800000E+00
  1.00800000E+00  0.00000000E+00  1.60000000E+01  1.00800000E+00  1.00800000E+00
  0.00000000E+00  1.60000000E+01  1.00800000E+00  1.00800000E+00  0.00000000E+00
  1.60000000E+01  1.00800000E+00  1.00800000E+00  0.00000000E+00  1.60000000E+01
  1.00800000E+00  1.00800000E+00  0.00000000E+00  1.60000000E+01  1.00800000E+00
  1.00800000E+00  0.00000000E+00  1.60000000E+01  1.00800000E+00  1.00800000E+00
  0.00000000E+00  1.60000000E+01  1.00800000E+00  1.00800000E+00  0.00000000E+00
  1.60000000E+01  1.00800000E+00  1.00800000E+00  0.00000000E+00  1.60000000E+01
  1.00800000E+00  1.00800000E+00  0.00000000E+00  1.60000000E+01  1.00800000E+00
  1.00800000E+00  0.00000000E+00  1.60000000E+01  1.00800000E+00  1.00800000E+00
  0.00000000E+00  1.60000000E+01  1.00800000E+00  1.00800000E+00  0.00000000E+00
  1.60000000E+01  1.00800000E+00  1.00800000E+00  0.00000000E+00  1.60000000E+01
  1.00800000E+00  1.00800000E+00  0.00000000E+00  1.60000000E+01  1.00800000E+00
  1.00800000E+00  0.00000000E+00  1.60000000E+01  1.00800000E+00  1.00800000E+00
  0.00000000E+00  1.60000000E+01  1.00800000E+00  1.00800000E+00  0.00000000E+00
  1.60000000E+01  1.00800000E+00  1.00800000E+00  0.00000000E+00  1.60000000E+01
  1.00800000E+00  1.00800000E+00  0.00000000E+00  1.60000000E+01  1.00800000E+00
  1.00800000E+00  0.00000000E+00  1.60000000E+01  1.00800000E+00  1.00800000E+00
  0.00000000E+00  1.60000000E+01  1.00800000E+00  1.00800000E+00  0.00000000E+00
  1.60000000E+01  1.00800000E+00  1.00800000E+00  0.00000000E+00  1.60000000E+01
  1.00800000E+00  1.00800000E+00  0.00000000E+00  1.60000000E+01  1.00800000E+00
  1.00800000E+00  0.00000000E+00  1.60000000E+01  1.00800000E+00  1.00800000E+00
  0.00000000E+00  1.60000000E+01  1.00800000E+00  1.00800000E+00  0.00000000E+00
  1.60000000E+01  1.00800000E+00  1.00800000E+00  0.00000000E+00  1.60000000E+01
  1.00800000E+00  1.00800000E+00  0.00000000E+00  1.60000000E+01  1.00800000E+00
  1.00800000E+00  0.00000000E+00  1.60000000E+01  1.00800000E+00  1.00800000E+00
  0.00000000E+00  1.60000000E+01  1.00800000E+00  1.00800000E+00  0.00000000E+00
  1.60000000E+01  1.00800000E+00  1.00800000E+00  0.00000000E+00  1.60000000E+01
  1.00800000E+00  1.00800000E+00  0.00000000E+00  1.60000000E+01  1.00800000E+00
  1.00800000E+00  0.00000000E+00  1.60000000E+01  1.00800000E+00  1.00800000E+00
  0.00000000E+00  1.60000000E+01  1.00800000E+00  1.00800000E+00  0.00000000E+00
  1.60000000E+01  1.00800000E+00  1.00800000E+00  0.00000000E+00  1.60000000E+01
  1.00800000E+00  1.00800000E+00  0.00000000E+00  1.60000000E+01  1.00800000E+00
  1.00800000E+00  0.00000000E+00  1.60000000E+01  1.00800000E+00  1.00800000E+00
  0.00000000E+00  1.60000000E+01  1.00800000E+00  1.00800000E+00  0.00000000E+00
  1.60000000E+01  1.00800000E+00  1.00800000E+00  0.00000000E+00  1.60000000E+01
  1.00800000E+00  1.00800000E+00  0.00000000E+00  1.60000000E+01  1.00800000E+00
  1.00800000E+00  0.00000000E+00  1.60000000E+01  1.00800000E+00  1.00800000E+00
  0.00000000E+00  1.60000000E+01  1.00800000E+00  1.00800000E+00  0.00000000E+00
  1.60000000E+01  1.00800000E+00  1.00800000E+00  0.00000000E+00  1.60000000E+01
  1.00800000E+00  1.00800000E+00  0.00000000E+00  1.60000000E+01  1.00800000E+00
  1.00800000E+00  0.00000000E+00  1.60000000E+01  1.00800000E+00  1.00800000E+00
  0.00000000E+00  1.60000000E+01  1.00800000E+00  1.00800000E+00  0.00000000E+00
  1.60000000E+01  1.00800000E+00  1.00800000E+00  0.00000000E+00  1.60000000E+01
  1.00800000E+00  1.00800000E+00  0.00000000E+00  1.60000000E+01  1.00800000E+00
  1.00800000E+00  0.00000000E+00  1.60000000E+01  1.00800000E+00  1.00800000E+00
  0.00000000E+00  1.60000000E+01  1.00800000E+00  1.00800000E+00  0.00000000E+00
  1.60000000E+01  1.00800000E+00  1.00800000E+00  0.00000000E+00  1.60000000E+01
  1.00800000E+00  1.00800000E+00  0.00000000E+00  1.60000000E+01  1.00800000E+00
  1.00800000E+00  0.00000000E+00  1.60000000E+01  1.00800000E+00  1.00800000E+00
  0.00000000E+00  1.60000000E+01  1.00800000E+00  1.00800000E+00  0.00000000E+00
  1.60000000E+01  1.00800000E+00  1.00800000E+00  0.00000000E+00  1.60000000E+01
  1.00800000E+00  1.00800000E+00  0.00000000E+00  1.60000000E+01  1.00800000E+00
  1.00800000E+00  0.00000000E+00  1.60000000E+01  1.00800000E+00  1.00800000E+00
  0.00000000E+00  1.60000000E+01  1.00800000E+00  1.00800000E+00  0.00000000E+00
  1.60000000E+01  1.00800000E+00  1.00800000E+00  0.00000000E+00  1.60000000E+01
  1.00800000E+00  1.00800000E+00  0.00000000E+00  1.60000000E+01  1.00800000E+00
  1.00800000E+00  0.00000000E+00  1.60000000E+01  1.00800000E+00  1.00800000E+00
  0.00000000E+00  1.60000000E+01  1.00800000E+00  1.00800000E+00  0.00000000E+00
  1.60000000E+01  1.00800000E+00  1.00800000E+00  0.00000000E+00  1.60000000E+01
  1.00800000E+00  1.00800000E+00  0.00000000E+00  1.60000000E+01  1.00800000E+00
  1.00800000E+00  0.00000000E+00  1.60000000E+01  1.00800000E+00  1.00800000E+00
  0.00000000E+00  1.60000000E+01  1.00800000E+00  1.00800000E+00  0.00000000E+00
  1.60000000E+01  1.00800000E+00  1.00800000E+00  0.00000000E+00  1.60000000E+01
  1.00800000E+00  1.00800000E+00  0.00000000E+00  1.60000000E+01  1.00800000E+00
  1.00800000E+00  0.00000000E+00  1.60000000E+01  1.00800000E+00  1.00800000E+00
  0.00000000E+00  1.60000000E+01  1.00800000E+00  1.00800000E+00  0.00000000E+00
  1.60000000E+01  1.00800000E+00  1.00800000E+00  0.00000000E+00  1.60000000E+01
  1.00800000E+00  1.00800000E+00  0.00000000E+00  1.60000000E+01  1.00800000E+00
  1.00800000E+00  0.00000000E+00  1.60000000E+01  1.00800000E+00  1.00800000E+00
  0.00000000E+00  1.60000000E+01  1.00800000E+00  1.00800000E+00  0.00000000E+00
  1.60000000E+01  1.00800000E+00  1.00800000E+00  0.00000000E+00  1.60000000E+01
  1.00800000E+00  1.00800000E+00  0.00000000E+00  1.60000000E+01  1.00800000E+00
  1.00800000E+00  0.00000000E+00  1.60000000E+01  1.00800000E+00  1.00800000E+00
  0.00000000E+00  1.60000000E+01  1.00800000E+00  1.00800000E+00  0.00000000E+00
  1.60000000E+01  1.00800000E+00  1.00800000E+00  0.00000000E+00  1.60000000E+01
  1.00800000E+00  1.00800000E+00  0.00000000E+00  1.60000000E+01  1.00800000E+00
  1.00800000E+00  0.00000000E+00  1.60000000E+01  1.00800000E+00  1.00800000E+00
  0.00000000E+00  1.60000000E+01  1.00800000E+00  1.00800000E+00  0.00000000E+00
  1.60000000E+01  1.00800000E+00  1.00800000E+00  0.00000000E+00  1.60000000E+01
  1.00800000E+00  1.00800000E+00  0.00000000E+00  1.60000000E+01  1.00800000E+00
  1.00800000E+00  0.00000000E+00  1.60000000E+01  1.00800000E+00  1.00800000E+00
  0.00000000E+00  1.60000000E+01  1.00800000E+00  1.00800000E+00  0.00000000E+00
  1.60000000E+01  1.00800000E+00  1.00800000E+00  0.00000000E+00  1.60000000E+01
  1.00800000E+00  1.00800000E+00  0.00000000E+00  1.60000000E+01  1.00800000E+00
  1.00800000E+00  0.00000000E+00  1.60000000E+01  1.00800000E+00  1.00800000E+00
  0.00000000E+00  1.60000000E+01  1.00800000E+00  1.00800000E+00  0.00000000E+00
  1.60000000E+01  1.00800000E+00  1.00800000E+00  0.00000000E+00  1.60000000E+01
  1.00800000E+00  1.00800000E+00  0.00000000E+00  1.60000000E+01  1.00800000E+00
  1.00800000E+00  0.00000000E+00  1.60000000E+01  1.00800000E+00  1.00800000E+00
  0.00000000E+00  1.60000000E+01  1.00800000E+00  1.00800000E+00  0.00000000E+00
  1.60000000E+01  1.00800000E+00  1.00800000E+00  0.00000000E+00  1.60000000E+01
  1.00800000E+00  1.00800000E+00  0.00000000E+00  1.60000000E+01  1.00800000E+00
  1.00800000E+00  0.00000000E+00  1.60000000E+01  1.00800000E+00  1.00800000E+00
  0.00000000E+00  1.60000000E+01  1.00800000E+00  1.00800000E+00  0.00000000E+00
  1.60000000E+01  1.00800000E+00  1.00800000E+00  0.00000000E+00  1.60000000E+01
  1.00800000E+00  1.00800000E+00  0.00000000E+00  1.60000000E+01  1.00800000E+00
  1.00800000E+00  0.00000000E+00  1.60000000E+01  1.00800000E+00  1.00800000E+00
  0.00000000E+00  1.60000000E+01  1.00800000E+00  1.00800000E+00  0.00000000E+00
  1.60000000E+01  1.00800000E+00  1.00800000E+00  0.00000000E+00  1.60000000E+01
  1.00800000E+00  1.00800000E+00  0.00000000E+00  1.60000000E+01  1.00800000E+00
  1.00800000E+00  0.00000000E+00  1.60000000E+01  1.00800000E+00  1.00800000E+00
  0.00000000E+00  1.60000000E+01  1.00800000E+00  1.00800000E+00  0.00000000E+00
  1.60000000E+01  1.00800000E+00  1.00800000E+00  0.00000000E+00  1.60000000E+01
  1.00800000E+00  1.00800000E+00  0.00000000E+00  1.60000000E+01  1.00800000E+00
  1.00800000E+00  0.00000000E+00  1.60000000E+01  1.00800000E+00  1.00800000E+00
  0.00000000E+00  1.60000000E+01  1.00800000E+00  1.00800000E+00  0.00000000E+00
  1.60000000E+01  1.00800000E+00  1.00800000E+00  0.00000000E+00  1.60000000E+01
  1.00800000E+00  1.00800000E+00  0.00000000E+00  1.60000000E+01  1.00800000E+00
  1.00800000E+00  0.00000000E+00  1.60000000E+01  1.00800000E+00  1.00800000E+00
  0.00000000E+00  1.60000000E+01  1.00800000E+00  1.00800000E+00  0.00000000E+00
  1.60000000E+01  1.00800000E+00  1.00800000E+00  0.00000000E+00  1.60000000E+01
  1.00800000E+00  1.00800000E+00  0.00000000E+00  1.60000000E+01  1.00800000E+00
  1.00800000E+00  0.00000000E+00  1.60000000E+01  1.00800000E+00  1.00800000E+00
  0.00000000E+00  1.60000000E+01  1.00800000E+00  1.00800000E+00  0.00000000E+00
  1.60000000E+01  1.00800000E+00  1.00800000E+00  0.00000000E+00  1.60000000E+01
  1.00800000E+00  1.00800000E+00  0.00000000E+00  1.60000000E+01  1.00800000E+00
  1.00800000E+00  0.00000000E+00  1.60000000E+01  1.00800000E+00  1.00800000E+00
  0.00000000E+00  1.60000000E+01  1.00800000E+00  1.00800000E+00  0.00000000E+00
  1.60000000E+01  1.00800000E+00  1.00800000E+00  0.00000000E+00  1.60000000E+01
  1.00800000E+00  1.00800000E+00  0.00000000E+00  1.60000000E+01  1.00800000E+00
  1.00800000E+00  0.00000000E+00  1.60000000E+01  1.00800000E+00  1.00800000E+00
  0.00000000E+00  1.60000000E+01  1.00800000E+00  1.00800000E+00  0.00000000E+00
  1.60000000E+01  1.00800000E+00  1.00800000E+00  0.00000000E+00  1.60000000E+01
  1.00800000E+00  1.00800000E+00  0.00000000E+00  1.60000000E+01  1.00800000E+00
  1.00800000E+00  0.00000000E+00  1.60000000E+01  1.00800000E+00  1.00800000E+00
  0.00000000E+00  1.60000000E+01  1.00800000E+00  1.00800000E+00  0.00000000E+00
  1.60000000E+01  1.00800000E+00  1.00800000E+00  0.00000000E+00  1.60000000E+01
  1.00800000E+00  1.00800000E+00  0.00000000E+00  1.60000000E+01  1.00800000E+00
  1.00800000E+00  0.00000000E+00  1.60000000E+01  1.00800000E+00  1.00800000E+00
  0.00000000E+00  1.60000000E+01  1.00800000E+00  1.00800000E+00  0.00000000E+00
  1.60000000E+01  1.00800000E+00  1.00800000E+00  0.00000000E+00  1.60000000E+01
  1.00800000E+00  1.00800000E+00  0.00000000E+00  1.60000000E+01  1.00800000E+00
  1.00800000E+00  0.00000000E+00  1.60000000E+01  1.00800000E+00  1.00800000E+00
  0.00000000E+00  1.60000000E+01  1.00800000E+00  1.00800000E+00  0.00000000E+00
  1.60000000E+01  1.00800000E+00  1.00800000E+00  0.00000000E+00  1.60000000E+01
  1.00800000E+00  1.00800000E+00  0.00000000E+00  1.60000000E+01  1.00800000E+00
  1.00800000E+00  0.00000000E+00  1.60000000E+01  1.00800000E+00  1.00800000E+00
  0.00000000E+00  1.60000000E+01  1.00800000E+00  1.00800000E+00  0.00000000E+00
  1.60000000E+01  1.00800000E+00  1.00800000E+00  0.00000000E+00  1.60000000E+01
  1.00800000E+00  1.00800000E+00  0.00000000E+00  1.60000000E+01  1.00800000E+00
  1.00800000E+00  0.00000000E+00  1.60000000E+01  1.00800000E+00  1.00800000E+00
  0.00000000E+00  1.60000000E+01  1.00800000E+00  1.00800000E+00  0.00000000E+00
  1.60000000E+01  1.00800000E+00  1.00800000E+00  0.00000000E+00  1.60000000E+01
  1.00800000E+00  1.00800000E+00  0.00000000E+00  1.60000000E+01  1.00800000E+00
  1.00800000E+00  0.00000000E+00  1.60000000E+01  1.00800000E+00  1.00800000E+00
  0.00000000E+00  1.60000000E+01  1.00800000E+00  1.00800000E+00  0.00000000E+00
  1.60000000E+01  1.00800000E+00  1.00800000E+00  0.00000000E+00  1.60000000E+01
  1.00800000E+00  1.00800000E+00  0.00000000E+00  1.60000000E+01  1.00800000E+00
  1.00800000E+00  0.00000000E+00  1.60000000E+01  1.00800000E+00  1.00800000E+00
  0.00000000E+00  1.60000000E+01  1.00800000E+00  1.00800000E+00  0.00000000E+00
  1.60000000E+01  1.00800000E+00  1.00800000E+00  0.00000000E+00  1.60000000E+01
  1.00800000E+00  1.00800000E+00  0.00000000E+00  1.60000000E+01  1.00800000E+00
  1.00800000E+00  0.00000000E+00  1.60000000E+01  1.00800000E+00  1.00800000E+00
  0.00000000E+00  1.60000000E+01  1.00800000E+00  1.00800000E+00  0.00000000E+00
  1.60000000E+01  1.00800000E+00  1.00800000E+00  0.00000000E+00  1.60000000E+01
  1.00800000E+00  1.00800000E+00  0.00000000E+00  1.60000000E+01  1.00800000E+00
  1.00800000E+00  0.00000000E+00  1.60000000E+01  1.00800000E+00  1.00800000E+00
  0.00000000E+00  1.60000000E+01  1.00800000E+00  1.00800000E+00  0.00000000E+00
  1.60000000E+01  1.00800000E+00  1.00800000E+00  0.00000000E+00  1.60000000E+01
  1.00800000E+00  1.00800000E+00  0.00000000E+00  1.60000000E+01  1.00800000E+00
  1.00800000E+00  0.00000000E+00  1.60000000E+01  1.00800000E+00  1.00800000E+00
  0.00000000E+00  1.60000000E+01  1.00800000E+00  1.00800000E+00  0.00000000E+00
  1.60000000E+01  1.00800000E+00  1.00800000E+00  0.00000000E+00  1.60000000E+01
  1.00800000E+00  1.00800000E+00  0.00000000E+00  1.60000000E+01  1.00800000E+00
  1.00800000E+00  0.00000000E+00  1.60000000E+01  1.00800000E+00  1.00800000E+00
  0.00000000E+00  1.60000000E+01  1.00800000E+00  1.00800000E+00  0.00000000E+00
  1.60000000E+01  1.00800000E+00  1.00800000E+00  0.00000000E+00  1.60000000E+01
  1.00800000E+00  1.00800000E+00  0.00000000E+00  1.60000000E+01  1.00800000E+00
  1.00800000E+00  0.00000000E+00  1.60000000E+01  1.00800000E+00  1.00800000E+00
  0.00000000E+00  1.60000000E+01  1.00800000E+00  1.00800000E+00  0.00000000E+00
  1.60000000E+01  1.00800000E+00  1.00800000E+00  0.00000000E+00  1.60000000E+01
  1.00800000E+00  1.00800000E+00  0.00000000E+00  1.60000000E+01  1.00800000E+00
  1.00800000E+00  0.00000000E+00  1.60000000E+01  1.00800000E+00  1.00800000E+00
  0.00000000E+00  1.60000000E+01  1.00800000E+00  1.00800000E+00  0.00000000E+00
  1.60000000E+01  1.00800000E+00  1.00800000E+00  0.00000000E+00  1.60000000E+01
  1.00800000E+00  1.00800000E+00  0.00000000E+00  1.60000000E+01  1.00800000E+00
  1.00800000E+00  0.00000000E+00  1.60000000E+01  1.00800000E+00  1.00800000E+00
  0.00000000E+00  1.60000000E+01  1.00800000E+00  1.00800000E+00  0.00000000E+00
  1.60000000E+01  1.00800000E+00  1.00800000E+00  0.00000000E+00  1.60000000E+01
  1.00800000E+00  1.00800000E+00  0.00000000E+00  1.60000000E+01  1.00800000E+00
  1.00800000E+00  0.00000000E+00  1.60000000E+01  1.00800000E+00  1.00800000E+00
  0.00000000E+00  1.60000000E+01  1.00800000E+00  1.00800000E+00  0.00000000E+00
  1.60000000E+01  1.00800000E+00  1.00800000E+00  0.00000000E+00  1.60000000E+01
  1.00800000E+00  1.00800000E+00  0.00000000E+00  1.60000000E+01  1.00800000E+00
  1.00800000E+00  0.00000000E+00  1.60000000E+01  1.00800000E+00  1.00800000E+00
  0.00000000E+00  1.60000000E+01  1.00800000E+00  1.00800000E+00  0.00000000E+00
  1.60000000E+01  1.00800000E+00  1.00800000E+00  0.00000000E+00  1.60000000E+01
  1.00800000E+00  1.00800000E+00  0.00000000E+00  1.60000000E+01  1.00800000E+00
  1.00800000E+00  0.00000000E+00  1.60000000E+01  1.00800000E+00  1.00800000E+00
  0.00000000E+00  1.60000000E+01  1.00800000E+00  1.00800000E+00  0.00000000E+00
  1.60000000E+01  1.00800000E+00  1.00800000E+00  0.00000000E+00  1.60000000E+01
  1.00800000E+00  1.00800000E+00  0.00000000E+00  1.60000000E+01  1.00800000E+00
  1.00800000E+00  0.00000000E+00  1.60000000E+01  1.00800000E+00  1.00800000E+00
  0.00000000E+00  1.60000000E+01  1.00800000E+00  1.00800000E+00  0.00000000E+00
  1.60000000E+01  1.00800000E+00  1.00800000E+00  0.00000000E+00  1.60000000E+01
  1.00800000E+00  1.00800000E+00  0.00000000E+00  1.60000000E+01  1.00800000E+00
  1.00800000E+00  0.00000000E+00  1.60000000E+01  1.00800000E+00  1.00800000E+00
  0.00000000E+00  1.60000000E+01  1.00800000E+00  1.00800000E+00  0.00000000E+00
  1.60000000E+01  1.00800000E+00  1.00800000E+00  0.00000000E+00  1.60000000E+01
  1.00800000E+00  1.00800000E+00  0.00000000E+00  1.60000000E+01  1.00800000E+00
  1.00800000E+00  0.00000000E+00  1.60000000E+01  1.00800000E+00  1.00800000E+00
  0.00000000E+00  1.60000000E+01  1.00800000E+00  1.00800000E+00  0.00000000E+00
  1.60000000E+01  1.00800000E+00  1.00800000E+00  0.00000000E+00  1.60000000E+01
  1.00800000E+00  1.00800000E+00  0.00000000E+00  1.60000000E+01  1.00800000E+00
  1.00800000E+00  0.00000000E+00  1.60000000E+01  1.00800000E+00  1.00800000E+00
  0.00000000E+00  1.60000000E+01  1.00800000E+00  1.00800000E+00  0.00000000E+00
  1.60000000E+01  1.00800000E+00  1.00800000E+00  0.00000000E+00  1.60000000E+01
  1.00800000E+00  1.00800000E+00  0.00000000E+00  1.60000000E+01  1.00800000E+00
  1.00800000E+00  0.00000000E+00  1.60000000E+01  1.00800000E+00  1.00800000E+00
  0.00000000E+00  1.60000000E+01  1.00800000E+00  1.00800000E+00  0.00000000E+00
  1.60000000E+01  1.00800000E+00  1.00800000E+00  0.00000000E+00  1.60000000E+01
  1.00800000E+00  1.00800000E+00  0.00000000E+00  1.60000000E+01  1.00800000E+00
  1.00800000E+00  0.00000000E+00  1.60000000E+01  1.00800000E+00  1.00800000E+00
  0.00000000E+00  1.60000000E+01  1.00800000E+00  1.00800000E+00  0.00000000E+00
  1.60000000E+01  1.00800000E+00  1.00800000E+00  0.00000000E+00  1.60000000E+01
  1.00800000E+00  1.00800000E+00  0.00000000E+00  1.60000000E+01  1.00800000E+00
  1.00800000E+00  0.00000000E+00  1.60000000E+01  1.00800000E+00  1.00800000E+00
  0.00000000E+00  1.60000000E+01  1.00800000E+00  1.00800000E+00  0.00000000E+00
  1.60000000E+01  1.00800000E+00  1.00800000E+00  0.00000000E+00  1.60000000E+01
  1.00800000E+00  1.00800000E+00  0.00000000E+00  1.60000000E+01  1.00800000E+00
  1.00800000E+00  0.00000000E+00  1.60000000E+01  1.00800000E+00  1.00800000E+00
  0.00000000E+00  1.60000000E+01  1.00800000E+00  1.00800000E+00  0.00000000E+00
  1.60000000E+01  1.00800000E+00  1.00800000E+00  0.00000000E+00  1.60000000E+01
  1.00800000E+00  1.00800000E+00  0.00000000E+00  1.60000000E+01  1.00800000E+00
  1.00800000E+00  0.00000000E+00  1.60000000E+01  1.00800000E+00  1.00800000E+00
  0.00000000E+00  1.60000000E+01  1.00800000E+00  1.00800000E+00  0.00000000E+00
  1.60000000E+01  1.00800000E+00  1.00800000E+00  0.00000000E+00  1.60000000E+01
  1.00800000E+00  1.00800000E+00  0.00000000E+00  1.60000000E+01  1.00800000E+00
  1.00800000E+00  0.00000000E+00  1.60000000E+01  1.00800000E+00  1.00800000E+00
  0.00000000E+00  1.60000000E+01  1.00800000E+00  1.00800000E+00  0.00000000E+00
  1.60000000E+01  1.00800000E+00  1.00800000E+00  0.00000000E+00  1.60000000E+01
  1.00800000E+00  1.00800000E+00  0.00000000E+00  1.60000000E+01  1.00800000E+00
  1.00800000E+00  0.00000000E+00  1.60000000E+01  1.00800000E+00  1.00800000E+00
  0.00000000E+00  1.60000000E+01  1.00800000E+00  1.00800000E+00  0.00000000E+00
  1.60000000E+01  1.00800000E+00  1.00800000E+00  0.00000000E+00  1.60000000E+01
  1.00800000E+00  1.00800000E+00  0.00000000E+00  1.60000000E+01  1.00800000E+00
  1.00800000E+00  0.00000000E+00  1.60000000E+01  1.00800000E+00  1.00800000E+00
  0.00000000E+00  1.60000000E+01  1.00800000E+00  1.00800000E+00  0.00000000E+00
  1.60000000E+01  1.00800000E+00  1.00800000E+00  0.00000000E+00  1.60000000E+01
  1.00800000E+00  1.00800000E+00  0.00000000E+00  1.60000000E+01  1.00800000E+00
  1.00800000E+00  0.00000000E+00  1.60000000E+01  1.00800000E+00  1.00800000E+00
  0.00000000E+00  1.60000000E+01  1.00800000E+00  1.00800000E+00  0.00000000E+00
  1.60000000E+01  1.00800000E+00  1.00800000E+00  0.00000000E+00  1.60000000E+01
  1.00800000E+00  1.00800000E+00  0.00000000E+00  1.60000000E+01  1.00800000E+00
  1.00800000E+00  0.00000000E+00  1.60000000E+01  1.00800000E+00  1.00800000E+00
  0.00000000E+00  1.60000000E+01  1.00800000E+00  1.00800000E+00  0.00000000E+00
  1.60000000E+01  1.00800000E+00  1.00800000E+00  0.00000000E+00  1.60000000E+01
  1.00800000E+00  1.00800000E+00  0.00000000E+00  1.60000000E+01  1.00800000E+00
  1.00800000E+00  0.00000000E+00  1.60000000E+01  1.00800000E+00  1.00800000E+00
  0.00000000E+00  1.60000000E+01  1.00800000E+00  1.00800000E+00  0.00000000E+00
  1.60000000E+01  1.00800000E+00  1.00800000E+00  0.00000000E+00  1.60000000E+01
  1.00800000E+00  1.00800000E+00  0.00000000E+00  1.60000000E+01  1.00800000E+00
  1.00800000E+00  0.00000000E+00  1.60000000E+01  1.00800000E+00  1.00800000E+00
  0.00000000E+00  1.60000000E+01  1.00800000E+00  1.00800000E+00  0.00000000E+00
  1.60000000E+01  1.00800000E+00  1.00800000E+00  0.00000000E+00  1.60000000E+01
  1.00800000E+00  1.00800000E+00  0.00000000E+00  1.60000000E+01  1.00800000E+00
  1.00800000E+00  0.00000000E+00  1.60000000E+01  1.00800000E+00  1.00800000E+00
  0.00000000E+00  1.60000000E+01  1.00800000E+00  1.00800000E+00  0.00000000E+00
  1.60000000E+01  1.00800000E+00  1.00800000E+00  0.00000000E+00  1.60000000E+01
  1.00800000E+00  1.00800000E+00  0.00000000E+00  1.60000000E+01  1.00800000E+00
  1.00800000E+00  0.00000000E+00  1.60000000E+01  1.00800000E+00  1.00800000E+00
  0.00000000E+00  1.60000000E+01  1.00800000E+00  1.00800000E+00  0.00000000E+00
  1.60000000E+01  1.00800000E+00  1.00800000E+00  0.00000000E+00  1.60000000E+01
  1.00800000E+00  1.00800000E+00  0.00000000E+00  1.60000000E+01  1.00800000E+00
  1.00800000E+00  0.00000000E+00  1.60000000E+01  1.00800000E+00  1.00800000E+00
  0.00000000E+00  1.60000000E+01  1.00800000E+00  1.00800000E+00  0.00000000E+00
  1.60000000E+01  1.00800000E+00  1.00800000E+00  0.00000000E+00  1.60000000E+01
  1.00800000E+00  1.00800000E+00  0.00000000E+00  1.60000000E+01  1.00800000E+00
  1.00800000E+00  0.00000000E+00  1.60000000E+01  1.00800000E+00  1.00800000E+00
  0.00000000E+00  1.60000000E+01  1.00800000E+00  1.00800000E+00  0.00000000E+00
  1.60000000E+01  1.00800000E+00  1.00800000E+00  0.00000000E+00  1.60000000E+01
  1.00800000E+00  1.00800000E+00  0.00000000E+00  1.60000000E+01  1.00800000E+00
  1.00800000E+00  0.00000000E+00  1.60000000E+01  1.00800000E+00  1.00800000E+00
  0.00000000E+00  1.60000000E+01  1.00800000E+00  1.00800000E+00  0.00000000E+00
  1.60000000E+01  1.00800000E+00  1.00800000E+00  0.00000000E+00  1.60000000E+01
  1.00800000E+00  1.00800000E+00  0.00000000E+00  1.60000000E+01  1.00800000E+00
  1.00800000E+00  0.00000000E+00  1.60000000E+01  1.00800000E+00  1.00800000E+00
  0.00000000E+00  1.60000000E+01  1.00800000E+00  1.00800000E+00  0.00000000E+00
  1.60000000E+01  1.00800000E+00  1.00800000E+00  0.00000000E+00  1.60000000E+01
  1.00800000E+00  1.00800000E+00  0.00000000E+00  1.60000000E+01  1.00800000E+00
  1.00800000E+00  0.00000000E+00  1.60000000E+01  1.00800000E+00  1.00800000E+00
  0.00000000E+00  1.60000000E+01  1.00800000E+00  1.00800000E+00  0.00000000E+00
  1.60000000E+01  1.00800000E+00  1.00800000E+00  0.00000000E+00  1.60000000E+01
  1.00800000E+00  1.00800000E+00  0.00000000E+00  1.60000000E+01  1.00800000E+00
  1.00800000E+00  0.00000000E+00  1.60000000E+01  1.00800000E+00  1.00800000E+00
  0.00000000E+00  1.60000000E+01  1.00800000E+00  1.00800000E+00  0.00000000E+00
  1.60000000E+01  1.00800000E+00  1.00800000E+00  0.00000000E+00  1.60000000E+01
  1.00800000E+00  1.00800000E+00  0.00000000E+00  1.60000000E+01  1.00800000E+00
  1.00800000E+00  0.00000000E+00  1.60000000E+01  1.00800000E+00  1.00800000E+00
  0.00000000E+00  1.60000000E+01  1.00800000E+00  1.00800000E+00  0.00000000E+00
  1.60000000E+01  1.00800000E+00  1.00800000E+00  0.00000000E+00  1.60000000E+01
  1.00800000E+00  1.00800000E+00  0.00000000E+00  1.60000000E+01  1.00800000E+00
  1.00800000E+00  0.00000000E+00  1.60000000E+01  1.00800000E+00  1.00800000E+00
  0.00000000E+00  1.60000000E+01  1.00800000E+00  1.00800000E+00  0.00000000E+00
  1.60000000E+01  1.00800000E+00  1.00800000E+00  0.00000000E+00  1.60000000E+01
  1.00800000E+00  1.00800000E+00  0.00000000E+00  1.60000000E+01  1.00800000E+00
  1.00800000E+00  0.00000000E+00  1.60000000E+01  1.00800000E+00  1.00800000E+00
  0.00000000E+00  1.60000000E+01  1.00800000E+00  1.00800000E+00  0.00000000E+00
  1.60000000E+01  1.00800000E+00  1.00800000E+00  0.00000000E+00  1.60000000E+01
  1.00800000E+00  1.00800000E+00  0.00000000E+00  1.60000000E+01  1.00800000E+00
  1.00800000E+00  0.00000000E+00  1.60000000E+01  1.00800000E+00  1.00800000E+00
  0.00000000E+00  1.60000000E+01  1.00800000E+00  1.00800000E+00  0.00000000E+00
  1.60000000E+01  1.00800000E+00  1.00800000E+00  0.00000000E+00  1.60000000E+01
  1.00800000E+00  1.00800000E+00  0.00000000E+00  1.60000000E+01  1.00800000E+00
  1.00800000E+00  0.00000000E+00  1.60000000E+01  1.00800000E+00  1.00800000E+00
  0.00000000E+00  1.60000000E+01  1.00800000E+00  1.00800000E+00  0.00000000E+00
  1.60000000E+01  1.00800000E+00  1.00800000E+00  0.00000000E+00  1.60000000E+01
  1.00800000E+00  1.00800000E+00  0.00000000E+00  1.60000000E+01  1.00800000E+00
  1.00800000E+00  0.00000000E+00  1.60000000E+01  1.00800000E+00  1.00800000E+00
  0.00000000E+00  1.60000000E+01  1.00800000E+00  1.00800000E+00  0.00000000E+00
  1.60000000E+01  1.00800000E+00  1.00800000E+00  0.00000000E+00  1.60000000E+01
  1.00800000E+00  1.00800000E+00  0.00000000E+00  1.60000000E+01  1.00800000E+00
  1.00800000E+00  0.00000000E+00  1.60000000E+01  1.00800000E+00  1.00800000E+00
  0.00000000E+00  1.60000000E+01  1.00800000E+00  1.00800000E+00  0.00000000E+00
  1.60000000E+01  1.00800000E+00  1.00800000E+00  0.00000000E+00  1.60000000E+01
  1.00800000E+00  1.00800000E+00  0.00000000E+00  1.60000000E+01  1.00800000E+00
  1.00800000E+00  0.00000000E+00  1.60000000E+01  1.00800000E+00  1.00800000E+00
  0.00000000E+00  1.60000000E+01  1.00800000E+00  1.00800000E+00  0.00000000E+00
  1.60000000E+01  1.00800000E+00  1.00800000E+00  0.00000000E+00  1.60000000E+01
  1.00800000E+00  1.00800000E+00  0.00000000E+00  1.60000000E+01  1.00800000E+00
  1.00800000E+00  0.00000000E+00  1.60000000E+01  1.00800000E+00  1.00800000E+00
  0.00000000E+00  1.60000000E+01  1.00800000E+00  1.00800000E+00  0.00000000E+00
  1.60000000E+01  1.00800000E+00  1.00800000E+00  0.00000000E+00  1.60000000E+01
  1.00800000E+00  1.00800000E+00  0.00000000E+00  1.60000000E+01  1.00800000E+00
  1.00800000E+00  0.00000000E+00  1.60000000E+01  1.00800000E+00  1.00800000E+00
  0.00000000E+00  1.60000000E+01  1.00800000E+00  1.00800000E+00  0.00000000E+00
  1.60000000E+01  1.00800000E+00  1.00800000E+00  0.00000000E+00  1.60000000E+01
  1.00800000E+00  1.00800000E+00  0.00000000E+00  1.60000000E+01  1.00800000E+00
  1.00800000E+00  0.00000000E+00  1.60000000E+01  1.00800000E+00  1.00800000E+00
  0.00000000E+00  1.60000000E+01  1.00800000E+00  1.00800000E+00  0.00000000E+00
  1.60000000E+01  1.00800000E+00  1.00800000E+00  0.00000000E+00  1.60000000E+01
  1.00800000E+00  1.00800000E+00  0.00000000E+00  1.60000000E+01  1.00800000E+00
  1.00800000E+00  0.00000000E+00  1.60000000E+01  1.00800000E+00  1.00800000E+00
  0.00000000E+00  1.60000000E+01  1.00800000E+00  1.00800000E+00  0.00000000E+00
  1.60000000E+01  1.00800000E+00  1.00800000E+00  0.00000000E+00  1.60000000E+01
  1.00800000E+00  1.00800000E+00  0.00000000E+00  1.60000000E+01  1.00800000E+00
  1.00800000E+00  0.00000000E+00  1.60000000E+01  1.00800000E+00  1.00800000E+00
  0.00000000E+00  1.60000000E+01  1.00800000E+00  1.00800000E+00  0.00000000E+00
  1.60000000E+01  1.00800000E+00  1.00800000E+00  0.00000000E+00  1.60000000E+01
  1.00800000E+00  1.00800000E+00  0.00000000E+00  1.60000000E+01  1.00800000E+00
  1.00800000E+00  0.00000000E+00  1.60000000E+01  1.00800000E+00  1.00800000E+00
  0.00000000E+00  1.60000000E+01  1.00800000E+00  1.00800000E+00  0.00000000E+00
  1.60000000E+01  1.00800000E+00  1.00800000E+00  0.00000000E+00  1.60000000E+01
  1.00800000E+00  1.00800000E+00  0.00000000E+00  1.60000000E+01  1.00800000E+00
  1.00800000E+00  0.00000000E+00  1.60000000E+01  1.00800000E+00  1.00800000E+00
  0.00000000E+00  1.60000000E+01  1.00800000E+00  1.00800000E+00  0.00000000E+00
  1.60000000E+01  1.00800000E+00  1.00800000E+00  0.00000000E+00  1.60000000E+01
  1.00800000E+00  1.00800000E+00  0.00000000E+00  1.60000000E+01  1.00800000E+00
  1.00800000E+00  0.00000000E+00  1.60000000E+01  1.00800000E+00  1.00800000E+00
  0.00000000E+00  1.60000000E+01  1.00800000E+00  1.00800000E+00  0.00000000E+00
  1.60000000E+01  1.00800000E+00  1.00800000E+00  0.00000000E+00  1.60000000E+01
  1.00800000E+00  1.00800000E+00  0.00000000E+00  1.60000000E+01  1.00800000E+00
  1.00800000E+00  0.00000000E+00  1.60000000E+01  1.00800000E+00  1.00800000E+00
  0.00000000E+00  1.60000000E+01  1.00800000E+00  1.00800000E+00  0.00000000E+00
  1.60000000E+01  1.00800000E+00  1.00800000E+00  0.00000000E+00  1.60000000E+01
  1.00800000E+00  1.00800000E+00  0.00000000E+00  1.60000000E+01  1.00800000E+00
  1.00800000E+00  0.00000000E+00  1.60000000E+01  1.00800000E+00  1.00800000E+00
  0.00000000E+00  1.60000000E+01  1.00800000E+00  1.00800000E+00  0.00000000E+00
  1.60000000E+01  1.00800000E+00  1.00800000E+00  0.00000000E+00  1.60000000E+01
  1.00800000E+00  1.00800000E+00  0.00000000E+00  1.60000000E+01  1.00800000E+00
  1.00800000E+00  0.00000000E+00  1.60000000E+01  1.00800000E+00  1.00800000E+00
  0.00000000E+00  1.60000000E+01  1.00800000E+00  1.00800000E+00  0.00000000E+00
  1.60000000E+01  1.00800000E+00  1.00800000E+00  0.00000000E+00  1.60000000E+01
  1.00800000E+00  1.00800000E+00  0.00000000E+00  1.60000000E+01  1.00800000E+00
  1.00800000E+00  0.00000000E+00  1.60000000E+01  1.00800000E+00  1.00800000E+00
  0.00000000E+00  1.60000000E+01  1.00800000E+00  1.00800000E+00  0.00000000E+00
  1.60000000E+01  1.00800000E+00  1.00800000E+00  0.00000000E+00  1.60000000E+01
  1.00800000E+00  1.00800000E+00  0.00000000E+00  1.60000000E+01  1.00800000E+00
  1.00800000E+00  0.00000000E+00  1.60000000E+01  1.00800000E+00  1.00800000E+00
  0.00000000E+00  1.60000000E+01  1.00800000E+00  1.00800000E+00  0.00000000E+00
  1.60000000E+01  1.00800000E+00  1.00800000E+00  0.00000000E+00  1.60000000E+01
  1.00800000E+00  1.00800000E+00  0.00000000E+00  1.60000000E+01  1.00800000E+00
  1.00800000E+00  0.00000000E+00  1.60000000E+01  1.00800000E+00  1.00800000E+00
  0.00000000E+00  1.60000000E+01  1.00800000E+00  1.00800000E+00  0.00000000E+00
  1.60000000E+01  1.00800000E+00  1.00800000E+00  0.00000000E+00  1.60000000E+01
  1.00800000E+00  1.00800000E+00  0.00000000E+00  1.60000000E+01  1.00800000E+00
  1.00800000E+00  0.00000000E+00  1.60000000E+01  1.00800000E+00  1.00800000E+00
  0.00000000E+00  1.60000000E+01  1.00800000E+00  1.00800000E+00  0.00000000E+00
  1.60000000E+01  1.00800000E+00  1.00800000E+00  0.00000000E+00  1.60000000E+01
  1.00800000E+00  1.00800000E+00  0.00000000E+00  1.60000000E+01  1.00800000E+00
  1.00800000E+00  0.00000000E+00  1.60000000E+01  1.00800000E+00  1.00800000E+00
  0.00000000E+00  1.60000000E+01  1.00800000E+00  1.00800000E+00  0.00000000E+00
  1.60000000E+01  1.00800000E+00  1.00800000E+00  0.00000000E+00  1.60000000E+01
  1.00800000E+00  1.00800000E+00  0.00000000E+00  1.60000000E+01  1.00800000E+00
  1.00800000E+00  0.00000000E+00  1.60000000E+01  1.00800000E+00  1.00800000E+00
  0.00000000E+00  1.60000000E+01  1.00800000E+00  1.00800000E+00  0.00000000E+00
  1.60000000E+01  1.00800000E+00  1.00800000E+00  0.00000000E+00  1.60000000E+01
  1.00800000E+00  1.00800000E+00  0.00000000E+00  1.60000000E+01  1.00800000E+00
  1.00800000E+00  0.00000000E+00  1.60000000E+01  1.00800000E+00  1.00800000E+00
  0.00000000E+00  1.60000000E+01  1.00800000E+00  1.00800000E+00  0.00000000E+00
  1.60000000E+01  1.00800000E+00  1.00800000E+00  0.00000000E+00  1.60000000E+01
  1.00800000E+00  1.00800000E+00  0.00000000E+00  1.60000000E+01  1.00800000E+00
  1.00800000E+00  0.00000000E+00  1.60000000E+01  1.00800000E+00  1.00800000E+00
  0.00000000E+00  1.60000000E+01  1.00800000E+00  1.00800000E+00  0.00000000E+00
  1.60000000E+01  1.00800000E+00  1.00800000E+00  0.00000000E+00  1.60000000E+01
  1.00800000E+00  1.00800000E+00  0.00000000E+00  1.60000000E+01  1.00800000E+00
  1.00800000E+00  0.00000000E+00  1.60000000E+01  1.00800000E+00  1.00800000E+00
  0.00000000E+00  1.60000000E+01  1.00800000E+00  1.00800000E+00  0.00000000E+00
  1.60000000E+01  1.00800000E+00  1.00800000E+00  0.00000000E+00  1.60000000E+01
  1.00800000E+00  1.00800000E+00  0.00000000E+00  1.60000000E+01  1.00800000E+00
  1.00800000E+00  0.00000000E+00  1.60000000E+01  1.00800000E+00  1.00800000E+00
  0.00000000E+00  1.60000000E+01  1.00800000E+00  1.00800000E+00  0.00000000E+00
  1.60000000E+01  1.00800000E+00  1.00800000E+00  0.00000000E+00  1.60000000E+01
  1.00800000E+00  1.00800000E+00  0.00000000E+00  1.60000000E+01  1.00800000E+00
  1.00800000E+00  0.00000000E+00  1.60000000E+01  1.00800000E+00  1.00800000E+00
  0.00000000E+00  1.60000000E+01  1.00800000E+00  1.00800000E+00  0.00000000E+00
  1.60000000E+01  1.00800000E+00  1.00800000E+00  0.00000000E+00  1.60000000E+01
  1.00800000E+00  1.00800000E+00  0.00000000E+00  1.60000000E+01  1.00800000E+00
  1.00800000E+00  0.00000000E+00  1.60000000E+01  1.00800000E+00  1.00800000E+00
  0.00000000E+00  1.60000000E+01  1.00800000E+00  1.00800000E+00  0.00000000E+00
  1.60000000E+01  1.00800000E+00  1.00800000E+00  0.00000000E+00  1.60000000E+01
  1.00800000E+00  1.00800000E+00  0.00000000E+00  1.60000000E+01  1.00800000E+00
  1.00800000E+00  0.00000000E+00  1.60000000E+01  1.00800000E+00  1.00800000E+00
  0.00000000E+00  1.60000000E+01  1.00800000E+00  1.00800000E+00  0.00000000E+00
  1.60000000E+01  1.00800000E+00  1.00800000E+00  0.00000000E+00  1.60000000E+01
  1.00800000E+00  1.00800000E+00  0.00000000E+00  1.60000000E+01  1.00800000E+00
  1.00800000E+00  0.00000000E+00  1.60000000E+01  1.00800000E+00  1.00800000E+00
  0.00000000E+00  1.60000000E+01  1.00800000E+00  1.00800000E+00  0.00000000E+00
  1.60000000E+01  1.00800000E+00  1.00800000E+00  0.00000000E+00  1.60000000E+01
  1.00800000E+00  1.00800000E+00  0.00000000E+00  1.60000000E+01  1.00800000E+00
  1.00800000E+00  0.00000000E+00  1.60000000E+01  1.00800000E+00  1.00800000E+00
  0.00000000E+00  1.60000000E+01  1.00800000E+00  1.00800000E+00  0.00000000E+00
  1.60000000E+01  1.00800000E+00  1.00800000E+00  0.00000000E+00  1.60000000E+01
  1.00800000E+00  1.00800000E+00  0.00000000E+00  1.60000000E+01  1.00800000E+00
  1.00800000E+00  0.00000000E+00  1.60000000E+01  1.00800000E+00  1.00800000E+00
  0.00000000E+00  1.60000000E+01  1.00800000E+00  1.00800000E+00  0.00000000E+00
  1.60000000E+01  1.00800000E+00  1.00800000E+00  0.00000000E+00  1.60000000E+01
  1.00800000E+00  1.00800000E+00  0.00000000E+00  1.60000000E+01  1.00800000E+00
  1.00800000E+00  0.00000000E+00  1.60000000E+01  1.00800000E+00  1.00800000E+00
  0.00000000E+00  1.60000000E+01  1.00800000E+00  1.00800000E+00  0.00000000E+00
  1.60000000E+01  1.00800000E+00  1.00800000E+00  0.00000000E+00  1.60000000E+01
  1.00800000E+00  1.00800000E+00  0.00000000E+00  1.60000000E+01  1.00800000E+00
  1.00800000E+00  0.00000000E+00  1.60000000E+01  1.00800000E+00  1.00800000E+00
  0.00000000E+00  1.60000000E+01  1.00800000E+00  1.00800000E+00  0.00000000E+00
  1.60000000E+01  1.00800000E+00  1.00800000E+00  0.00000000E+00  1.60000000E+01
  1.00800000E+00  1.00800000E+00  0.00000000E+00  1.60000000E+01  1.00800000E+00
  1.00800000E+00  0.00000000E+00  1.60000000E+01  1.00800000E+00  1.00800000E+00
  0.00000000E+00  1.60000000E+01  1.00800000E+00  1.00800000E+00  0.00000000E+00
  1.60000000E+01  1.00800000E+00  1.00800000E+00  0.00000000E+00  1.60000000E+01
  1.00800000E+00  1.00800000E+00  0.00000000E+00  1.60000000E+01  1.00800000E+00
  1.00800000E+00  0.00000000E+00  1.60000000E+01  1.00800000E+00  1.00800000E+00
  0.00000000E+00  1.60000000E+01  1.00800000E+00  1.00800000E+00  0.00000000E+00
  1.60000000E+01  1.00800000E+00  1.00800000E+00  0.00000000E+00  1.60000000E+01
  1.00800000E+00  1.00800000E+00  0.00000000E+00  1.60000000E+01  1.00800000E+00
  1.00800000E+00  0.00000000E+00  1.60000000E+01  1.00800000E+00  1.00800000E+00
  0.00000000E+00  1.60000000E+01  1.00800000E+00  1.00800000E+00  0.00000000E+00
  1.60000000E+01  1.00800000E+00  1.00800000E+00  0.00000000E+00  1.60000000E+01
  1.00800000E+00  1.00800000E+00  0.00000000E+00  1.60000000E+01  1.00800000E+00
  1.00800000E+00  0.00000000E+00  1.60000000E+01  1.00800000E+00  1.00800000E+00
  0.00000000E+00  1.60000000E+01  1.00800000E+00  1.00800000E+00  0.00000000E+00
  1.60000000E+01  1.00800000E+00  1.00800000E+00  0.00000000E+00  1.60000000E+01
  1.00800000E+00  1.00800000E+00  0.00000000E+00  1.60000000E+01  1.00800000E+00
  1.00800000E+00  0.00000000E+00  1.60000000E+01  1.00800000E+00  1.00800000E+00
  0.00000000E+00  1.60000000E+01  1.00800000E+00  1.00800000E+00  0.00000000E+00
  1.60000000E+01  1.00800000E+00  1.00800000E+00  0.00000000E+00  1.60000000E+01
  1.00800000E+00  1.00800000E+00  0.00000000E+00  1.60000000E+01  1.00800000E+00
  1.00800000E+00  0.00000000E+00  1.60000000E+01  1.00800000E+00  1.00800000E+00
  0.00000000E+00  1.60000000E+01  1.00800000E+00  1.00800000E+00  0.00000000E+00
  1.60000000E+01  1.00800000E+00  1.00800000E+00  0.00000000E+00  1.60000000E+01
  1.00800000E+00  1.00800000E+00  0.00000000E+00  1.60000000E+01  1.00800000E+00
  1.00800000E+00  0.00000000E+00  1.60000000E+01  1.00800000E+00  1.00800000E+00
  0.00000000E+00  1.60000000E+01  1.00800000E+00  1.00800000E+00  0.00000000E+00
  1.60000000E+01  1.00800000E+00  1.00800000E+00  0.00000000E+00  1.60000000E+01
  1.00800000E+00  1.00800000E+00  0.00000000E+00  1.60000000E+01  1.00800000E+00
  1.00800000E+00  0.00000000E+00  1.60000000E+01  1.00800000E+00  1.00800000E+00
  0.00000000E+00  1.60000000E+01  1.00800000E+00  1.00800000E+00  0.00000000E+00
  1.60000000E+01  1.00800000E+00  1.00800000E+00  0.00000000E+00  1.60000000E+01
  1.00800000E+00  1.00800000E+00  0.00000000E+00  1.60000000E+01  1.00800000E+00
  1.00800000E+00  0.00000000E+00  1.60000000E+01  1.00800000E+00  1.00800000E+00
  0.00000000E+00  1.60000000E+01  1.00800000E+00  1.00800000E+00  0.00000000E+00
  1.60000000E+01  1.00800000E+00  1.00800000E+00  0.00000000E+00  1.60000000E+01
  1.00800000E+00  1.00800000E+00  0.00000000E+00  1.60000000E+01  1.00800000E+00
  1.00800000E+00  0.00000000E+00  1.60000000E+01  1.00800000E+00  1.00800000E+00
  0.00000000E+00  1.60000000E+01  1.00800000E+00  1.00800000E+00  0.00000000E+00
  1.60000000E+01  1.00800000E+00  1.00800000E+00  0.00000000E+00  1.60000000E+01
  1.00800000E+00  1.00800000E+00  0.00000000E+00  1.60000000E+01  1.00800000E+00
  1.00800000E+00  0.00000000E+00  1.60000000E+01  1.00800000E+00  1.00800000E+00
  0.00000000E+00  1.60000000E+01  1.00800000E+00  1.00800000E+00  0.00000000E+00
  1.60000000E+01  1.00800000E+00  1.00800000E+00  0.00000000E+00  1.60000000E+01
  1.00800000E+00  1.00800000E+00  0.00000000E+00  1.60000000E+01  1.00800000E+00
  1.00800000E+00  0.00000000E+00  1.60000000E+01  1.00800000E+00  1.00800000E+00
  0.00000000E+00  1.60000000E+01  1.00800000E+00  1.00800000E+00  0.00000000E+00
  1.60000000E+01  1.00800000E+00  1.00800000E+00  0.00000000E+00  1.60000000E+01
  1.00800000E+00  1.00800000E+00  0.00000000E+00  1.60000000E+01  1.00800000E+00
  1.00800000E+00  0.00000000E+00  1.60000000E+01  1.00800000E+00  1.00800000E+00
  0.00000000E+00  1.60000000E+01  1.00800000E+00  1.00800000E+00  0.00000000E+00
  1.60000000E+01  1.00800000E+00  1.00800000E+00  0.00000000E+00  1.60000000E+01
  1.00800000E+00  1.00800000E+00  0.00000000E+00  1.60000000E+01  1.00800000E+00
  1.00800000E+00  0.00000000E+00  1.60000000E+01  1.00800000E+00  1.00800000E+00
  0.00000000E+00  1.60000000E+01  1.00800000E+00  1.00800000E+00  0.00000000E+00
  1.60000000E+01  1.00800000E+00  1.00800000E+00  0.00000000E+00  1.60000000E+01
  1.00800000E+00  1.00800000E+00  0.00000000E+00  1.60000000E+01  1.00800000E+00
  1.00800000E+00  0.00000000E+00  1.60000000E+01  1.00800000E+00  1.00800000E+00
  0.00000000E+00  1.60000000E+01  1.00800000E+00  1.00800000E+00  0.00000000E+00
  1.60000000E+01  1.00800000E+00  1.00800000E+00  0.00000000E+00  1.60000000E+01
  1.00800000E+00  1.00800000E+00  0.00000000E+00  1.60000000E+01  1.00800000E+00
  1.00800000E+00  0.00000000E+00  1.60000000E+01  1.00800000E+00  1.00800000E+00
  0.00000000E+00  1.60000000E+01  1.00800000E+00  1.00800000E+00  0.00000000E+00
  1.60000000E+01  1.00800000E+00  1.00800000E+00  0.00000000E+00  1.60000000E+01
  1.00800000E+00  1.00800000E+00  0.00000000E+00  1.60000000E+01  1.00800000E+00
  1.00800000E+00  0.00000000E+00  1.60000000E+01  1.00800000E+00  1.00800000E+00
  0.00000000E+00  1.60000000E+01  1.00800000E+00  1.00800000E+00  0.00000000E+00
  1.60000000E+01  1.00800000E+00  1.00800000E+00  0.00000000E+00  1.60000000E+01
  1.00800000E+00  1.00800000E+00  0.00000000E+00  1.60000000E+01  1.00800000E+00
  1.00800000E+00  0.00000000E+00  1.60000000E+01  1.00800000E+00  1.00800000E+00
  0.00000000E+00  1.60000000E+01  1.00800000E+00  1.00800000E+00  0.00000000E+00
  1.60000000E+01  1.00800000E+00  1.00800000E+00  0.00000000E+00  1.60000000E+01
  1.00800000E+00  1.00800000E+00  0.00000000E+00  1.60000000E+01  1.00800000E+00
  1.00800000E+00  0.00000000E+00  1.60000000E+01  1.00800000E+00  1.00800000E+00
  0.00000000E+00  1.60000000E+01  1.00800000E+00  1.00800000E+00  0.00000000E+00
  1.60000000E+01  1.00800000E+00  1.00800000E+00  0.00000000E+00  1.60000000E+01
  1.00800000E+00  1.00800000E+00  0.00000000E+00  1.60000000E+01  1.00800000E+00
  1.00800000E+00  0.00000000E+00  1.60000000E+01  1.00800000E+00  1.00800000E+00
  0.00000000E+00  1.60000000E+01  1.00800000E+00  1.00800000E+00  0.00000000E+00
  1.60000000E+01  1.00800000E+00  1.00800000E+00  0.00000000E+00  1.60000000E+01
  1.00800000E+00  1.00800000E+00  0.00000000E+00  1.60000000E+01  1.00800000E+00
  1.00800000E+00  0.00000000E+00  1.60000000E+01  1.00800000E+00  1.00800000E+00
  0.00000000E+00  1.60000000E+01  1.00800000E+00  1.00800000E+00  0.00000000E+00
  1.60000000E+01  1.00800000E+00  1.00800000E+00  0.00000000E+00  1.60000000E+01
  1.00800000E+00  1.00800000E+00  0.00000000E+00  1.60000000E+01  1.00800000E+00
  1.00800000E+00  0.00000000E+00  1.60000000E+01  1.00800000E+00  1.00800000E+00
  0.00000000E+00  1.60000000E+01  1.00800000E+00  1.00800000E+00  0.00000000E+00
  1.60000000E+01  1.00800000E+00  1.00800000E+00  0.00000000E+00  1.60000000E+01
  1.00800000E+00  1.00800000E+00  0.00000000E+00  1.60000000E+01  1.00800000E+00
  1.00800000E+00  0.00000000E+00  1.60000000E+01  1.00800000E+00  1.00800000E+00
  0.00000000E+00  1.60000000E+01  1.00800000E+00  1.00800000E+00  0.00000000E+00
  1.60000000E+01  1.00800000E+00  1.00800000E+00  0.00000000E+00  1.60000000E+01
  1.00800000E+00  1.00800000E+00  0.00000000E+00  1.60000000E+01  1.00800000E+00
  1.00800000E+00  0.00000000E+00  1.60000000E+01  1.00800000E+00  1.00800000E+00
  0.00000000E+00  1.60000000E+01  1.00800000E+00  1.00800000E+00  0.00000000E+00
  1.60000000E+01  1.00800000E+00  1.00800000E+00  0.00000000E+00  1.60000000E+01
  1.00800000E+00  1.00800000E+00  0.00000000E+00  1.60000000E+01  1.00800000E+00
  1.00800000E+00  0.00000000E+00  1.60000000E+01  1.00800000E+00  1.00800000E+00
  0.00000000E+00  1.60000000E+01  1.00800000E+00  1.00800000E+00  0.00000000E+00
  1.60000000E+01  1.00800000E+00  1.00800000E+00  0.00000000E+00  1.60000000E+01
  1.00800000E+00  1.00800000E+00  0.00000000E+00  1.60000000E+01  1.00800000E+00
  1.00800000E+00  0.00000000E+00  1.60000000E+01  1.00800000E+00  1.00800000E+00
  0.00000000E+00  1.60000000E+01  1.00800000E+00  1.00800000E+00  0.00000000E+00
  1.60000000E+01  1.00800000E+00  1.00800000E+00  0.00000000E+00  1.60000000E+01
  1.00800000E+00  1.00800000E+00  0.00000000E+00  1.60000000E+01  1.00800000E+00
  1.00800000E+00  0.00000000E+00  1.60000000E+01  1.00800000E+00  1.00800000E+00
  0.00000000E+00  1.60000000E+01  1.00800000E+00  1.00800000E+00  0.00000000E+00
  1.60000000E+01  1.00800000E+00  1.00800000E+00  0.00000000E+00  1.60000000E+01
  1.00800000E+00  1.00800000E+00  0.00000000E+00  1.60000000E+01  1.00800000E+00
  1.00800000E+00  0.00000000E+00  1.60000000E+01  1.00800000E+00  1.00800000E+00
  0.00000000E+00  1.60000000E+01  1.00800000E+00  1.00800000E+00  0.00000000E+00
  1.60000000E+01  1.00800000E+00  1.00800000E+00  0.00000000E+00  1.60000000E+01
  1.00800000E+00  1.00800000E+00  0.00000000E+00  1.60000000E+01  1.00800000E+00
  1.00800000E+00  0.00000000E+00  1.60000000E+01  1.00800000E+00  1.00800000E+00
  0.00000000E+00  1.60000000E+01  1.00800000E+00  1.00800000E+00  0.00000000E+00
  1.60000000E+01  1.00800000E+00  1.00800000E+00  0.00000000E+00  1.60000000E+01
  1.00800000E+00  1.00800000E+00  0.00000000E+00  1.60000000E+01  1.00800000E+00
  1.00800000E+00  0.00000000E+00  1.60000000E+01  1.00800000E+00  1.00800000E+00
  0.00000000E+00  1.60000000E+01  1.00800000E+00  1.00800000E+00  0.00000000E+00
  1.60000000E+01  1.00800000E+00  1.00800000E+00  0.00000000E+00  1.60000000E+01
  1.00800000E+00  1.00800000E+00  0.00000000E+00  1.60000000E+01  1.00800000E+00
  1.00800000E+00  0.00000000E+00  1.60000000E+01  1.00800000E+00  1.00800000E+00
  0.00000000E+00  1.60000000E+01  1.00800000E+00  1.00800000E+00  0.00000000E+00
  1.60000000E+01  1.00800000E+00  1.00800000E+00  0.00000000E+00  1.60000000E+01
  1.00800000E+00  1.00800000E+00  0.00000000E+00  1.60000000E+01  1.00800000E+00
  1.00800000E+00  0.00000000E+00  1.60000000E+01  1.00800000E+00  1.00800000E+00
  0.00000000E+00  1.60000000E+01  1.00800000E+00  1.00800000E+00  0.00000000E+00
  1.60000000E+01  1.00800000E+00  1.00800000E+00  0.00000000E+00  1.60000000E+01
  1.00800000E+00  1.00800000E+00  0.00000000E+00  1.60000000E+01  1.00800000E+00
  1.00800000E+00  0.00000000E+00  1.60000000E+01  1.00800000E+00  1.00800000E+00
  0.00000000E+00  1.60000000E+01  1.00800000E+00  1.00800000E+00  0.00000000E+00
  1.60000000E+01  1.00800000E+00  1.00800000E+00  0.00000000E+00  1.60000000E+01
  1.00800000E+00  1.00800000E+00  0.00000000E+00  1.60000000E+01  1.00800000E+00
  1.00800000E+00  0.00000000E+00  1.60000000E+01  1.00800000E+00  1.00800000E+00
  0.00000000E+00  1.60000000E+01  1.00800000E+00  1.00800000E+00  0.00000000E+00
  1.60000000E+01  1.00800000E+00  1.00800000E+00  0.00000000E+00  1.60000000E+01
  1.00800000E+00  1.00800000E+00  0.00000000E+00  1.60000000E+01  1.00800000E+00
  1.00800000E+00  0.00000000E+00  1.60000000E+01  1.00800000E+00  1.00800000E+00
  0.00000000E+00  1.60000000E+01  1.00800000E+00  1.00800000E+00  0.00000000E+00
  1.60000000E+01  1.00800000E+00  1.00800000E+00  0.00000000E+00  1.60000000E+01
  1.00800000E+00  1.00800000E+00  0.00000000E+00  1.60000000E+01  1.00800000E+00
  1.00800000E+00  0.00000000E+00  1.60000000E+01  1.00800000E+00  1.00800000E+00
  0.00000000E+00  1.60000000E+01  1.00800000E+00  1.00800000E+00  0.00000000E+00
  1.60000000E+01  1.00800000E+00  1.00800000E+00  0.00000000E+00  1.60000000E+01
  1.00800000E+00  1.00800000E+00  0.00000000E+00  1.60000000E+01  1.00800000E+00
  1.00800000E+00  0.00000000E+00  1.60000000E+01  1.00800000E+00  1.00800000E+00
  0.00000000E+00  1.60000000E+01  1.00800000E+00  1.00800000E+00  0.00000000E+00
  1.60000000E+01  1.00800000E+00  1.00800000E+00  0.00000000E+00  1.60000000E+01
  1.00800000E+00  1.00800000E+00  0.00000000E+00  1.60000000E+01  1.00800000E+00
  1.00800000E+00  0.00000000E+00  1.60000000E+01  1.00800000E+00  1.00800000E+00
  0.00000000E+00  1.60000000E+01  1.00800000E+00  1.00800000E+00  0.00000000E+00
  1.60000000E+01  1.00800000E+00  1.00800000E+00  0.00000000E+00  1.60000000E+01
  1.00800000E+00  1.00800000E+00  0.00000000E+00  1.60000000E+01  1.00800000E+00
  1.00800000E+00  0.00000000E+00  1.60000000E+01  1.00800000E+00  1.00800000E+00
  0.00000000E+00  1.60000000E+01  1.00800000E+00  1.00800000E+00  0.00000000E+00
  1.60000000E+01  1.00800000E+00  1.00800000E+00  0.00000000E+00  1.60000000E+01
  1.00800000E+00  1.00800000E+00  0.00000000E+00  1.60000000E+01  1.00800000E+00
  1.00800000E+00  0.00000000E+00  1.60000000E+01  1.00800000E+00  1.00800000E+00
  0.00000000E+00  1.60000000E+01  1.00800000E+00  1.00800000E+00  0.00000000E+00
  1.60000000E+01  1.00800000E+00  1.00800000E+00  0.00000000E+00  1.60000000E+01
  1.00800000E+00  1.00800000E+00  0.00000000E+00  1.60000000E+01  1.00800000E+00
  1.00800000E+00  0.00000000E+00  1.60000000E+01  1.00800000E+00  1.00800000E+00
  0.00000000E+00  1.60000000E+01  1.00800000E+00  1.00800000E+00  0.00000000E+00
  1.60000000E+01  1.00800000E+00  1.00800000E+00  0.00000000E+00  1.60000000E+01
  1.00800000E+00  1.00800000E+00  0.00000000E+00  1.60000000E+01  1.00800000E+00
  1.00800000E+00  0.00000000E+00  1.60000000E+01  1.00800000E+00  1.00800000E+00
  0.00000000E+00  1.60000000E+01  1.00800000E+00  1.00800000E+00  0.00000000E+00
  1.60000000E+01  1.00800000E+00  1.00800000E+00  0.00000000E+00  1.60000000E+01
  1.00800000E+00  1.00800000E+00  0.00000000E+00  1.60000000E+01  1.00800000E+00
  1.00800000E+00  0.00000000E+00  1.60000000E+01  1.00800000E+00  1.00800000E+00
  0.00000000E+00  1.60000000E+01  1.00800000E+00  1.00800000E+00  0.00000000E+00
  1.60000000E+01  1.00800000E+00  1.00800000E+00  0.00000000E+00  1.60000000E+01
  1.00800000E+00  1.00800000E+00  0.00000000E+00  1.60000000E+01  1.00800000E+00
  1.00800000E+00  0.00000000E+00  1.60000000E+01  1.00800000E+00  1.00800000E+00
  0.00000000E+00  1.60000000E+01  1.00800000E+00  1.00800000E+00  0.00000000E+00
  1.60000000E+01  1.00800000E+00  1.00800000E+00  0.00000000E+00  1.60000000E+01
  1.00800000E+00  1.00800000E+00  0.00000000E+00  1.60000000E+01  1.00800000E+00
  1.00800000E+00  0.00000000E+00  1.60000000E+01  1.00800000E+00  1.00800000E+00
  0.00000000E+00  1.60000000E+01  1.00800000E+00  1.00800000E+00  0.00000000E+00
  1.60000000E+01  1.00800000E+00  1.00800000E+00  0.00000000E+00  1.60000000E+01
  1.00800000E+00  1.00800000E+00  0.00000000E+00  1.60000000E+01  1.00800000E+00
  1.00800000E+00  0.00000000E+00  1.60000000E+01  1.00800000E+00  1.00800000E+00
  0.00000000E+00  1.60000000E+01  1.00800000E+00  1.00800000E+00  0.00000000E+00
  1.60000000E+01  1.00800000E+00  1.00800000E+00  0.00000000E+00  1.60000000E+01
  1.00800000E+00  1.00800000E+00  0.00000000E+00  1.60000000E+01  1.00800000E+00
  1.00800000E+00  0.00000000E+00  1.60000000E+01  1.00800000E+00  1.00800000E+00
  0.00000000E+00  1.60000000E+01  1.00800000E+00  1.00800000E+00  0.00000000E+00
  1.60000000E+01  1.00800000E+00  1.00800000E+00  0.00000000E+00  1.60000000E+01
  1.00800000E+00  1.00800000E+00  0.00000000E+00  1.60000000E+01  1.00800000E+00
  1.00800000E+00  0.00000000E+00  1.60000000E+01  1.00800000E+00  1.00800000E+00
  0.00000000E+00  1.60000000E+01  1.00800000E+00  1.00800000E+00  0.00000000E+00
  1.60000000E+01  1.00800000E+00  1.00800000E+00  0.00000000E+00  1.60000000E+01
  1.00800000E+00  1.00800000E+00  0.00000000E+00  1.60000000E+01  1.00800000E+00
  1.00800000E+00  0.00000000E+00  1.60000000E+01  1.00800000E+00  1.00800000E+00
  0.00000000E+00  1.60000000E+01  1.00800000E+00  1.00800000E+00  0.00000000E+00
  1.60000000E+01  1.00800000E+00  1.00800000E+00  0.00000000E+00  1.60000000E+01
  1.00800000E+00  1.00800000E+00  0.00000000E+00  1.60000000E+01  1.00800000E+00
  1.00800000E+00  0.00000000E+00  1.60000000E+01  1.00800000E+00  1.00800000E+00
  0.00000000E+00  1.60000000E+01  1.00800000E+00  1.00800000E+00  0.00000000E+00
  1.60000000E+01  1.00800000E+00  1.00800000E+00  0.00000000E+00  1.60000000E+01
  1.00800000E+00  1.00800000E+00  0.00000000E+00  1.60000000E+01  1.00800000E+00
  1.00800000E+00  0.00000000E+00  1.60000000E+01  1.00800000E+00  1.00800000E+00
  0.00000000E+00  1.60000000E+01  1.00800000E+00  1.00800000E+00  0.00000000E+00
  1.60000000E+01  1.00800000E+00  1.00800000E+00  0.00000000E+00  1.60000000E+01
  1.00800000E+00  1.00800000E+00  0.00000000E+00  1.60000000E+01  1.00800000E+00
  1.00800000E+00  0.00000000E+00  1.60000000E+01  1.00800000E+00  1.00800000E+00
  0.00000000E+00  1.60000000E+01  1.00800000E+00  1.00800000E+00  0.00000000E+00
  1.60000000E+01  1.00800000E+00  1.00800000E+00  0.00000000E+00  1.60000000E+01
  1.00800000E+00  1.00800000E+00  0.00000000E+00  1.60000000E+01  1.00800000E+00
  1.00800000E+00  0.00000000E+00  1.60000000E+01  1.00800000E+00  1.00800000E+00
  0.00000000E+00  1.60000000E+01  1.00800000E+00  1.00800000E+00  0.00000000E+00
  1.60000000E+01  1.00800000E+00  1.00800000E+00  0.00000000E+00  1.60000000E+01
  1.00800000E+00  1.00800000E+00  0.00000000E+00  1.60000000E+01  1.00800000E+00
  1.00800000E+00  0.00000000E+00  1.60000000E+01  1.00800000E+00  1.00800000E+00
  0.00000000E+00  1.60000000E+01  1.00800000E+00  1.00800000E+00  0.00000000E+00
  1.60000000E+01  1.00800000E+00  1.00800000E+00  0.00000000E+00  1.60000000E+01
  1.00800000E+00  1.00800000E+00  0.00000000E+00  1.60000000E+01  1.00800000E+00
  1.00800000E+00  0.00000000E+00  1.60000000E+01  1.00800000E+00  1.00800000E+00
  0.00000000E+00  1.60000000E+01  1.00800000E+00  1.00800000E+00  0.00000000E+00
  1.60000000E+01  1.00800000E+00  1.00800000E+00  0.00000000E+00  1.60000000E+01
  1.00800000E+00  1.00800000E+00  0.00000000E+00  1.60000000E+01  1.00800000E+00
  1.00800000E+00  0.00000000E+00  1.60000000E+01  1.00800000E+00  1.00800000E+00
  0.00000000E+00  1.60000000E+01  1.00800000E+00  1.00800000E+00  0.00000000E+00
  1.60000000E+01  1.00800000E+00  1.00800000E+00  0.00000000E+00  1.60000000E+01
  1.00800000E+00  1.00800000E+00  0.00000000E+00  1.60000000E+01  1.00800000E+00
  1.00800000E+00  0.00000000E+00  1.60000000E+01  1.00800000E+00  1.00800000E+00
  0.00000000E+00  1.60000000E+01  1.00800000E+00  1.00800000E+00  0.00000000E+00
  1.60000000E+01  1.00800000E+00  1.00800000E+00  0.00000000E+00  1.60000000E+01
  1.00800000E+00  1.00800000E+00  0.00000000E+00  1.60000000E+01  1.00800000E+00
  1.00800000E+00  0.00000000E+00  1.60000000E+01  1.00800000E+00  1.00800000E+00
  0.00000000E+00  1.60000000E+01  1.00800000E+00  1.00800000E+00  0.00000000E+00
  1.60000000E+01  1.00800000E+00  1.00800000E+00  0.00000000E+00  1.60000000E+01
  1.00800000E+00  1.00800000E+00  0.00000000E+00  1.60000000E+01  1.00800000E+00
  1.00800000E+00  0.00000000E+00  1.60000000E+01  1.00800000E+00  1.00800000E+00
  0.00000000E+00  1.60000000E+01  1.00800000E+00  1.00800000E+00  0.00000000E+00
  1.60000000E+01  1.00800000E+00  1.00800000E+00  0.00000000E+00  1.60000000E+01
  1.00800000E+00  1.00800000E+00  0.00000000E+00  1.60000000E+01  1.00800000E+00
  1.00800000E+00  0.00000000E+00  1.60000000E+01  1.00800000E+00  1.00800000E+00
  0.00000000E+00  1.60000000E+01  1.00800000E+00  1.00800000E+00  0.00000000E+00
  1.60000000E+01  1.00800000E+00  1.00800000E+00  0.00000000E+00  1.60000000E+01
  1.00800000E+00  1.00800000E+00  0.00000000E+00  1.60000000E+01  1.00800000E+00
  1.00800000E+00  0.00000000E+00  1.60000000E+01  1.00800000E+00  1.00800000E+00
  0.00000000E+00  1.60000000E+01  1.00800000E+00  1.00800000E+00  0.00000000E+00
  1.60000000E+01  1.00800000E+00  1.00800000E+00  0.00000000E+00  1.60000000E+01
  1.00800000E+00  1.00800000E+00  0.00000000E+00  1.60000000E+01  1.00800000E+00
  1.00800000E+00  0.00000000E+00  1.60000000E+01  1.00800000E+00  1.00800000E+00
  0.00000000E+00  1.60000000E+01  1.00800000E+00  1.00800000E+00  0.00000000E+00
  1.60000000E+01  1.00800000E+00  1.00800000E+00  0.00000000E+00  1.60000000E+01
  1.00800000E+00  1.00800000E+00  0.00000000E+00  1.60000000E+01  1.00800000E+00
  1.00800000E+00  0.00000000E+00  1.60000000E+01  1.00800000E+00  1.00800000E+00
  0.00000000E+00  1.60000000E+01  1.00800000E+00  1.00800000E+00  0.00000000E+00
  1.60000000E+01  1.00800000E+00  1.00800000E+00  0.00000000E+00  1.60000000E+01
  1.00800000E+00  1.00800000E+00  0.00000000E+00  1.60000000E+01  1.00800000E+00
  1.00800000E+00  0.00000000E+00  1.60000000E+01  1.00800000E+00  1.00800000E+00
  0.00000000E+00  1.60000000E+01  1.00800000E+00  1.00800000E+00  0.00000000E+00
  1.60000000E+01  1.00800000E+00  1.00800000E+00  0.00000000E+00  1.60000000E+01
  1.00800000E+00  1.00800000E+00  0.00000000E+00  1.60000000E+01  1.00800000E+00
  1.00800000E+00  0.00000000E+00  1.60000000E+01  1.00800000E+00  1.00800000E+00
  0.00000000E+00  1.60000000E+01  1.00800000E+00  1.00800000E+00  0.00000000E+00
  1.60000000E+01  1.00800000E+00  1.00800000E+00  0.00000000E+00  1.60000000E+01
  1.00800000E+00  1.00800000E+00  0.00000000E+00  1.60000000E+01  1.00800000E+00
  1.00800000E+00  0.00000000E+00  1.60000000E+01  1.00800000E+00  1.00800000E+00
  0.00000000E+00  1.60000000E+01  1.00800000E+00  1.00800000E+00  0.00000000E+00
  1.60000000E+01  1.00800000E+00  1.00800000E+00  0.00000000E+00  1.60000000E+01
  1.00800000E+00  1.00800000E+00  0.00000000E+00  1.60000000E+01  1.00800000E+00
  1.00800000E+00  0.00000000E+00  1.60000000E+01  1.00800000E+00  1.00800000E+00
  0.00000000E+00  1.60000000E+01  1.00800000E+00  1.00800000E+00  0.00000000E+00
  1.60000000E+01  1.00800000E+00  1.00800000E+00  0.00000000E+00  1.60000000E+01
  1.00800000E+00  1.00800000E+00  0.00000000E+00  1.60000000E+01  1.00800000E+00
  1.00800000E+00  0.00000000E+00  1.60000000E+01  1.00800000E+00  1.00800000E+00
  0.00000000E+00  1.60000000E+01  1.00800000E+00  1.00800000E+00  0.00000000E+00
  1.60000000E+01  1.00800000E+00  1.00800000E+00  0.00000000E+00  1.60000000E+01
  1.00800000E+00  1.00800000E+00  0.00000000E+00  1.60000000E+01  1.00800000E+00
  1.00800000E+00  0.00000000E+00  1.60000000E+01  1.00800000E+00  1.00800000E+00
  0.00000000E+00  1.60000000E+01  1.00800000E+00  1.00800000E+00  0.00000000E+00
  1.60000000E+01  1.00800000E+00  1.00800000E+00  0.00000000E+00  1.60000000E+01
  1.00800000E+00  1.00800000E+00  0.00000000E+00  1.60000000E+01  1.00800000E+00
  1.00800000E+00  0.00000000E+00  1.60000000E+01  1.00800000E+00  1.00800000E+00
  0.00000000E+00  1.60000000E+01  1.00800000E+00  1.00800000E+00  0.00000000E+00
  1.60000000E+01  1.00800000E+00  1.00800000E+00  0.00000000E+00  1.60000000E+01
  1.00800000E+00  1.00800000E+00  0.00000000E+00  1.60000000E+01  1.00800000E+00
  1.00800000E+00  0.00000000E+00  1.60000000E+01  1.00800000E+00  1.00800000E+00
  0.00000000E+00  1.60000000E+01  1.00800000E+00  1.00800000E+00  0.00000000E+00
  1.60000000E+01  1.00800000E+00  1.00800000E+00  0.00000000E+00  1.60000000E+01
  1.00800000E+00  1.00800000E+00  0.00000000E+00  1.60000000E+01  1.00800000E+00
  1.00800000E+00  0.00000000E+00  1.60000000E+01  1.00800000E+00  1.00800000E+00
  0.00000000E+00  1.60000000E+01  1.00800000E+00  1.00800000E+00  0.00000000E+00
  1.60000000E+01  1.00800000E+00  1.00800000E+00  0.00000000E+00  1.60000000E+01
  1.00800000E+00  1.00800000E+00  0.00000000E+00  1.60000000E+01  1.00800000E+00
  1.00800000E+00  0.00000000E+00  1.60000000E+01  1.00800000E+00  1.00800000E+00
  0.00000000E+00  1.60000000E+01  1.00800000E+00  1.00800000E+00  0.00000000E+00
  1.60000000E+01  1.00800000E+00  1.00800000E+00  0.00000000E+00  1.60000000E+01
  1.00800000E+00  1.00800000E+00  0.00000000E+00  1.60000000E+01  1.00800000E+00
  1.00800000E+00  0.00000000E+00  1.60000000E+01  1.00800000E+00  1.00800000E+00
  0.00000000E+00  1.60000000E+01  1.00800000E+00  1.00800000E+00  0.00000000E+00
  1.60000000E+01  1.00800000E+00  1.00800000E+00  0.00000000E+00  1.60000000E+01
  1.00800000E+00  1.00800000E+00  0.00000000E+00  1.60000000E+01  1.00800000E+00
  1.00800000E+00  0.00000000E+00  1.60000000E+01  1.00800000E+00  1.00800000E+00
  0.00000000E+00  1.60000000E+01  1.00800000E+00  1.00800000E+00  0.00000000E+00
  1.60000000E+01  1.00800000E+00  1.00800000E+00  0.00000000E+00  1.60000000E+01
  1.00800000E+00  1.00800000E+00  0.00000000E+00  1.60000000E+01  1.00800000E+00
  1.00800000E+00  0.00000000E+00  1.60000000E+01  1.00800000E+00  1.00800000E+00
  0.00000000E+00  1.60000000E+01  1.00800000E+00  1.00800000E+00  0.00000000E+00
  1.60000000E+01  1.00800000E+00  1.00800000E+00  0.00000000E+00  1.60000000E+01
  1.00800000E+00  1.00800000E+00  0.00000000E+00  1.60000000E+01  1.00800000E+00
  1.00800000E+00  0.00000000E+00  1.60000000E+01  1.00800000E+00  1.00800000E+00
  0.00000000E+00  1.60000000E+01  1.00800000E+00  1.00800000E+00  0.00000000E+00
  1.60000000E+01  1.00800000E+00  1.00800000E+00  0.00000000E+00  1.60000000E+01
  1.00800000E+00  1.00800000E+00  0.00000000E+00  1.60000000E+01  1.00800000E+00
  1.00800000E+00  0.00000000E+00  1.60000000E+01  1.00800000E+00  1.00800000E+00
  0.00000000E+00  1.60000000E+01  1.00800000E+00  1.00800000E+00  0.00000000E+00
  1.60000000E+01  1.00800000E+00  1.00800000E+00  0.00000000E+00  1.60000000E+01
  1.00800000E+00  1.00800000E+00  0.00000000E+00  1.60000000E+01  1.00800000E+00
  1.00800000E+00  0.00000000E+00  1.60000000E+01  1.00800000E+00  1.00800000E+00
  0.00000000E+00  1.60000000E+01  1.00800000E+00  1.00800000E+00  0.00000000E+00
  1.60000000E+01  1.00800000E+00  1.00800000E+00  0.00000000E+00  1.60000000E+01
  1.00800000E+00  1.00800000E+00  0.00000000E+00  1.60000000E+01  1.00800000E+00
  1.00800000E+00  0.00000000E+00  1.60000000E+01  1.00800000E+00  1.00800000E+00
  0.00000000E+00  1.60000000E+01  1.00800000E+00  1.00800000E+00  0.00000000E+00
  1.60000000E+01  1.00800000E+00  1.00800000E+00  0.00000000E+00  1.60000000E+01
  1.00800000E+00  1.00800000E+00  0.00000000E+00  1.60000000E+01  1.00800000E+00
  1.00800000E+00  0.00000000E+00  1.60000000E+01  1.00800000E+00  1.00800000E+00
  0.00000000E+00  1.60000000E+01  1.00800000E+00  1.00800000E+00  0.00000000E+00
  1.60000000E+01  1.00800000E+00  1.00800000E+00  0.00000000E+00  1.60000000E+01
  1.00800000E+00  1.00800000E+00  0.00000000E+00  1.60000000E+01  1.00800000E+00
  1.00800000E+00  0.00000000E+00  1.60000000E+01  1.00800000E+00  1.00800000E+00
  0.00000000E+00  1.60000000E+01  1.00800000E+00  1.00800000E+00  0.00000000E+00
  1.60000000E+01  1.00800000E+00  1.00800000E+00  0.00000000E+00  1.60000000E+01
  1.00800000E+00  1.00800000E+00  0.00000000E+00  1.60000000E+01  1.00800000E+00
  1.00800000E+00  0.00000000E+00  1.60000000E+01  1.00800000E+00  1.00800000E+00
  0.00000000E+00  1.60000000E+01  1.00800000E+00  1.00800000E+00  0.00000000E+00
  1.60000000E+01  1.00800000E+00  1.00800000E+00  0.00000000E+00  1.60000000E+01
  1.00800000E+00  1.00800000E+00  0.00000000E+00  1.60000000E+01  1.00800000E+00
  1.00800000E+00  0.00000000E+00  1.60000000E+01  1.00800000E+00  1.00800000E+00
  0.00000000E+00  1.60000000E+01  1.00800000E+00  1.00800000E+00  0.00000000E+00
  1.60000000E+01  1.00800000E+00  1.00800000E+00  0.00000000E+00  1.60000000E+01
  1.00800000E+00  1.00800000E+00  0.00000000E+00  1.60000000E+01  1.00800000E+00
  1.00800000E+00  0.00000000E+00  1.60000000E+01  1.00800000E+00  1.00800000E+00
  0.00000000E+00  1.60000000E+01  1.00800000E+00  1.00800000E+00  0.00000000E+00
  1.60000000E+01  1.00800000E+00  1.00800000E+00  0.00000000E+00  1.60000000E+01
  1.00800000E+00  1.00800000E+00  0.00000000E+00  1.60000000E+01  1.00800000E+00
  1.00800000E+00  0.00000000E+00  1.60000000E+01  1.00800000E+00  1.00800000E+00
  0.00000000E+00  1.60000000E+01  1.00800000E+00  1.00800000E+00  0.00000000E+00
  1.60000000E+01  1.00800000E+00  1.00800000E+00  0.00000000E+00  1.60000000E+01
  1.00800000E+00  1.00800000E+00  0.00000000E+00  1.60000000E+01  1.00800000E+00
  1.00800000E+00  0.00000000E+00  1.60000000E+01  1.00800000E+00  1.00800000E+00
  0.00000000E+00  1.60000000E+01  1.00800000E+00  1.00800000E+00  0.00000000E+00
  1.60000000E+01  1.00800000E+00  1.00800000E+00  0.00000000E+00  1.60000000E+01
  1.00800000E+00  1.00800000E+00  0.00000000E+00  1.60000000E+01  1.00800000E+00
  1.00800000E+00  0.00000000E+00  1.60000000E+01  1.00800000E+00  1.00800000E+00
  0.00000000E+00  1.60000000E+01  1.00800000E+00  1.00800000E+00  0.00000000E+00
  1.60000000E+01  1.00800000E+00  1.00800000E+00  0.00000000E+00  1.60000000E+01
  1.00800000E+00  1.00800000E+00  0.00000000E+00  1.60000000E+01  1.00800000E+00
  1.00800000E+00  0.00000000E+00  1.60000000E+01  1.00800000E+00  1.00800000E+00
  0.00000000E+00  1.60000000E+01  1.00800000E+00  1.00800000E+00  0.00000000E+00
  1.60000000E+01  1.00800000E+00  1.00800000E+00  0.00000000E+00  1.60000000E+01
  1.00800000E+00  1.00800000E+00  0.00000000E+00  1.60000000E+01  1.00800000E+00
  1.00800000E+00  0.00000000E+00  1.60000000E+01  1.00800000E+00  1.00800000E+00
  0.00000000E+00  1.60000000E+01  1.00800000E+00  1.00800000E+00  0.00000000E+00
  1.60000000E+01  1.00800000E+00  1.00800000E+00  0.00000000E+00  1.60000000E+01
  1.00800000E+00  1.00800000E+00  0.00000000E+00  1.60000000E+01  1.00800000E+00
  1.00800000E+00  0.00000000E+00  1.60000000E+01  1.00800000E+00  1.00800000E+00
  0.00000000E+00  1.60000000E+01  1.00800000E+00  1.00800000E+00  0.00000000E+00
  1.60000000E+01  1.00800000E+00  1.00800000E+00  0.00000000E+00  1.60000000E+01
  1.00800000E+00  1.00800000E+00  0.00000000E+00  1.60000000E+01  1.00800000E+00
  1.00800000E+00  0.00000000E+00  1.60000000E+01  1.00800000E+00  1.00800000E+00
  0.00000000E+00  1.60000000E+01  1.00800000E+00  1.00800000E+00  0.00000000E+00
  1.60000000E+01  1.00800000E+00  1.00800000E+00  0.00000000E+00  1.60000000E+01
  1.00800000E+00  1.00800000E+00  0.00000000E+00  1.60000000E+01  1.00800000E+00
  1.00800000E+00  0.00000000E+00  1.60000000E+01  1.00800000E+00  1.00800000E+00
  0.00000000E+00  1.60000000E+01  1.00800000E+00  1.00800000E+00  0.00000000E+00
  1.60000000E+01  1.00800000E+00  1.00800000E+00  0.00000000E+00  1.60000000E+01
  1.00800000E+00  1.00800000E+00  0.00000000E+00  1.60000000E+01  1.00800000E+00
  1.00800000E+00  0.00000000E+00  1.60000000E+01  1.00800000E+00  1.00800000E+00
  0.00000000E+00  1.60000000E+01  1.00800000E+00  1.00800000E+00  0.00000000E+00
  1.60000000E+01  1.00800000E+00  1.00800000E+00  0.00000000E+00  1.60000000E+01
  1.00800000E+00  1.00800000E+00  0.00000000E+00  1.60000000E+01  1.00800000E+00
  1.00800000E+00  0.00000000E+00  1.60000000E+01  1.00800000E+00  1.00800000E+00
  0.00000000E+00  1.60000000E+01  1.00800000E+00  1.00800000E+00  0.00000000E+00
  1.60000000E+01  1.00800000E+00  1.00800000E+00  0.00000000E+00  1.60000000E+01
  1.00800000E+00  1.00800000E+00  0.00000000E+00  1.60000000E+01  1.00800000E+00
  1.00800000E+00  0.00000000E+00  1.60000000E+01  1.00800000E+00  1.00800000E+00
  0.00000000E+00  1.60000000E+01  1.00800000E+00  1.00800000E+00  0.00000000E+00
  1.60000000E+01  1.00800000E+00  1.00800000E+00  0.00000000E+00  1.60000000E+01
  1.00800000E+00  1.00800000E+00  0.00000000E+00  1.60000000E+01  1.00800000E+00
  1.00800000E+00  0.00000000E+00  1.60000000E+01  1.00800000E+00  1.00800000E+00
  0.00000000E+00  1.60000000E+01  1.00800000E+00  1.00800000E+00  0.00000000E+00
  1.60000000E+01  1.00800000E+00  1.00800000E+00  0.00000000E+00  1.60000000E+01
  1.00800000E+00  1.00800000E+00  0.00000000E+00  1.60000000E+01  1.00800000E+00
  1.00800000E+00  0.00000000E+00  1.60000000E+01  1.00800000E+00  1.00800000E+00
  0.00000000E+00  1.60000000E+01  1.00800000E+00  1.00800000E+00  0.00000000E+00
  1.60000000E+01  1.00800000E+00  1.00800000E+00  0.00000000E+00  1.60000000E+01
  1.00800000E+00  1.00800000E+00  0.00000000E+00  1.60000000E+01  1.00800000E+00
  1.00800000E+00  0.00000000E+00  1.60000000E+01  1.00800000E+00  1.00800000E+00
  0.00000000E+00  1.60000000E+01  1.00800000E+00  1.00800000E+00  0.00000000E+00
  1.60000000E+01  1.00800000E+00  1.00800000E+00  0.00000000E+00  1.60000000E+01
  1.00800000E+00  1.00800000E+00  0.00000000E+00  1.60000000E+01  1.00800000E+00
  1.00800000E+00  0.00000000E+00  1.60000000E+01  1.00800000E+00  1.00800000E+00
  0.00000000E+00  1.60000000E+01  1.00800000E+00  1.00800000E+00  0.00000000E+00
  1.60000000E+01  1.00800000E+00  1.00800000E+00  0.00000000E+00  1.60000000E+01
  1.00800000E+00  1.00800000E+00  0.00000000E+00  1.60000000E+01  1.00800000E+00
  1.00800000E+00  0.00000000E+00  1.60000000E+01  1.00800000E+00  1.00800000E+00
  0.00000000E+00  1.60000000E+01  1.00800000E+00  1.00800000E+00  0.00000000E+00
  1.60000000E+01  1.00800000E+00  1.00800000E+00  0.00000000E+00  1.60000000E+01
  1.00800000E+00  1.00800000E+00  0.00000000E+00  1.60000000E+01  1.00800000E+00
  1.00800000E+00  0.00000000E+00  1.60000000E+01  1.00800000E+00  1.00800000E+00
  0.00000000E+00  1.60000000E+01  1.00800000E+00  1.00800000E+00  0.00000000E+00
  1.60000000E+01  1.00800000E+00  1.00800000E+00  0.00000000E+00  1.60000000E+01
  1.00800000E+00  1.00800000E+00  0.00000000E+00  1.60000000E+01  1.00800000E+00
  1.00800000E+00  0.00000000E+00  1.60000000E+01  1.00800000E+00  1.00800000E+00
  0.00000000E+00  1.60000000E+01  1.00800000E+00  1.00800000E+00  0.00000000E+00
  1.60000000E+01  1.00800000E+00  1.00800000E+00  0.00000000E+00  1.60000000E+01
  1.00800000E+00  1.00800000E+00  0.00000000E+00  1.60000000E+01  1.00800000E+00
  1.00800000E+00  0.00000000E+00  1.60000000E+01  1.00800000E+00  1.00800000E+00
  0.00000000E+00  1.60000000E+01  1.00800000E+00  1.00800000E+00  0.00000000E+00
  1.60000000E+01  1.00800000E+00  1.00800000E+00  0.00000000E+00  1.60000000E+01
  1.00800000E+00  1.00800000E+00  0.00000000E+00  1.60000000E+01  1.00800000E+00
  1.00800000E+00  0.00000000E+00  1.60000000E+01  1.00800000E+00  1.00800000E+00
  0.00000000E+00  1.60000000E+01  1.00800000E+00  1.00800000E+00  0.00000000E+00
  1.60000000E+01  1.00800000E+00  1.00800000E+00  0.00000000E+00  1.60000000E+01
  1.00800000E+00  1.00800000E+00  0.00000000E+00  1.60000000E+01  1.00800000E+00
  1.00800000E+00  0.00000000E+00  1.60000000E+01  1.00800000E+00  1.00800000E+00
  0.00000000E+00  1.60000000E+01  1.00800000E+00  1.00800000E+00  0.00000000E+00
  1.60000000E+01  1.00800000E+00  1.00800000E+00  0.00000000E+00  1.60000000E+01
  1.00800000E+00  1.00800000E+00  0.00000000E+00  1.60000000E+01  1.00800000E+00
  1.00800000E+00  0.00000000E+00  1.60000000E+01  1.00800000E+00  1.00800000E+00
  0.00000000E+00  1.60000000E+01  1.00800000E+00  1.00800000E+00  0.00000000E+00
  1.60000000E+01  1.00800000E+00  1.00800000E+00  0.00000000E+00  1.60000000E+01
  1.00800000E+00  1.00800000E+00  0.00000000E+00  1.60000000E+01  1.00800000E+00
  1.00800000E+00  0.00000000E+00  1.60000000E+01  1.00800000E+00  1.00800000E+00
  0.00000000E+00  1.60000000E+01  1.00800000E+00  1.00800000E+00  0.00000000E+00
  1.60000000E+01  1.00800000E+00  1.00800000E+00  0.00000000E+00  1.60000000E+01
  1.00800000E+00  1.00800000E+00  0.00000000E+00  1.60000000E+01  1.00800000E+00
  1.00800000E+00  0.00000000E+00  1.60000000E+01  1.00800000E+00  1.00800000E+00
  0.00000000E+00  1.60000000E+01  1.00800000E+00  1.00800000E+00  0.00000000E+00
  1.60000000E+01  1.00800000E+00  1.00800000E+00  0.00000000E+00  1.60000000E+01
  1.00800000E+00  1.00800000E+00  0.00000000E+00  1.60000000E+01  1.00800000E+00
  1.00800000E+00  0.00000000E+00  1.60000000E+01  1.00800000E+00  1.00800000E+00
  0.00000000E+00  1.60000000E+01  1.00800000E+00  1.00800000E+00  0.00000000E+00
  1.60000000E+01  1.00800000E+00  1.00800000E+00  0.00000000E+00  1.60000000E+01
  1.00800000E+00  1.00800000E+00  0.00000000E+00  1.60000000E+01  1.00800000E+00
  1.00800000E+00  0.00000000E+00  1.60000000E+01  1.00800000E+00  1.00800000E+00
  0.00000000E+00  1.60000000E+01  1.00800000E+00  1.00800000E+00  0.00000000E+00
  1.60000000E+01  1.00800000E+00  1.00800000E+00  0.00000000E+00  1.60000000E+01
  1.00800000E+00  1.00800000E+00  0.00000000E+00  1.60000000E+01  1.00800000E+00
  1.00800000E+00  0.00000000E+00  1.60000000E+01  1.00800000E+00  1.00800000E+00
  0.00000000E+00  1.60000000E+01  1.00800000E+00  1.00800000E+00  0.00000000E+00
  1.60000000E+01  1.00800000E+00  1.00800000E+00  0.00000000E+00  1.60000000E+01
  1.00800000E+00  1.00800000E+00  0.00000000E+00  1.60000000E+01  1.00800000E+00
  1.00800000E+00  0.00000000E+00  1.60000000E+01  1.00800000E+00  1.00800000E+00
  0.00000000E+00  1.60000000E+01  1.00800000E+00  1.00800000E+00  0.00000000E+00
  1.60000000E+01  1.00800000E+00  1.00800000E+00  0.00000000E+00  1.60000000E+01
  1.00800000E+00  1.00800000E+00  0.00000000E+00  1.60000000E+01  1.00800000E+00
  1.00800000E+00  0.00000000E+00  1.60000000E+01  1.00800000E+00  1.00800000E+00
  0.00000000E+00  1.60000000E+01  1.00800000E+00  1.00800000E+00  0.00000000E+00
  1.60000000E+01  1.00800000E+00  1.00800000E+00  0.00000000E+00  1.60000000E+01
  1.00800000E+00  1.00800000E+00  0.00000000E+00  1.60000000E+01  1.00800000E+00
  1.00800000E+00  0.00000000E+00  1.60000000E+01  1.00800000E+00  1.00800000E+00
  0.00000000E+00  1.60000000E+01  1.00800000E+00  1.00800000E+00  0.00000000E+00
  1.60000000E+01  1.00800000E+00  1.00800000E+00  0.00000000E+00  1.60000000E+01
  1.00800000E+00  1.00800000E+00  0.00000000E+00  1.60000000E+01  1.00800000E+00
  1.00800000E+00  0.00000000E+00  1.60000000E+01  1.00800000E+00  1.00800000E+00
  0.00000000E+00  1.60000000E+01  1.00800000E+00  1.00800000E+00  0.00000000E+00
  1.60000000E+01  1.00800000E+00  1.00800000E+00  0.00000000E+00  1.60000000E+01
  1.00800000E+00  1.00800000E+00  0.00000000E+00  1.60000000E+01  1.00800000E+00
  1.00800000E+00  0.00000000E+00  1.60000000E+01  1.00800000E+00  1.00800000E+00
  0.00000000E+00  1.60000000E+01  1.00800000E+00  1.00800000E+00  0.00000000E+00
  1.60000000E+01  1.00800000E+00  1.00800000E+00  0.00000000E+00  1.60000000E+01
  1.00800000E+00  1.00800000E+00  0.00000000E+00  1.60000000E+01  1.00800000E+00
  1.00800000E+00  0.00000000E+00  1.60000000E+01  1.00800000E+00  1.00800000E+00
  0.00000000E+00  1.60000000E+01  1.00800000E+00  1.00800000E+00  0.00000000E+00
  1.60000000E+01  1.00800000E+00  1.00800000E+00  0.00000000E+00  1.60000000E+01
  1.00800000E+00  1.00800000E+00  0.00000000E+00  1.60000000E+01  1.00800000E+00
  1.00800000E+00  0.00000000E+00  1.60000000E+01  1.00800000E+00  1.00800000E+00
  0.00000000E+00  1.60000000E+01  1.00800000E+00  1.00800000E+00  0.00000000E+00
  1.60000000E+01  1.00800000E+00  1.00800000E+00  0.00000000E+00  1.60000000E+01
  1.00800000E+00  1.00800000E+00  0.00000000E+00  1.60000000E+01  1.00800000E+00
  1.00800000E+00  0.00000000E+00  1.60000000E+01  1.00800000E+00  1.00800000E+00
  0.00000000E+00  1.60000000E+01  1.00800000E+00  1.00800000E+00  0.00000000E+00
  1.60000000E+01  1.00800000E+00  1.00800000E+00  0.00000000E+00  1.60000000E+01
  1.00800000E+00  1.00800000E+00  0.00000000E+00  1.60000000E+01  1.00800000E+00
  1.00800000E+00  0.00000000E+00  1.60000000E+01  1.00800000E+00  1.00800000E+00
  0.00000000E+00  1.60000000E+01  1.00800000E+00  1.00800000E+00  0.00000000E+00
  1.60000000E+01  1.00800000E+00  1.00800000E+00  0.00000000E+00  1.60000000E+01
  1.00800000E+00  1.00800000E+00  0.00000000E+00  1.60000000E+01  1.00800000E+00
  1.00800000E+00  0.00000000E+00  1.60000000E+01  1.00800000E+00  1.00800000E+00
  0.00000000E+00  1.60000000E+01  1.00800000E+00  1.00800000E+00  0.00000000E+00
  1.60000000E+01  1.00800000E+00  1.00800000E+00  0.00000000E+00  1.60000000E+01
  1.00800000E+00  1.00800000E+00  0.00000000E+00  1.60000000E+01  1.00800000E+00
  1.00800000E+00  0.00000000E+00  1.60000000E+01  1.00800000E+00  1.00800000E+00
  0.00000000E+00  1.60000000E+01  1.00800000E+00  1.00800000E+00  0.00000000E+00
  1.60000000E+01  1.00800000E+00  1.00800000E+00  0.00000000E+00  1.60000000E+01
  1.00800000E+00  1.00800000E+00  0.00000000E+00  1.60000000E+01  1.00800000E+00
  1.00800000E+00  0.00000000E+00  1.60000000E+01  1.00800000E+00  1.00800000E+00
  0.00000000E+00  1.60000000E+01  1.00800000E+00  1.00800000E+00  0.00000000E+00
  1.60000000E+01  1.00800000E+00  1.00800000E+00  0.00000000E+00  1.60000000E+01
  1.00800000E+00  1.00800000E+00  0.00000000E+00  1.60000000E+01  1.00800000E+00
  1.00800000E+00  0.00000000E+00  1.60000000E+01  1.00800000E+00  1.00800000E+00
  0.00000000E+00  1.60000000E+01  1.00800000E+00  1.00800000E+00  0.00000000E+00
  1.60000000E+01  1.00800000E+00  1.00800000E+00  0.00000000E+00  1.60000000E+01
  1.00800000E+00  1.00800000E+00  0.00000000E+00  1.60000000E+01  1.00800000E+00
  1.00800000E+00  0.00000000E+00  1.60000000E+01  1.00800000E+00  1.00800000E+00
  0.00000000E+00  1.60000000E+01  1.00800000E+00  1.00800000E+00  0.00000000E+00
  1.60000000E+01  1.00800000E+00  1.00800000E+00  0.00000000E+00  1.60000000E+01
  1.00800000E+00  1.00800000E+00  0.00000000E+00  1.60000000E+01  1.00800000E+00
  1.00800000E+00  0.00000000E+00  1.60000000E+01  1.00800000E+00  1.00800000E+00
  0.00000000E+00  1.60000000E+01  1.00800000E+00  1.00800000E+00  0.00000000E+00
  1.60000000E+01  1.00800000E+00  1.00800000E+00  0.00000000E+00  1.60000000E+01
  1.00800000E+00  1.00800000E+00  0.00000000E+00  1.60000000E+01  1.00800000E+00
  1.00800000E+00  0.00000000E+00  1.60000000E+01  1.00800000E+00  1.00800000E+00
  0.00000000E+00  1.60000000E+01  1.00800000E+00  1.00800000E+00  0.00000000E+00
  1.60000000E+01  1.00800000E+00  1.00800000E+00  0.00000000E+00  1.60000000E+01
  1.00800000E+00  1.00800000E+00  0.00000000E+00  1.60000000E+01  1.00800000E+00
  1.00800000E+00  0.00000000E+00  1.60000000E+01  1.00800000E+00  1.00800000E+00
  0.00000000E+00  1.60000000E+01  1.00800000E+00  1.00800000E+00  0.00000000E+00
  1.60000000E+01  1.00800000E+00  1.00800000E+00  0.00000000E+00  1.60000000E+01
  1.00800000E+00  1.00800000E+00  0.00000000E+00  1.60000000E+01  1.00800000E+00
  1.00800000E+00  0.00000000E+00  1.60000000E+01  1.00800000E+00  1.00800000E+00
  0.00000000E+00  1.60000000E+01  1.00800000E+00  1.00800000E+00  0.00000000E+00
  1.60000000E+01  1.00800000E+00  1.00800000E+00  0.00000000E+00  1.60000000E+01
  1.00800000E+00  1.00800000E+00  0.00000000E+00  1.60000000E+01  1.00800000E+00
  1.00800000E+00  0.00000000E+00  1.60000000E+01  1.00800000E+00  1.00800000E+00
  0.00000000E+00  1.60000000E+01  1.00800000E+00  1.00800000E+00  0.00000000E+00
  1.60000000E+01  1.00800000E+00  1.00800000E+00  0.00000000E+00  1.60000000E+01
  1.00800000E+00  1.00800000E+00  0.00000000E+00  1.60000000E+01  1.00800000E+00
  1.00800000E+00  0.00000000E+00  1.60000000E+01  1.00800000E+00  1.00800000E+00
  0.00000000E+00  1.60000000E+01  1.00800000E+00  1.00800000E+00  0.00000000E+00
  1.60000000E+01  1.00800000E+00  1.00800000E+00  0.00000000E+00  1.60000000E+01
  1.00800000E+00  1.00800000E+00  0.00000000E+00  1.60000000E+01  1.00800000E+00
  1.00800000E+00  0.00000000E+00  1.60000000E+01  1.00800000E+00  1.00800000E+00
  0.00000000E+00  1.60000000E+01  1.00800000E+00  1.00800000E+00  0.00000000E+00
  1.60000000E+01  1.00800000E+00  1.00800000E+00  0.00000000E+00  1.60000000E+01
  1.00800000E+00  1.00800000E+00  0.00000000E+00  1.60000000E+01  1.00800000E+00
  1.00800000E+00  0.00000000E+00  1.60000000E+01  1.00800000E+00  1.00800000E+00
  0.00000000E+00  1.60000000E+01  1.00800000E+00  1.00800000E+00  0.00000000E+00
  1.60000000E+01  1.00800000E+00  1.00800000E+00  0.00000000E+00  1.60000000E+01
  1.00800000E+00  1.00800000E+00  0.00000000E+00  1.60000000E+01  1.00800000E+00
  1.00800000E+00  0.00000000E+00  1.60000000E+01  1.00800000E+00  1.00800000E+00
  0.00000000E+00  1.60000000E+01  1.00800000E+00  1.00800000E+00  0.00000000E+00
  1.60000000E+01  1.00800000E+00  1.00800000E+00  0.00000000E+00  1.60000000E+01
  1.00800000E+00  1.00800000E+00  0.00000000E+00  1.60000000E+01  1.00800000E+00
  1.00800000E+00  0.00000000E+00  1.60000000E+01  1.00800000E+00  1.00800000E+00
  0.00000000E+00  1.60000000E+01  1.00800000E+00  1.00800000E+00  0.00000000E+00
  1.60000000E+01  1.00800000E+00  1.00800000E+00  0.00000000E+00  1.60000000E+01
  1.00800000E+00  1.00800000E+00  0.00000000E+00  1.60000000E+01  1.00800000E+00
  1.00800000E+00  0.00000000E+00  1.60000000E+01  1.00800000E+00  1.00800000E+00
  0.00000000E+00  1.60000000E+01  1.00800000E+00  1.00800000E+00  0.00000000E+00
  1.60000000E+01  1.00800000E+00  1.00800000E+00  0.00000000E+00  1.60000000E+01
  1.00800000E+00  1.00800000E+00  0.00000000E+00  1.60000000E+01  1.00800000E+00
  1.00800000E+00  0.00000000E+00  1.60000000E+01  1.00800000E+00  1.00800000E+00
  0.00000000E+00  1.60000000E+01  1.00800000E+00  1.00800000E+00  0.00000000E+00
  1.60000000E+01  1.00800000E+00  1.00800000E+00  0.00000000E+00  1.60000000E+01
  1.00800000E+00  1.00800000E+00  0.00000000E+00  1.60000000E+01  1.00800000E+00
  1.00800000E+00  0.00000000E+00  1.60000000E+01  1.00800000E+00  1.00800000E+00
  0.00000000E+00  1.60000000E+01  1.00800000E+00  1.00800000E+00  0.00000000E+00
  1.60000000E+01  1.00800000E+00  1.00800000E+00  0.00000000E+00  1.60000000E+01
  1.00800000E+00  1.00800000E+00  0.00000000E+00  1.60000000E+01  1.00800000E+00
  1.00800000E+00  0.00000000E+00  1.60000000E+01  1.00800000E+00  1.00800000E+00
  0.00000000E+00  1.60000000E+01  1.00800000E+00  1.00800000E+00  0.00000000E+00
  1.60000000E+01  1.00800000E+00  1.00800000E+00  0.00000000E+00  1.60000000E+01
  1.00800000E+00  1.00800000E+00  0.00000000E+00  1.60000000E+01  1.00800000E+00
  1.00800000E+00  0.00000000E+00  1.60000000E+01  1.00800000E+00  1.00800000E+00
  0.00000000E+00  1.60000000E+01  1.00800000E+00  1.00800000E+00  0.00000000E+00
  1.60000000E+01  1.00800000E+00  1.00800000E+00  0.00000000E+00  1.60000000E+01
  1.00800000E+00  1.00800000E+00  0.00000000E+00  1.60000000E+01  1.00800000E+00
  1.00800000E+00  0.00000000E+00  1.60000000E+01  1.00800000E+00  1.00800000E+00
  0.00000000E+00  1.60000000E+01  1.00800000E+00  1.00800000E+00  0.00000000E+00
  1.60000000E+01  1.00800000E+00  1.00800000E+00  0.00000000E+00  1.60000000E+01
  1.00800000E+00  1.00800000E+00  0.00000000E+00  1.60000000E+01  1.00800000E+00
  1.00800000E+00  0.00000000E+00  1.60000000E+01  1.00800000E+00  1.00800000E+00
  0.00000000E+00  1.60000000E+01  1.00800000E+00  1.00800000E+00  0.00000000E+00
  1.60000000E+01  1.00800000E+00  1.00800000E+00  0.00000000E+00  1.60000000E+01
  1.00800000E+00  1.00800000E+00  0.00000000E+00  1.60000000E+01  1.00800000E+00
  1.00800000E+00  0.00000000E+00  1.60000000E+01  1.00800000E+00  1.00800000E+00
  0.00000000E+00  1.60000000E+01  1.00800000E+00  1.00800000E+00  0.00000000E+00
  1.60000000E+01  1.00800000E+00  1.00800000E+00  0.00000000E+00  1.60000000E+01
  1.00800000E+00  1.00800000E+00  0.00000000E+00  1.60000000E+01  1.00800000E+00
  1.00800000E+00  0.00000000E+00  1.60000000E+01  1.00800000E+00  1.00800000E+00
  0.00000000E+00  1.60000000E+01  1.00800000E+00  1.00800000E+00  0.00000000E+00
  1.60000000E+01  1.00800000E+00  1.00800000E+00  0.00000000E+00  1.60000000E+01
  1.00800000E+00  1.00800000E+00  0.00000000E+00  1.60000000E+01  1.00800000E+00
  1.00800000E+00  0.00000000E+00  1.60000000E+01  1.00800000E+00  1.00800000E+00
  0.00000000E+00  1.60000000E+01  1.00800000E+00  1.00800000E+00  0.00000000E+00
  1.60000000E+01  1.00800000E+00  1.00800000E+00  0.00000000E+00  1.60000000E+01
  1.00800000E+00  1.00800000E+00  0.00000000E+00  1.60000000E+01  1.00800000E+00
  1.00800000E+00  0.00000000E+00  1.60000000E+01  1.00800000E+00  1.00800000E+00
  0.00000000E+00  1.60000000E+01  1.00800000E+00  1.00800000E+00  0.00000000E+00
  1.60000000E+01  1.00800000E+00  1.00800000E+00  0.00000000E+00  1.60000000E+01
  1.00800000E+00  1.00800000E+00  0.00000000E+00  1.60000000E+01  1.00800000E+00
  1.00800000E+00  0.00000000E+00  1.60000000E+01  1.00800000E+00  1.00800000E+00
  0.00000000E+00  1.60000000E+01  1.00800000E+00  1.00800000E+00  0.00000000E+00
  1.60000000E+01  1.00800000E+00  1.00800000E+00  0.00000000E+00  1.60000000E+01
  1.00800000E+00  1.00800000E+00  0.00000000E+00  1.60000000E+01  1.00800000E+00
  1.00800000E+00  0.00000000E+00  1.60000000E+01  1.00800000E+00  1.00800000E+00
  0.00000000E+00  1.60000000E+01  1.00800000E+00  1.00800000E+00  0.00000000E+00
  1.60000000E+01  1.00800000E+00  1.00800000E+00  0.00000000E+00  1.60000000E+01
  1.00800000E+00  1.00800000E+00  0.00000000E+00  1.60000000E+01  1.00800000E+00
  1.00800000E+00  0.00000000E+00  1.60000000E+01  1.00800000E+00  1.00800000E+00
  0.00000000E+00  1.60000000E+01  1.00800000E+00  1.00800000E+00  0.00000000E+00
  1.60000000E+01  1.00800000E+00  1.00800000E+00  0.00000000E+00  1.60000000E+01
  1.00800000E+00  1.00800000E+00  0.00000000E+00  1.60000000E+01  1.00800000E+00
  1.00800000E+00  0.00000000E+00  1.60000000E+01  1.00800000E+00  1.00800000E+00
  0.00000000E+00  1.60000000E+01  1.00800000E+00  1.00800000E+00  0.00000000E+00
  1.60000000E+01  1.00800000E+00  1.00800000E+00  0.00000000E+00  1.60000000E+01
  1.00800000E+00  1.00800000E+00  0.00000000E+00  1.60000000E+01  1.00800000E+00
  1.00800000E+00  0.00000000E+00  1.60000000E+01  1.00800000E+00  1.00800000E+00
  0.00000000E+00  1.60000000E+01  1.00800000E+00  1.00800000E+00  0.00000000E+00
  1.60000000E+01  1.00800000E+00  1.00800000E+00  0.00000000E+00  1.60000000E+01
  1.00800000E+00  1.00800000E+00  0.00000000E+00  1.60000000E+01  1.00800000E+00
  1.00800000E+00  0.00000000E+00  1.60000000E+01  1.00800000E+00  1.00800000E+00
  0.00000000E+00  1.60000000E+01  1.00800000E+00  1.00800000E+00  0.00000000E+00
  1.60000000E+01  1.00800000E+00  1.00800000E+00  0.00000000E+00  1.60000000E+01
  1.00800000E+00  1.00800000E+00  0.00000000E+00  1.60000000E+01  1.00800000E+00
  1.00800000E+00  0.00000000E+00  1.60000000E+01  1.00800000E+00  1.00800000E+00
  0.00000000E+00  1.60000000E+01  1.00800000E+00  1.00800000E+00  0.00000000E+00
  1.60000000E+01  1.00800000E+00  1.00800000E+00  0.00000000E+00  1.60000000E+01
  1.00800000E+00  1.00800000E+00  0.00000000E+00  1.60000000E+01  1.00800000E+00
  1.00800000E+00  0.00000000E+00  1.60000000E+01  1.00800000E+00  1.00800000E+00
  0.00000000E+00  1.60000000E+01  1.00800000E+00  1.00800000E+00  0.00000000E+00
  1.60000000E+01  1.00800000E+00  1.00800000E+00  0.00000000E+00  1.60000000E+01
  1.00800000E+00  1.00800000E+00  0.00000000E+00  1.60000000E+01  1.00800000E+00
  1.00800000E+00  0.00000000E+00  1.60000000E+01  1.00800000E+00  1.00800000E+00
  0.00000000E+00  1.60000000E+01  1.00800000E+00  1.00800000E+00  0.00000000E+00
  1.60000000E+01  1.00800000E+00  1.00800000E+00  0.00000000E+00  1.60000000E+01
  1.00800000E+00  1.00800000E+00  0.00000000E+00  1.60000000E+01  1.00800000E+00
  1.00800000E+00  0.00000000E+00  1.60000000E+01  1.00800000E+00  1.00800000E+00
  0.00000000E+00  1.60000000E+01  1.00800000E+00  1.00800000E+00  0.00000000E+00
  1.60000000E+01  1.00800000E+00  1.00800000E+00  0.00000000E+00  1.60000000E+01
  1.00800000E+00  1.00800000E+00  0.00000000E+00  1.60000000E+01  1.00800000E+00
  1.00800000E+00  0.00000000E+00  1.60000000E+01  1.00800000E+00  1.00800000E+00
  0.00000000E+00  1.60000000E+01  1.00800000E+00  1.00800000E+00  0.00000000E+00
  1.60000000E+01  1.00800000E+00  1.00800000E+00  0.00000000E+00  1.60000000E+01
  1.00800000E+00  1.00800000E+00  0.00000000E+00  1.60000000E+01  1.00800000E+00
  1.00800000E+00  0.00000000E+00  1.60000000E+01  1.00800000E+00  1.00800000E+00
  0.00000000E+00  1.60000000E+01  1.00800000E+00  1.00800000E+00  0.00000000E+00
  1.60000000E+01  1.00800000E+00  1.00800000E+00  0.00000000E+00  1.60000000E+01
  1.00800000E+00  1.00800000E+00  0.00000000E+00  1.60000000E+01  1.00800000E+00
  1.00800000E+00  0.00000000E+00  1.60000000E+01  1.00800000E+00  1.00800000E+00
  0.00000000E+00  1.60000000E+01  1.00800000E+00  1.00800000E+00  0.00000000E+00
  1.60000000E+01  1.00800000E+00  1.00800000E+00  0.00000000E+00  1.60000000E+01
  1.00800000E+00  1.00800000E+00  0.00000000E+00  1.60000000E+01  1.00800000E+00
  1.00800000E+00  0.00000000E+00  1.60000000E+01  1.00800000E+00  1.00800000E+00
  0.00000000E+00  1.60000000E+01  1.00800000E+00  1.00800000E+00  0.00000000E+00
  1.60000000E+01  1.00800000E+00  1.00800000E+00  0.00000000E+00  1.60000000E+01
  1.00800000E+00  1.00800000E+00  0.00000000E+00  1.60000000E+01  1.00800000E+00
  1.00800000E+00  0.00000000E+00  1.60000000E+01  1.00800000E+00  1.00800000E+00
  0.00000000E+00  1.60000000E+01  1.00800000E+00  1.00800000E+00  0.00000000E+00
  1.60000000E+01  1.00800000E+00  1.00800000E+00  0.00000000E+00  1.60000000E+01
  1.00800000E+00  1.00800000E+00  0.00000000E+00  1.60000000E+01  1.00800000E+00
  1.00800000E+00  0.00000000E+00  1.60000000E+01  1.00800000E+00  1.00800000E+00
  0.00000000E+00  1.60000000E+01  1.00800000E+00  1.00800000E+00  0.00000000E+00
  1.60000000E+01  1.00800000E+00  1.00800000E+00  0.00000000E+00  1.60000000E+01
  1.00800000E+00  1.00800000E+00  0.00000000E+00  1.60000000E+01  1.00800000E+00
  1.00800000E+00  0.00000000E+00  1.60000000E+01  1.00800000E+00  1.00800000E+00
  0.00000000E+00  1.60000000E+01  1.00800000E+00  1.00800000E+00  0.00000000E+00
  1.60000000E+01  1.00800000E+00  1.00800000E+00  0.00000000E+00  1.60000000E+01
  1.00800000E+00  1.00800000E+00  0.00000000E+00  1.60000000E+01  1.00800000E+00
  1.00800000E+00  0.00000000E+00  1.60000000E+01  1.00800000E+00  1.00800000E+00
  0.00000000E+00  1.60000000E+01  1.00800000E+00  1.00800000E+00  0.00000000E+00
  1.60000000E+01  1.00800000E+00  1.00800000E+00  0.00000000E+00  1.60000000E+01
  1.00800000E+00  1.00800000E+00  0.00000000E+00  1.60000000E+01  1.00800000E+00
  1.00800000E+00  0.00000000E+00  1.60000000E+01  1.00800000E+00  1.00800000E+00
  0.00000000E+00  1.60000000E+01  1.00800000E+00  1.00800000E+00  0.00000000E+00
  1.60000000E+01  1.00800000E+00  1.00800000E+00  0.00000000E+00  1.60000000E+01
  1.00800000E+00  1.00800000E+00  0.00000000E+00  1.60000000E+01  1.00800000E+00
  1.00800000E+00  0.00000000E+00  1.60000000E+01  1.00800000E+00  1.00800000E+00
  0.00000000E+00  1.60000000E+01  1.00800000E+00  1.00800000E+00  0.00000000E+00
  1.60000000E+01  1.00800000E+00  1.00800000E+00  0.00000000E+00  1.60000000E+01
  1.00800000E+00  1.00800000E+00  0.00000000E+00  1.60000000E+01  1.00800000E+00
  1.00800000E+00  0.00000000E+00  1.60000000E+01  1.00800000E+00  1.00800000E+00
  0.00000000E+00  1.60000000E+01  1.00800000E+00  1.00800000E+00  0.00000000E+00
  1.60000000E+01  1.00800000E+00  1.00800000E+00  0.00000000E+00  1.60000000E+01
  1.00800000E+00  1.00800000E+00  0.00000000E+00  1.60000000E+01  1.00800000E+00
  1.00800000E+00  0.00000000E+00  1.60000000E+01  1.00800000E+00  1.00800000E+00
  0.00000000E+00  1.60000000E+01  1.00800000E+00  1.00800000E+00  0.00000000E+00
  1.60000000E+01  1.00800000E+00  1.00800000E+00  0.00000000E+00  1.60000000E+01
  1.00800000E+00  1.00800000E+00  0.00000000E+00  1.60000000E+01  1.00800000E+00
  1.00800000E+00  0.00000000E+00  1.60000000E+01  1.00800000E+00  1.00800000E+00
  0.00000000E+00  1.60000000E+01  1.00800000E+00  1.00800000E+00  0.00000000E+00
  1.60000000E+01  1.00800000E+00  1.00800000E+00  0.00000000E+00  1.60000000E+01
  1.00800000E+00  1.00800000E+00  0.00000000E+00  1.60000000E+01  1.00800000E+00
  1.00800000E+00  0.00000000E+00  1.60000000E+01  1.00800000E+00  1.00800000E+00
  0.00000000E+00  1.60000000E+01  1.00800000E+00  1.00800000E+00  0.00000000E+00
  1.60000000E+01  1.00800000E+00  1.00800000E+00  0.00000000E+00  1.60000000E+01
  1.00800000E+00  1.00800000E+00  0.00000000E+00  1.60000000E+01  1.00800000E+00
  1.00800000E+00  0.00000000E+00  1.60000000E+01  1.00800000E+00  1.00800000E+00
  0.00000000E+00  1.60000000E+01  1.00800000E+00  1.00800000E+00  0.00000000E+00
  1.60000000E+01  1.00800000E+00  1.00800000E+00  0.00000000E+00  1.60000000E+01
  1.00800000E+00  1.00800000E+00  0.00000000E+00  1.60000000E+01  1.00800000E+00
  1.00800000E+00  0.00000000E+00  1.60000000E+01  1.00800000E+00  1.00800000E+00
  0.00000000E+00  1.60000000E+01  1.00800000E+00  1.00800000E+00  0.00000000E+00
  1.60000000E+01  1.00800000E+00  1.00800000E+00  0.00000000E+00  1.60000000E+01
  1.00800000E+00  1.00800000E+00  0.00000000E+00  1.60000000E+01  1.00800000E+00
  1.00800000E+00  0.00000000E+00  1.60000000E+01  1.00800000E+00  1.00800000E+00
  0.00000000E+00  1.60000000E+01  1.00800000E+00  1.00800000E+00  0.00000000E+00
  1.60000000E+01  1.00800000E+00  1.00800000E+00  0.00000000E+00  1.60000000E+01
  1.00800000E+00  1.00800000E+00  0.00000000E+00  1.60000000E+01  1.00800000E+00
  1.00800000E+00  0.00000000E+00  1.60000000E+01  1.00800000E+00  1.00800000E+00
  0.00000000E+00  1.60000000E+01  1.00800000E+00  1.00800000E+00  0.00000000E+00
  1.60000000E+01  1.00800000E+00  1.00800000E+00  0.00000000E+00  1.60000000E+01
  1.00800000E+00  1.00800000E+00  0.00000000E+00  1.60000000E+01  1.00800000E+00
  1.00800000E+00  0.00000000E+00  1.60000000E+01  1.00800000E+00  1.00800000E+00
  0.00000000E+00  1.60000000E+01  1.00800000E+00  1.00800000E+00  0.00000000E+00
  1.60000000E+01  1.00800000E+00  1.00800000E+00  0.00000000E+00  1.60000000E+01
  1.00800000E+00  1.00800000E+00  0.00000000E+00  1.60000000E+01  1.00800000E+00
  1.00800000E+00  0.00000000E+00  1.60000000E+01  1.00800000E+00  1.00800000E+00
  0.00000000E+00  1.60000000E+01  1.00800000E+00  1.00800000E+00  0.00000000E+00
  1.60000000E+01  1.00800000E+00  1.00800000E+00  0.00000000E+00  1.60000000E+01
  1.00800000E+00  1.00800000E+00  0.00000000E+00  1.60000000E+01  1.00800000E+00
  1.00800000E+00  0.00000000E+00  1.60000000E+01  1.00800000E+00  1.00800000E+00
  0.00000000E+00  1.60000000E+01  1.00800000E+00  1.00800000E+00  0.00000000E+00
  1.60000000E+01  1.00800000E+00  1.00800000E+00  0.00000000E+00  1.60000000E+01
  1.00800000E+00  1.00800000E+00  0.00000000E+00  1.60000000E+01  1.00800000E+00
  1.00800000E+00  0.00000000E+00  1.60000000E+01  1.00800000E+00  1.00800000E+00
  0.00000000E+00  1.60000000E+01  1.00800000E+00  1.00800000E+00  0.00000000E+00
  1.60000000E+01  1.00800000E+00  1.00800000E+00  0.00000000E+00  1.60000000E+01
  1.00800000E+00  1.00800000E+00  0.00000000E+00  1.60000000E+01  1.00800000E+00
  1.00800000E+00  0.00000000E+00  1.60000000E+01  1.00800000E+00  1.00800000E+00
  0.00000000E+00  1.60000000E+01  1.00800000E+00  1.00800000E+00  0.00000000E+00
  1.60000000E+01  1.00800000E+00  1.00800000E+00  0.00000000E+00  1.60000000E+01
  1.00800000E+00  1.00800000E+00  0.00000000E+00  1.60000000E+01  1.00800000E+00
  1.00800000E+00  0.00000000E+00  1.60000000E+01  1.00800000E+00  1.00800000E+00
  0.00000000E+00  1.60000000E+01  1.00800000E+00  1.00800000E+00  0.00000000E+00
  1.60000000E+01  1.00800000E+00  1.00800000E+00  0.00000000E+00  1.60000000E+01
  1.00800000E+00  1.00800000E+00  0.00000000E+00  1.60000000E+01  1.00800000E+00
  1.00800000E+00  0.00000000E+00  1.60000000E+01  1.00800000E+00  1.00800000E+00
  0.00000000E+00  1.60000000E+01  1.00800000E+00  1.00800000E+00  0.00000000E+00
  1.60000000E+01  1.00800000E+00  1.00800000E+00  0.00000000E+00  1.60000000E+01
  1.00800000E+00  1.00800000E+00  0.00000000E+00  1.60000000E+01  1.00800000E+00
  1.00800000E+00  0.00000000E+00  1.60000000E+01  1.00800000E+00  1.00800000E+00
  0.00000000E+00  1.60000000E+01  1.00800000E+00  1.00800000E+00  0.00000000E+00
  1.60000000E+01  1.00800000E+00  1.00800000E+00  0.00000000E+00  1.60000000E+01
  1.00800000E+00  1.00800000E+00  0.00000000E+00  1.60000000E+01  1.00800000E+00
  1.00800000E+00  0.00000000E+00  1.60000000E+01  1.00800000E+00  1.00800000E+00
  0.00000000E+00  1.60000000E+01  1.00800000E+00  1.00800000E+00  0.00000000E+00
  1.60000000E+01  1.00800000E+00  1.00800000E+00  0.00000000E+00  1.60000000E+01
  1.00800000E+00  1.00800000E+00  0.00000000E+00  1.60000000E+01  1.00800000E+00
  1.00800000E+00  0.00000000E+00  1.60000000E+01  1.00800000E+00  1.00800000E+00
  0.00000000E+00  1.60000000E+01  1.00800000E+00  1.00800000E+00  0.00000000E+00
  1.60000000E+01  1.00800000E+00  1.00800000E+00  0.00000000E+00  1.60000000E+01
  1.00800000E+00  1.00800000E+00  0.00000000E+00  1.60000000E+01  1.00800000E+00
  1.00800000E+00  0.00000000E+00  1.60000000E+01  1.00800000E+00  1.00800000E+00
  0.00000000E+00  1.60000000E+01  1.00800000E+00  1.00800000E+00  0.00000000E+00
  1.60000000E+01  1.00800000E+00  1.00800000E+00  0.00000000E+00  1.60000000E+01
  1.00800000E+00  1.00800000E+00  0.00000000E+00  1.60000000E+01  1.00800000E+00
  1.00800000E+00  0.00000000E+00  1.60000000E+01  1.00800000E+00  1.00800000E+00
  0.00000000E+00  1.60000000E+01  1.00800000E+00  1.00800000E+00  0.00000000E+00
  1.60000000E+01  1.00800000E+00  1.00800000E+00  0.00000000E+00  1.60000000E+01
  1.00800000E+00  1.00800000E+00  0.00000000E+00  1.60000000E+01  1.00800000E+00
  1.00800000E+00  0.00000000E+00  1.60000000E+01  1.00800000E+00  1.00800000E+00
  0.00000000E+00  1.60000000E+01  1.00800000E+00  1.00800000E+00  0.00000000E+00
  1.60000000E+01  1.00800000E+00  1.00800000E+00  0.00000000E+00  1.60000000E+01
  1.00800000E+00  1.00800000E+00  0.00000000E+00  1.60000000E+01  1.00800000E+00
  1.00800000E+00  0.00000000E+00  1.60000000E+01  1.00800000E+00  1.00800000E+00
  0.00000000E+00  1.60000000E+01  1.00800000E+00  1.00800000E+00  0.00000000E+00
  1.60000000E+01  1.00800000E+00  1.00800000E+00  0.00000000E+00  1.60000000E+01
  1.00800000E+00  1.00800000E+00  0.00000000E+00  1.60000000E+01  1.00800000E+00
  1.00800000E+00  0.00000000E+00  1.60000000E+01  1.00800000E+00  1.00800000E+00
  0.00000000E+00  1.60000000E+01  1.00800000E+00  1.00800000E+00  0.00000000E+00
  1.60000000E+01  1.00800000E+00  1.00800000E+00  0.00000000E+00  1.60000000E+01
  1.00800000E+00  1.00800000E+00  0.00000000E+00  1.60000000E+01  1.00800000E+00
  1.00800000E+00  0.00000000E+00  1.60000000E+01  1.00800000E+00  1.00800000E+00
  0.00000000E+00  1.60000000E+01  1.00800000E+00  1.00800000E+00  0.00000000E+00
  1.60000000E+01  1.00800000E+00  1.00800000E+00  0.00000000E+00  1.60000000E+01
  1.00800000E+00  1.00800000E+00  0.00000000E+00  1.60000000E+01  1.00800000E+00
  1.00800000E+00  0.00000000E+00  1.60000000E+01  1.00800000E+00  1.00800000E+00
  0.00000000E+00  1.60000000E+01  1.00800000E+00  1.00800000E+00  0.00000000E+00
  1.60000000E+01  1.00800000E+00  1.00800000E+00  0.00000000E+00  1.60000000E+01
  1.00800000E+00  1.00800000E+00  0.00000000E+00  1.60000000E+01  1.00800000E+00
  1.00800000E+00  0.00000000E+00  1.60000000E+01  1.00800000E+00  1.00800000E+00
  0.00000000E+00  1.60000000E+01  1.00800000E+00  1.00800000E+00  0.00000000E+00
  1.60000000E+01  1.00800000E+00  1.00800000E+00  0.00000000E+00  1.60000000E+01
  1.00800000E+00  1.00800000E+00  0.00000000E+00  1.60000000E+01  1.00800000E+00
  1.00800000E+00  0.00000000E+00  1.60000000E+01  1.00800000E+00  1.00800000E+00
  0.00000000E+00  1.60000000E+01  1.00800000E+00  1.00800000E+00  0.00000000E+00
  1.60000000E+01  1.00800000E+00  1.00800000E+00  0.00000000E+00  1.60000000E+01
  1.00800000E+00  1.00800000E+00  0.00000000E+00  1.60000000E+01  1.00800000E+00
  1.00800000E+00  0.00000000E+00  1.60000000E+01  1.00800000E+00  1.00800000E+00
  0.00000000E+00  1.60000000E+01  1.00800000E+00  1.00800000E+00  0.00000000E+00
  1.60000000E+01  1.00800000E+00  1.00800000E+00  0.00000000E+00  1.60000000E+01
  1.00800000E+00  1.00800000E+00  0.00000000E+00  1.60000000E+01  1.00800000E+00
  1.00800000E+00  0.00000000E+00  1.60000000E+01  1.00800000E+00  1.00800000E+00
  0.00000000E+00  1.60000000E+01  1.00800000E+00  1.00800000E+00  0.00000000E+00
  1.60000000E+01  1.00800000E+00  1.00800000E+00  0.00000000E+00  1.60000000E+01
  1.00800000E+00  1.00800000E+00  0.00000000E+00  1.60000000E+01  1.00800000E+00
  1.00800000E+00  0.00000000E+00  1.60000000E+01  1.00800000E+00  1.00800000E+00
  0.00000000E+00  1.60000000E+01  1.00800000E+00  1.00800000E+00  0.00000000E+00
  1.60000000E+01  1.00800000E+00  1.00800000E+00  0.00000000E+00  1.60000000E+01
  1.00800000E+00  1.00800000E+00  0.00000000E+00  1.60000000E+01  1.00800000E+00
  1.00800000E+00  0.00000000E+00  1.60000000E+01  1.00800000E+00  1.00800000E+00
  0.00000000E+00  1.60000000E+01  1.00800000E+00  1.00800000E+00  0.00000000E+00
  1.60000000E+01  1.00800000E+00  1.00800000E+00  0.00000000E+00  1.60000000E+01
  1.00800000E+00  1.00800000E+00  0.00000000E+00  1.60000000E+01  1.00800000E+00
  1.00800000E+00  0.00000000E+00  1.60000000E+01  1.00800000E+00  1.00800000E+00
  0.00000000E+00  1.60000000E+01  1.00800000E+00  1.00800000E+00  0.00000000E+00
  1.60000000E+01  1.00800000E+00  1.00800000E+00  0.00000000E+00  1.60000000E+01
  1.00800000E+00  1.00800000E+00  0.00000000E+00  1.60000000E+01  1.00800000E+00
  1.00800000E+00  0.00000000E+00  1.60000000E+01  1.00800000E+00  1.00800000E+00
  0.00000000E+00  1.60000000E+01  1.00800000E+00  1.00800000E+00  0.00000000E+00
  1.60000000E+01  1.00800000E+00  1.00800000E+00  0.00000000E+00  1.60000000E+01
  1.00800000E+00  1.00800000E+00  0.00000000E+00  1.60000000E+01  1.00800000E+00
  1.00800000E+00  0.00000000E+00  1.60000000E+01  1.00800000E+00  1.00800000E+00
  0.00000000E+00  1.60000000E+01  1.00800000E+00  1.00800000E+00  0.00000000E+00
  1.60000000E+01  1.00800000E+00  1.00800000E+00  0.00000000E+00  1.60000000E+01
  1.00800000E+00  1.00800000E+00  0.00000000E+00  1.60000000E+01  1.00800000E+00
  1.00800000E+00  0.00000000E+00  1.60000000E+01  1.00800000E+00  1.00800000E+00
  0.00000000E+00  1.60000000E+01  1.00800000E+00  1.00800000E+00  0.00000000E+00
  1.60000000E+01  1.00800000E+00  1.00800000E+00  0.00000000E+00  1.60000000E+01
  1.00800000E+00  1.00800000E+00  0.00000000E+00  1.60000000E+01  1.00800000E+00
  1.00800000E+00  0.00000000E+00  1.60000000E+01  1.00800000E+00  1.00800000E+00
  0.00000000E+00  1.60000000E+01  1.00800000E+00  1.00800000E+00  0.00000000E+00
  1.60000000E+01  1.00800000E+00  1.00800000E+00  0.00000000E+00  1.60000000E+01
  1.00800000E+00  1.00800000E+00  0.00000000E+00  1.60000000E+01  1.00800000E+00
  1.00800000E+00  0.00000000E+00  1.60000000E+01  1.00800000E+00  1.00800000E+00
  0.00000000E+00  1.60000000E+01  1.00800000E+00  1.00800000E+00  0.00000000E+00
  1.60000000E+01  1.00800000E+00  1.00800000E+00  0.00000000E+00  1.60000000E+01
  1.00800000E+00  1.00800000E+00  0.00000000E+00  1.60000000E+01  1.00800000E+00
  1.00800000E+00  0.00000000E+00  1.60000000E+01  1.00800000E+00  1.00800000E+00
  0.00000000E+00  1.60000000E+01  1.00800000E+00  1.00800000E+00  0.00000000E+00
  1.60000000E+01  1.00800000E+00  1.00800000E+00  0.00000000E+00  1.60000000E+01
  1.00800000E+00  1.00800000E+00  0.00000000E+00  1.60000000E+01  1.00800000E+00
  1.00800000E+00  0.00000000E+00  1.60000000E+01  1.00800000E+00  1.00800000E+00
  0.00000000E+00  1.60000000E+01  1.00800000E+00  1.00800000E+00  0.00000000E+00
  1.60000000E+01  1.00800000E+00  1.00800000E+00  0.00000000E+00  1.60000000E+01
  1.00800000E+00  1.00800000E+00  0.00000000E+00  1.60000000E+01  1.00800000E+00
  1.00800000E+00  0.00000000E+00  1.60000000E+01  1.00800000E+00  1.00800000E+00
  0.00000000E+00  1.60000000E+01  1.00800000E+00  1.00800000E+00  0.00000000E+00
  1.60000000E+01  1.00800000E+00  1.00800000E+00  0.00000000E+00  1.60000000E+01
  1.00800000E+00  1.00800000E+00  0.00000000E+00  1.60000000E+01  1.00800000E+00
  1.00800000E+00  0.00000000E+00  1.60000000E+01  1.00800000E+00  1.00800000E+00
  0.00000000E+00  1.60000000E+01  1.00800000E+00  1.00800000E+00  0.00000000E+00
  1.60000000E+01  1.00800000E+00  1.00800000E+00  0.00000000E+00  1.60000000E+01
  1.00800000E+00  1.00800000E+00  0.00000000E+00  1.60000000E+01  1.00800000E+00
  1.00800000E+00  0.00000000E+00  1.60000000E+01  1.00800000E+00  1.00800000E+00
  0.00000000E+00  1.60000000E+01  1.00800000E+00  1.00800000E+00  0.00000000E+00
  1.60000000E+01  1.00800000E+00  1.00800000E+00  0.00000000E+00  1.60000000E+01
  1.00800000E+00  1.00800000E+00  0.00000000E+00  1.60000000E+01  1.00800000E+00
  1.00800000E+00  0.00000000E+00  1.60000000E+01  1.00800000E+00  1.00800000E+00
  0.00000000E+00  1.60000000E+01  1.00800000E+00  1.00800000E+00  0.00000000E+00
  1.60000000E+01  1.00800000E+00  1.00800000E+00  0.00000000E+00  1.60000000E+01
  1.00800000E+00  1.00800000E+00  0.00000000E+00  1.60000000E+01  1.00800000E+00
  1.00800000E+00  0.00000000E+00  1.60000000E+01  1.00800000E+00  1.00800000E+00
  0.00000000E+00  1.60000000E+01  1.00800000E+00  1.00800000E+00  0.00000000E+00
  1.60000000E+01  1.00800000E+00  1.00800000E+00  0.00000000E+00  1.60000000E+01
  1.00800000E+00  1.00800000E+00  0.00000000E+00  1.60000000E+01  1.00800000E+00
  1.00800000E+00  0.00000000E+00  1.60000000E+01  1.00800000E+00  1.00800000E+00
  0.00000000E+00  1.60000000E+01  1.00800000E+00  1.00800000E+00  0.00000000E+00
  1.60000000E+01  1.00800000E+00  1.00800000E+00  0.00000000E+00  1.60000000E+01
  1.00800000E+00  1.00800000E+00  0.00000000E+00  1.60000000E+01  1.00800000E+00
  1.00800000E+00  0.00000000E+00  1.60000000E+01  1.00800000E+00  1.00800000E+00
  0.00000000E+00  1.60000000E+01  1.00800000E+00  1.00800000E+00  0.00000000E+00
  1.60000000E+01  1.00800000E+00  1.00800000E+00  0.00000000E+00  1.60000000E+01
  1.00800000E+00  1.00800000E+00  0.00000000E+00  1.60000000E+01  1.00800000E+00
  1.00800000E+00  0.00000000E+00  1.60000000E+01  1.00800000E+00  1.00800000E+00
  0.00000000E+00  1.60000000E+01  1.00800000E+00  1.00800000E+00  0.00000000E+00
  1.60000000E+01  1.00800000E+00  1.00800000E+00  0.00000000E+00  1.60000000E+01
  1.00800000E+00  1.00800000E+00  0.00000000E+00  1.60000000E+01  1.00800000E+00
  1.00800000E+00  0.00000000E+00  1.60000000E+01  1.00800000E+00  1.00800000E+00
  0.00000000E+00  1.60000000E+01  1.00800000E+00  1.00800000E+00  0.00000000E+00
  1.60000000E+01  1.00800000E+00  1.00800000E+00  0.00000000E+00  1.60000000E+01
  1.00800000E+00  1.00800000E+00  0.00000000E+00  1.60000000E+01  1.00800000E+00
  1.00800000E+00  0.00000000E+00  1.60000000E+01  1.00800000E+00  1.00800000E+00
  0.00000000E+00  1.60000000E+01  1.00800000E+00  1.00800000E+00  0.00000000E+00
  1.60000000E+01  1.00800000E+00  1.00800000E+00  0.00000000E+00  1.60000000E+01
  1.00800000E+00  1.00800000E+00  0.00000000E+00  1.60000000E+01  1.00800000E+00
  1.00800000E+00  0.00000000E+00  1.60000000E+01  1.00800000E+00  1.00800000E+00
  0.00000000E+00  1.60000000E+01  1.00800000E+00  1.00800000E+00  0.00000000E+00
  1.60000000E+01  1.00800000E+00  1.00800000E+00  0.00000000E+00  1.60000000E+01
  1.00800000E+00  1.00800000E+00  0.00000000E+00  1.60000000E+01  1.00800000E+00
  1.00800000E+00  0.00000000E+00  1.60000000E+01  1.00800000E+00  1.00800000E+00
  0.00000000E+00  1.60000000E+01  1.00800000E+00  1.00800000E+00  0.00000000E+00
  1.60000000E+01  1.00800000E+00  1.00800000E+00  0.00000000E+00  1.60000000E+01
  1.00800000E+00  1.00800000E+00  0.00000000E+00  1.60000000E+01  1.00800000E+00
  1.00800000E+00  0.00000000E+00  1.60000000E+01  1.00800000E+00  1.00800000E+00
  0.00000000E+00  1.60000000E+01  1.00800000E+00  1.00800000E+00  0.00000000E+00
  1.60000000E+01  1.00800000E+00  1.00800000E+00  0.00000000E+00  1.60000000E+01
  1.00800000E+00  1.00800000E+00  0.00000000E+00  1.60000000E+01  1.00800000E+00
  1.00800000E+00  0.00000000E+00  1.60000000E+01  1.00800000E+00  1.00800000E+00
  0.00000000E+00  1.60000000E+01  1.00800000E+00  1.00800000E+00  0.00000000E+00
  1.60000000E+01  1.00800000E+00  1.00800000E+00  0.00000000E+00  1.60000000E+01
  1.00800000E+00  1.00800000E+00  0.00000000E+00  1.60000000E+01  1.00800000E+00
  1.00800000E+00  0.00000000E+00  1.60000000E+01  1.00800000E+00  1.00800000E+00
  0.00000000E+00  1.60000000E+01  1.00800000E+00  1.00800000E+00  0.00000000E+00
  1.60000000E+01  1.00800000E+00  1.00800000E+00  0.00000000E+00  1.60000000E+01
  1.00800000E+00  1.00800000E+00  0.00000000E+00  1.60000000E+01  1.00800000E+00
  1.00800000E+00  0.00000000E+00  1.60000000E+01  1.00800000E+00  1.00800000E+00
  0.00000000E+00  1.60000000E+01  1.00800000E+00  1.00800000E+00  0.00000000E+00
  1.60000000E+01  1.00800000E+00  1.00800000E+00  0.00000000E+00  1.60000000E+01
  1.00800000E+00  1.00800000E+00  0.00000000E+00  1.60000000E+01  1.00800000E+00
  1.00800000E+00  0.00000000E+00  1.60000000E+01  1.00800000E+00  1.00800000E+00
  0.00000000E+00  1.60000000E+01  1.00800000E+00  1.00800000E+00  0.00000000E+00
  1.60000000E+01  1.00800000E+00  1.00800000E+00  0.00000000E+00  1.60000000E+01
  1.00800000E+00  1.00800000E+00  0.00000000E+00  1.60000000E+01  1.00800000E+00
  1.00800000E+00  0.00000000E+00  1.60000000E+01  1.00800000E+00  1.00800000E+00
  0.00000000E+00  1.60000000E+01  1.00800000E+00  1.00800000E+00  0.00000000E+00
  1.60000000E+01  1.00800000E+00  1.00800000E+00  0.00000000E+00  1.60000000E+01
  1.00800000E+00  1.00800000E+00  0.00000000E+00  1.60000000E+01  1.00800000E+00
  1.00800000E+00  0.00000000E+00  1.60000000E+01  1.00800000E+00  1.00800000E+00
  0.00000000E+00  1.60000000E+01  1.00800000E+00  1.00800000E+00  0.00000000E+00
  1.60000000E+01  1.00800000E+00  1.00800000E+00  0.00000000E+00  1.60000000E+01
  1.00800000E+00  1.00800000E+00  0.00000000E+00  1.60000000E+01  1.00800000E+00
  1.00800000E+00  0.00000000E+00  1.60000000E+01  1.00800000E+00  1.00800000E+00
  0.00000000E+00  1.60000000E+01  1.00800000E+00  1.00800000E+00  0.00000000E+00
  1.60000000E+01  1.00800000E+00  1.00800000E+00  0.00000000E+00  1.60000000E+01
  1.00800000E+00  1.00800000E+00  0.00000000E+00  1.60000000E+01  1.00800000E+00
  1.00800000E+00  0.00000000E+00  1.60000000E+01  1.00800000E+00  1.00800000E+00
  0.00000000E+00  1.60000000E+01  1.00800000E+00  1.00800000E+00  0.00000000E+00
  1.60000000E+01  1.00800000E+00  1.00800000E+00  0.00000000E+00  1.60000000E+01
  1.00800000E+00  1.00800000E+00  0.00000000E+00  1.60000000E+01  1.00800000E+00
  1.00800000E+00  0.00000000E+00  1.60000000E+01  1.00800000E+00  1.00800000E+00
  0.00000000E+00  1.60000000E+01  1.00800000E+00  1.00800000E+00  0.00000000E+00
  1.60000000E+01  1.00800000E+00  1.00800000E+00  0.00000000E+00  1.60000000E+01
  1.00800000E+00  1.00800000E+00  0.00000000E+00  1.60000000E+01  1.00800000E+00
  1.00800000E+00  0.00000000E+00  1.60000000E+01  1.00800000E+00  1.00800000E+00
  0.00000000E+00  1.60000000E+01  1.00800000E+00  1.00800000E+00  0.00000000E+00
  1.60000000E+01  1.00800000E+00  1.00800000E+00  0.00000000E+00  1.60000000E+01
  1.00800000E+00  1.00800000E+00  0.00000000E+00  1.60000000E+01  1.00800000E+00
  1.00800000E+00  0.00000000E+00  1.60000000E+01  1.00800000E+00  1.00800000E+00
  0.00000000E+00  1.60000000E+01  1.00800000E+00  1.00800000E+00  0.00000000E+00
  1.60000000E+01  1.00800000E+00  1.00800000E+00  0.00000000E+00  1.60000000E+01
  1.00800000E+00  1.00800000E+00  0.00000000E+00  1.60000000E+01  1.00800000E+00
  1.00800000E+00  0.00000000E+00  1.60000000E+01  1.00800000E+00  1.00800000E+00
  0.00000000E+00  1.60000000E+01  1.00800000E+00  1.00800000E+00  0.00000000E+00
  1.60000000E+01  1.00800000E+00  1.00800000E+00  0.00000000E+00  1.60000000E+01
  1.00800000E+00  1.00800000E+00  0.00000000E+00  1.60000000E+01  1.00800000E+00
  1.00800000E+00  0.00000000E+00  1.60000000E+01  1.00800000E+00  1.00800000E+00
  0.00000000E+00  1.60000000E+01  1.00800000E+00  1.00800000E+00  0.00000000E+00
  1.60000000E+01  1.00800000E+00  1.00800000E+00  0.00000000E+00  1.60000000E+01
  1.00800000E+00  1.00800000E+00  0.00000000E+00  1.60000000E+01  1.00800000E+00
  1.00800000E+00  0.00000000E+00  1.60000000E+01  1.00800000E+00  1.00800000E+00
  0.00000000E+00  1.60000000E+01  1.00800000E+00  1.00800000E+00  0.00000000E+00
  1.60000000E+01  1.00800000E+00  1.00800000E+00  0.00000000E+00  1.60000000E+01
  1.00800000E+00  1.00800000E+00  0.00000000E+00  1.60000000E+01  1.00800000E+00
  1.00800000E+00  0.00000000E+00  1.60000000E+01  1.00800000E+00  1.00800000E+00
  0.00000000E+00  1.60000000E+01  1.00800000E+00  1.00800000E+00  0.00000000E+00
  1.60000000E+01  1.00800000E+00  1.00800000E+00  0.00000000E+00  1.60000000E+01
  1.00800000E+00  1.00800000E+00  0.00000000E+00  1.60000000E+01  1.00800000E+00
  1.00800000E+00  0.00000000E+00  1.60000000E+01  1.00800000E+00  1.00800000E+00
  0.00000000E+00  1.60000000E+01  1.00800000E+00  1.00800000E+00  0.00000000E+00
  1.60000000E+01  1.00800000E+00  1.00800000E+00  0.00000000E+00  1.60000000E+01
  1.00800000E+00  1.00800000E+00  0.00000000E+00  1.60000000E+01  1.00800000E+00
  1.00800000E+00  0.00000000E+00  1.60000000E+01  1.00800000E+00  1.00800000E+00
  0.00000000E+00  1.60000000E+01  1.00800000E+00  1.00800000E+00  0.00000000E+00
  1.60000000E+01  1.00800000E+00  1.00800000E+00  0.00000000E+00  1.60000000E+01
  1.00800000E+00  1.00800000E+00  0.00000000E+00  1.60000000E+01  1.00800000E+00
  1.00800000E+00  0.00000000E+00  1.60000000E+01  1.00800000E+00  1.00800000E+00
  0.00000000E+00  1.60000000E+01  1.00800000E+00  1.00800000E+00  0.00000000E+00
  1.60000000E+01  1.00800000E+00  1.00800000E+00  0.00000000E+00  1.60000000E+01
  1.00800000E+00  1.00800000E+00  0.00000000E+00  1.60000000E+01  1.00800000E+00
  1.00800000E+00  0.00000000E+00  1.60000000E+01  1.00800000E+00  1.00800000E+00
  0.00000000E+00  1.60000000E+01  1.00800000E+00  1.00800000E+00  0.00000000E+00
  1.60000000E+01  1.00800000E+00  1.00800000E+00  0.00000000E+00  1.60000000E+01
  1.00800000E+00  1.00800000E+00  0.00000000E+00  1.60000000E+01  1.00800000E+00
  1.00800000E+00  0.00000000E+00  1.60000000E+01  1.00800000E+00  1.00800000E+00
  0.00000000E+00  1.60000000E+01  1.00800000E+00  1.00800000E+00  0.00000000E+00
  1.60000000E+01  1.00800000E+00  1.00800000E+00  0.00000000E+00  1.60000000E+01
  1.00800000E+00  1.00800000E+00  0.00000000E+00  1.60000000E+01  1.00800000E+00
  1.00800000E+00  0.00000000E+00  1.60000000E+01  1.00800000E+00  1.00800000E+00
  0.00000000E+00  1.60000000E+01  1.00800000E+00  1.00800000E+00  0.00000000E+00
  1.60000000E+01  1.00800000E+00  1.00800000E+00  0.00000000E+00  1.60000000E+01
  1.00800000E+00  1.00800000E+00  0.00000000E+00  1.60000000E+01  1.00800000E+00
  1.00800000E+00  0.00000000E+00  1.60000000E+01  1.00800000E+00  1.00800000E+00
  0.00000000E+00  1.60000000E+01  1.00800000E+00  1.00800000E+00  0.00000000E+00
  1.60000000E+01  1.00800000E+00  1.00800000E+00  0.00000000E+00  1.60000000E+01
  1.00800000E+00  1.00800000E+00  0.00000000E+00  1.60000000E+01  1.00800000E+00
  1.00800000E+00  0.00000000E+00  1.60000000E+01  1.00800000E+00  1.00800000E+00
  0.00000000E+00  1.60000000E+01  1.00800000E+00  1.00800000E+00  0.00000000E+00
  1.60000000E+01  1.00800000E+00  1.00800000E+00  0.00000000E+00  1.60000000E+01
  1.00800000E+00  1.00800000E+00  0.00000000E+00  1.60000000E+01  1.00800000E+00
  1.00800000E+00  0.00000000E+00  1.60000000E+01  1.00800000E+00  1.00800000E+00
  0.00000000E+00  1.60000000E+01  1.00800000E+00  1.00800000E+00  0.00000000E+00
  1.60000000E+01  1.00800000E+00  1.00800000E+00  0.00000000E+00  1.60000000E+01
  1.00800000E+00  1.00800000E+00  0.00000000E+00  1.60000000E+01  1.00800000E+00
  1.00800000E+00  0.00000000E+00  1.60000000E+01  1.00800000E+00  1.00800000E+00
  0.00000000E+00  1.60000000E+01  1.00800000E+00  1.00800000E+00  0.00000000E+00
  1.60000000E+01  1.00800000E+00  1.00800000E+00  0.00000000E+00  1.60000000E+01
  1.00800000E+00  1.00800000E+00  0.00000000E+00  1.60000000E+01  1.00800000E+00
  1.00800000E+00  0.00000000E+00  1.60000000E+01  1.00800000E+00  1.00800000E+00
  0.00000000E+00  1.60000000E+01  1.00800000E+00  1.00800000E+00  0.00000000E+00
  1.60000000E+01  1.00800000E+00  1.00800000E+00  0.00000000E+00  1.60000000E+01
  1.00800000E+00  1.00800000E+00  0.00000000E+00  1.60000000E+01  1.00800000E+00
  1.00800000E+00  0.00000000E+00  1.60000000E+01  1.00800000E+00  1.00800000E+00
  0.00000000E+00  1.60000000E+01  1.00800000E+00  1.00800000E+00  0.00000000E+00
  1.60000000E+01  1.00800000E+00  1.00800000E+00  0.00000000E+00  1.60000000E+01
  1.00800000E+00  1.00800000E+00  0.00000000E+00  1.60000000E+01  1.00800000E+00
  1.00800000E+00  0.00000000E+00  1.60000000E+01  1.00800000E+00  1.00800000E+00
  0.00000000E+00  1.60000000E+01  1.00800000E+00  1.00800000E+00  0.00000000E+00
  1.60000000E+01  1.00800000E+00  1.00800000E+00  0.00000000E+00  1.60000000E+01
  1.00800000E+00  1.00800000E+00  0.00000000E+00  1.60000000E+01  1.00800000E+00
  1.00800000E+00  0.00000000E+00  1.60000000E+01  1.00800000E+00  1.00800000E+00
  0.00000000E+00  1.60000000E+01  1.00800000E+00  1.00800000E+00  0.00000000E+00
  1.60000000E+01  1.00800000E+00  1.00800000E+00  0.00000000E+00  1.60000000E+01
  1.00800000E+00  1.00800000E+00  0.00000000E+00  1.60000000E+01  1.00800000E+00
  1.00800000E+00  0.00000000E+00  1.60000000E+01  1.00800000E+00  1.00800000E+00
  0.00000000E+00  1.60000000E+01  1.00800000E+00  1.00800000E+00  0.00000000E+00
  1.60000000E+01  1.00800000E+00  1.00800000E+00  0.00000000E+00  1.60000000E+01
  1.00800000E+00  1.00800000E+00  0.00000000E+00  1.60000000E+01  1.00800000E+00
  1.00800000E+00  0.00000000E+00  1.60000000E+01  1.00800000E+00  1.00800000E+00
  0.00000000E+00  1.60000000E+01  1.00800000E+00  1.00800000E+00  0.00000000E+00
  1.60000000E+01  1.00800000E+00  1.00800000E+00  0.00000000E+00  1.60000000E+01
  1.00800000E+00  1.00800000E+00  0.00000000E+00  1.60000000E+01  1.00800000E+00
  1.00800000E+00  0.00000000E+00  1.60000000E+01  1.00800000E+00  1.00800000E+00
  0.00000000E+00  1.60000000E+01  1.00800000E+00  1.00800000E+00  0.00000000E+00
  1.60000000E+01  1.00800000E+00  1.00800000E+00  0.00000000E+00  1.60000000E+01
  1.00800000E+00  1.00800000E+00  0.00000000E+00  1.60000000E+01  1.00800000E+00
  1.00800000E+00  0.00000000E+00  1.60000000E+01  1.00800000E+00  1.00800000E+00
  0.00000000E+00  1.60000000E+01  1.00800000E+00  1.00800000E+00  0.00000000E+00
  1.60000000E+01  1.00800000E+00  1.00800000E+00  0.00000000E+00  1.60000000E+01
  1.00800000E+00  1.00800000E+00  0.00000000E+00  1.60000000E+01  1.00800000E+00
  1.00800000E+00  0.00000000E+00  1.60000000E+01  1.00800000E+00  1.00800000E+00
  0.00000000E+00  1.60000000E+01  1.00800000E+00  1.00800000E+00  0.00000000E+00
  1.60000000E+01  1.00800000E+00  1.00800000E+00  0.00000000E+00  1.60000000E+01
  1.00800000E+00  1.00800000E+00  0.00000000E+00  1.60000000E+01  1.00800000E+00
  1.00800000E+00  0.00000000E+00  1.60000000E+01  1.00800000E+00  1.00800000E+00
  0.00000000E+00  1.60000000E+01  1.00800000E+00  1.00800000E+00  0.00000000E+00
  1.60000000E+01  1.00800000E+00  1.00800000E+00  0.00000000E+00  1.60000000E+01
  1.00800000E+00  1.00800000E+00  0.00000000E+00  1.60000000E+01  1.00800000E+00
  1.00800000E+00  0.00000000E+00  1.60000000E+01  1.00800000E+00  1.00800000E+00
  0.00000000E+00  1.60000000E+01  1.00800000E+00  1.00800000E+00  0.00000000E+00
  1.60000000E+01  1.00800000E+00  1.00800000E+00  0.00000000E+00  1.60000000E+01
  1.00800000E+00  1.00800000E+00  0.00000000E+00  1.60000000E+01  1.00800000E+00
  1.00800000E+00  0.00000000E+00  1.60000000E+01  1.00800000E+00  1.00800000E+00
  0.00000000E+00  1.60000000E+01  1.00800000E+00  1.00800000E+00  0.00000000E+00
  1.60000000E+01  1.00800000E+00  1.00800000E+00  0.00000000E+00  1.60000000E+01
  1.00800000E+00  1.00800000E+00  0.00000000E+00  1.60000000E+01  1.00800000E+00
  1.00800000E+00  0.00000000E+00  1.60000000E+01  1.00800000E+00  1.00800000E+00
  0.00000000E+00  1.60000000E+01  1.00800000E+00  1.00800000E+00  0.00000000E+00
  1.60000000E+01  1.00800000E+00  1.00800000E+00  0.00000000E+00  1.60000000E+01
  1.00800000E+00  1.00800000E+00  0.00000000E+00  1.60000000E+01  1.00800000E+00
  1.00800000E+00  0.00000000E+00  1.60000000E+01  1.00800000E+00  1.00800000E+00
  0.00000000E+00  1.60000000E+01  1.00800000E+00  1.00800000E+00  0.00000000E+00
  1.60000000E+01  1.00800000E+00  1.00800000E+00  0.00000000E+00  1.60000000E+01
  1.00800000E+00  1.00800000E+00  0.00000000E+00  1.60000000E+01  1.00800000E+00
  1.00800000E+00  0.00000000E+00  1.60000000E+01  1.00800000E+00  1.00800000E+00
  0.00000000E+00  1.60000000E+01  1.00800000E+00  1.00800000E+00  0.00000000E+00
  1.60000000E+01  1.00800000E+00  1.00800000E+00  0.00000000E+00  1.60000000E+01
  1.00800000E+00  1.00800000E+00  0.00000000E+00  1.60000000E+01  1.00800000E+00
  1.00800000E+00  0.00000000E+00  1.60000000E+01  1.00800000E+00  1.00800000E+00
  0.00000000E+00  1.60000000E+01  1.00800000E+00  1.00800000E+00  0.00000000E+00
  1.60000000E+01  1.00800000E+00  1.00800000E+00  0.00000000E+00  1.60000000E+01
  1.00800000E+00  1.00800000E+00  0.00000000E+00  1.60000000E+01  1.00800000E+00
  1.00800000E+00  0.00000000E+00  1.60000000E+01  1.00800000E+00  1.00800000E+00
  0.00000000E+00  1.60000000E+01  1.00800000E+00  1.00800000E+00  0.00000000E+00
  1.60000000E+01  1.00800000E+00  1.00800000E+00  0.00000000E+00  1.60000000E+01
  1.00800000E+00  1.00800000E+00  0.00000000E+00  1.60000000E+01  1.00800000E+00
  1.00800000E+00  0.00000000E+00  1.60000000E+01  1.00800000E+00  1.00800000E+00
  0.00000000E+00  1.60000000E+01  1.00800000E+00  1.00800000E+00  0.00000000E+00
  1.60000000E+01  1.00800000E+00  1.00800000E+00  0.00000000E+00  1.60000000E+01
  1.00800000E+00  1.00800000E+00  0.00000000E+00  1.60000000E+01  1.00800000E+00
  1.00800000E+00  0.00000000E+00  1.60000000E+01  1.00800000E+00  1.00800000E+00
  0.00000000E+00  1.60000000E+01  1.00800000E+00  1.00800000E+00  0.00000000E+00
  1.60000000E+01  1.00800000E+00  1.00800000E+00  0.00000000E+00  1.60000000E+01
  1.00800000E+00  1.00800000E+00  0.00000000E+00  1.60000000E+01  1.00800000E+00
  1.00800000E+00  0.00000000E+00  1.60000000E+01  1.00800000E+00  1.00800000E+00
  0.00000000E+00  1.60000000E+01  1.00800000E+00  1.00800000E+00  0.00000000E+00
  1.60000000E+01  1.00800000E+00  1.00800000E+00  0.00000000E+00  1.60000000E+01
  1.00800000E+00  1.00800000E+00  0.00000000E+00  1.60000000E+01  1.00800000E+00
  1.00800000E+00  0.00000000E+00  1.60000000E+01  1.00800000E+00  1.00800000E+00
  0.00000000E+00  1.60000000E+01  1.00800000E+00  1.00800000E+00  0.00000000E+00
  1.60000000E+01  1.00800000E+00  1.00800000E+00  0.00000000E+00  1.60000000E+01
  1.00800000E+00  1.00800000E+00  0.00000000E+00  1.60000000E+01  1.00800000E+00
  1.00800000E+00  0.00000000E+00  1.60000000E+01  1.00800000E+00  1.00800000E+00
  0.00000000E+00  1.60000000E+01  1.00800000E+00  1.00800000E+00  0.00000000E+00
  1.60000000E+01  1.00800000E+00  1.00800000E+00  0.00000000E+00  1.60000000E+01
  1.00800000E+00  1.00800000E+00  0.00000000E+00  1.60000000E+01  1.00800000E+00
  1.00800000E+00  0.00000000E+00  1.60000000E+01  1.00800000E+00  1.00800000E+00
  0.00000000E+00  1.60000000E+01  1.00800000E+00  1.00800000E+00  0.00000000E+00
  1.60000000E+01  1.00800000E+00  1.00800000E+00  0.00000000E+00  1.60000000E+01
  1.00800000E+00  1.00800000E+00  0.00000000E+00  1.60000000E+01  1.00800000E+00
  1.00800000E+00  0.00000000E+00  1.60000000E+01  1.00800000E+00  1.00800000E+00
  0.00000000E+00  1.60000000E+01  1.00800000E+00  1.00800000E+00  0.00000000E+00
  1.60000000E+01  1.00800000E+00  1.00800000E+00  0.00000000E+00  1.60000000E+01
  1.00800000E+00  1.00800000E+00  0.00000000E+00  1.60000000E+01  1.00800000E+00
  1.00800000E+00  0.00000000E+00  1.60000000E+01  1.00800000E+00  1.00800000E+00
  0.00000000E+00  1.60000000E+01  1.00800000E+00  1.00800000E+00  0.00000000E+00
  1.60000000E+01  1.00800000E+00  1.00800000E+00  0.00000000E+00  1.60000000E+01
  1.00800000E+00  1.00800000E+00  0.00000000E+00  1.60000000E+01  1.00800000E+00
  1.00800000E+00  0.00000000E+00  1.60000000E+01  1.00800000E+00  1.00800000E+00
  0.00000000E+00  1.60000000E+01  1.00800000E+00  1.00800000E+00  0.00000000E+00
  1.60000000E+01  1.00800000E+00  1.00800000E+00  0.00000000E+00  1.60000000E+01
  1.00800000E+00  1.00800000E+00  0.00000000E+00  1.60000000E+01  1.00800000E+00
  1.00800000E+00  0.00000000E+00  1.60000000E+01  1.00800000E+00  1.00800000E+00
  0.00000000E+00  1.60000000E+01  1.00800000E+00  1.00800000E+00  0.00000000E+00
  1.60000000E+01  1.00800000E+00  1.00800000E+00  0.00000000E+00  1.60000000E+01
  1.00800000E+00  1.00800000E+00  0.00000000E+00  1.60000000E+01  1.00800000E+00
  1.00800000E+00  0.00000000E+00  1.60000000E+01  1.00800000E+00  1.00800000E+00
  0.00000000E+00  1.60000000E+01  1.00800000E+00  1.00800000E+00  0.00000000E+00
  1.60000000E+01  1.00800000E+00  1.00800000E+00  0.00000000E+00  1.60000000E+01
  1.00800000E+00  1.00800000E+00  0.00000000E+00  1.60000000E+01  1.00800000E+00
  1.00800000E+00  0.00000000E+00  1.60000000E+01  1.00800000E+00  1.00800000E+00
  0.00000000E+00  1.60000000E+01  1.00800000E+00  1.00800000E+00  0.00000000E+00
  1.60000000E+01  1.00800000E+00  1.00800000E+00  0.00000000E+00  1.60000000E+01
  1.00800000E+00  1.00800000E+00  0.00000000E+00  1.60000000E+01  1.00800000E+00
  1.00800000E+00  0.00000000E+00  1.60000000E+01  1.00800000E+00  1.00800000E+00
  0.00000000E+00  1.60000000E+01  1.00800000E+00  1.00800000E+00  0.00000000E+00
  1.60000000E+01  1.00800000E+00  1.00800000E+00  0.00000000E+00  1.60000000E+01
  1.00800000E+00  1.00800000E+00  0.00000000E+00  1.60000000E+01  1.00800000E+00
  1.00800000E+00  0.00000000E+00  1.60000000E+01  1.00800000E+00  1.00800000E+00
  0.00000000E+00  1.60000000E+01  1.00800000E+00  1.00800000E+00  0.00000000E+00
  1.60000000E+01  1.00800000E+00  1.00800000E+00  0.00000000E+00  1.60000000E+01
  1.00800000E+00  1.00800000E+00  0.00000000E+00  1.60000000E+01  1.00800000E+00
  1.00800000E+00  0.00000000E+00  1.60000000E+01  1.00800000E+00  1.00800000E+00
  0.00000000E+00  1.60000000E+01  1.00800000E+00  1.00800000E+00  0.00000000E+00
  1.60000000E+01  1.00800000E+00  1.00800000E+00  0.00000000E+00  1.60000000E+01
  1.00800000E+00  1.00800000E+00  0.00000000E+00  1.60000000E+01  1.00800000E+00
  1.00800000E+00  0.00000000E+00  1.60000000E+01  1.00800000E+00  1.00800000E+00
  0.00000000E+00  1.60000000E+01  1.00800000E+00  1.00800000E+00  0.00000000E+00
  1.60000000E+01  1.00800000E+00  1.00800000E+00  0.00000000E+00  1.60000000E+01
  1.00800000E+00  1.00800000E+00  0.00000000E+00  1.60000000E+01  1.00800000E+00
  1.00800000E+00  0.00000000E+00  1.60000000E+01  1.00800000E+00  1.00800000E+00
  0.00000000E+00  1.60000000E+01  1.00800000E+00  1.00800000E+00  0.00000000E+00
  1.60000000E+01  1.00800000E+00  1.00800000E+00  0.00000000E+00  1.60000000E+01
  1.00800000E+00  1.00800000E+00  0.00000000E+00  1.60000000E+01  1.00800000E+00
  1.00800000E+00  0.00000000E+00  1.60000000E+01  1.00800000E+00  1.00800000E+00
  0.00000000E+00  1.60000000E+01  1.00800000E+00  1.00800000E+00  0.00000000E+00
  1.60000000E+01  1.00800000E+00  1.00800000E+00  0.00000000E+00  1.60000000E+01
  1.00800000E+00  1.00800000E+00  0.00000000E+00  1.60000000E+01  1.00800000E+00
  1.00800000E+00  0.00000000E+00  1.60000000E+01  1.00800000E+00  1.00800000E+00
  0.00000000E+00  1.60000000E+01  1.00800000E+00  1.00800000E+00  0.00000000E+00
  1.60000000E+01  1.00800000E+00  1.00800000E+00  0.00000000E+00  1.60000000E+01
  1.00800000E+00  1.00800000E+00  0.00000000E+00  1.60000000E+01  1.00800000E+00
  1.00800000E+00  0.00000000E+00  1.60000000E+01  1.00800000E+00  1.00800000E+00
  0.00000000E+00  1.60000000E+01  1.00800000E+00  1.00800000E+00  0.00000000E+00
  1.60000000E+01  1.00800000E+00  1.00800000E+00  0.00000000E+00  1.60000000E+01
  1.00800000E+00  1.00800000E+00  0.00000000E+00  1.60000000E+01  1.00800000E+00
  1.00800000E+00  0.00000000E+00  1.60000000E+01  1.00800000E+00  1.00800000E+00
  0.00000000E+00  1.60000000E+01  1.00800000E+00  1.00800000E+00  0.00000000E+00
  1.60000000E+01  1.00800000E+00  1.00800000E+00  0.00000000E+00  1.60000000E+01
  1.00800000E+00  1.00800000E+00  0.00000000E+00  1.60000000E+01  1.00800000E+00
  1.00800000E+00  0.00000000E+00  1.60000000E+01  1.00800000E+00  1.00800000E+00
  0.00000000E+00  1.60000000E+01  1.00800000E+00  1.00800000E+00  0.00000000E+00
  1.60000000E+01  1.00800000E+00  1.00800000E+00  0.00000000E+00  1.60000000E+01
  1.00800000E+00  1.00800000E+00  0.00000000E+00  1.60000000E+01  1.00800000E+00
  1.00800000E+00  0.00000000E+00  1.60000000E+01  1.00800000E+00  1.00800000E+00
  0.00000000E+00  1.60000000E+01  1.00800000E+00  1.00800000E+00  0.00000000E+00
  1.60000000E+01  1.00800000E+00  1.00800000E+00  0.00000000E+00  1.60000000E+01
  1.00800000E+00  1.00800000E+00  0.00000000E+00  1.60000000E+01  1.00800000E+00
  1.00800000E+00  0.00000000E+00  1.60000000E+01  1.00800000E+00  1.00800000E+00
  0.00000000E+00  1.60000000E+01  1.00800000E+00  1.00800000E+00  0.00000000E+00
  1.60000000E+01  1.00800000E+00  1.00800000E+00  0.00000000E+00  1.60000000E+01
  1.00800000E+00  1.00800000E+00  0.00000000E+00  1.60000000E+01  1.00800000E+00
  1.00800000E+00  0.00000000E+00  1.60000000E+01  1.00800000E+00  1.00800000E+00
  0.00000000E+00  1.60000000E+01  1.00800000E+00  1.00800000E+00  0.00000000E+00
  1.60000000E+01  1.00800000E+00  1.00800000E+00  0.00000000E+00  1.60000000E+01
  1.00800000E+00  1.00800000E+00  0.00000000E+00  1.60000000E+01  1.00800000E+00
  1.00800000E+00  0.00000000E+00  1.60000000E+01  1.00800000E+00  1.00800000E+00
  0.00000000E+00  1.60000000E+01  1.00800000E+00  1.00800000E+00  0.00000000E+00
  1.60000000E+01  1.00800000E+00  1.00800000E+00  0.00000000E+00  1.60000000E+01
  1.00800000E+00  1.00800000E+00  0.00000000E+00  1.60000000E+01  1.00800000E+00
  1.00800000E+00  0.00000000E+00  1.60000000E+01  1.00800000E+00  1.00800000E+00
  0.00000000E+00  1.60000000E+01  1.00800000E+00  1.00800000E+00  0.00000000E+00
  1.60000000E+01  1.00800000E+00  1.00800000E+00  0.00000000E+00  1.60000000E+01
  1.00800000E+00  1.00800000E+00  0.00000000E+00  1.60000000E+01  1.00800000E+00
  1.00800000E+00  0.00000000E+00  1.60000000E+01  1.00800000E+00  1.00800000E+00
  0.00000000E+00  1.60000000E+01  1.00800000E+00  1.00800000E+00  0.00000000E+00
  1.60000000E+01  1.00800000E+00  1.00800000E+00  0.00000000E+00  1.60000000E+01
  1.00800000E+00  1.00800000E+00  0.00000000E+00  1.60000000E+01  1.00800000E+00
  1.00800000E+00  0.00000000E+00  1.60000000E+01  1.00800000E+00  1.00800000E+00
  0.00000000E+00  1.60000000E+01  1.00800000E+00  1.00800000E+00  0.00000000E+00
  1.60000000E+01  1.00800000E+00  1.00800000E+00  0.00000000E+00  1.60000000E+01
  1.00800000E+00  1.00800000E+00  0.00000000E+00  1.60000000E+01  1.00800000E+00
  1.00800000E+00  0.00000000E+00  1.60000000E+01  1.00800000E+00  1.00800000E+00
  0.00000000E+00  1.60000000E+01  1.00800000E+00  1.00800000E+00  0.00000000E+00
  1.60000000E+01  1.00800000E+00  1.00800000E+00  0.00000000E+00  1.60000000E+01
  1.00800000E+00  1.00800000E+00  0.00000000E+00  1.60000000E+01  1.00800000E+00
  1.00800000E+00  0.00000000E+00  1.60000000E+01  1.00800000E+00  1.00800000E+00
  0.00000000E+00  1.60000000E+01  1.00800000E+00  1.00800000E+00  0.00000000E+00
  1.60000000E+01  1.00800000E+00  1.00800000E+00  0.00000000E+00  1.60000000E+01
  1.00800000E+00  1.00800000E+00  0.00000000E+00  1.60000000E+01  1.00800000E+00
  1.00800000E+00  0.00000000E+00  1.60000000E+01  1.00800000E+00  1.00800000E+00
  0.00000000E+00  1.60000000E+01  1.00800000E+00  1.00800000E+00  0.00000000E+00
  1.60000000E+01  1.00800000E+00  1.00800000E+00  0.00000000E+00  1.60000000E+01
  1.00800000E+00  1.00800000E+00  0.00000000E+00  1.60000000E+01  1.00800000E+00
  1.00800000E+00  0.00000000E+00  1.60000000E+01  1.00800000E+00  1.00800000E+00
  0.00000000E+00  1.60000000E+01  1.00800000E+00  1.00800000E+00  0.00000000E+00
  1.60000000E+01  1.00800000E+00  1.00800000E+00  0.00000000E+00  1.60000000E+01
  1.00800000E+00  1.00800000E+00  0.00000000E+00  1.60000000E+01  1.00800000E+00
  1.00800000E+00  0.00000000E+00  1.60000000E+01  1.00800000E+00  1.00800000E+00
  0.00000000E+00  1.60000000E+01  1.00800000E+00  1.00800000E+00  0.00000000E+00
  1.60000000E+01  1.00800000E+00  1.00800000E+00  0.00000000E+00  1.60000000E+01
  1.00800000E+00  1.00800000E+00  0.00000000E+00  1.60000000E+01  1.00800000E+00
  1.00800000E+00  0.00000000E+00  1.60000000E+01  1.00800000E+00  1.00800000E+00
  0.00000000E+00  1.60000000E+01  1.00800000E+00  1.00800000E+00  0.00000000E+00
  1.60000000E+01  1.00800000E+00  1.00800000E+00  0.00000000E+00  1.60000000E+01
  1.00800000E+00  1.00800000E+00  0.00000000E+00  1.60000000E+01  1.00800000E+00
  1.00800000E+00  0.00000000E+00  1.60000000E+01  1.00800000E+00  1.00800000E+00
  0.00000000E+00  1.60000000E+01  1.00800000E+00  1.00800000E+00  0.00000000E+00
  1.60000000E+01  1.00800000E+00  1.00800000E+00  0.00000000E+00  1.60000000E+01
  1.00800000E+00  1.00800000E+00  0.00000000E+00  1.60000000E+01  1.00800000E+00
  1.00800000E+00  0.00000000E+00  1.60000000E+01  1.00800000E+00  1.00800000E+00
  0.00000000E+00  1.60000000E+01  1.00800000E+00  1.00800000E+00  0.00000000E+00
  1.60000000E+01  1.00800000E+00  1.00800000E+00  0.00000000E+00  1.60000000E+01
  1.00800000E+00  1.00800000E+00  0.00000000E+00  1.60000000E+01  1.00800000E+00
  1.00800000E+00  0.00000000E+00  1.60000000E+01  1.00800000E+00  1.00800000E+00
  0.00000000E+00  1.60000000E+01  1.00800000E+00  1.00800000E+00  0.00000000E+00
  1.60000000E+01  1.00800000E+00  1.00800000E+00  0.00000000E+00  1.60000000E+01
  1.00800000E+00  1.00800000E+00  0.00000000E+00  1.60000000E+01  1.00800000E+00
  1.00800000E+00  0.00000000E+00  1.60000000E+01  1.00800000E+00  1.00800000E+00
  0.00000000E+00  1.60000000E+01  1.00800000E+00  1.00800000E+00  0.00000000E+00
  1.60000000E+01  1.00800000E+00  1.00800000E+00  0.00000000E+00  1.60000000E+01
  1.00800000E+00  1.00800000E+00  0.00000000E+00  1.60000000E+01  1.00800000E+00
  1.00800000E+00  0.00000000E+00  1.60000000E+01  1.00800000E+00  1.00800000E+00
  0.00000000E+00  1.60000000E+01  1.00800000E+00  1.00800000E+00  0.00000000E+00
  1.60000000E+01  1.00800000E+00  1.00800000E+00  0.00000000E+00  1.60000000E+01
  1.00800000E+00  1.00800000E+00  0.00000000E+00  1.60000000E+01  1.00800000E+00
  1.00800000E+00  0.00000000E+00  1.60000000E+01  1.00800000E+00  1.00800000E+00
  0.00000000E+00  1.60000000E+01  1.00800000E+00  1.00800000E+00  0.00000000E+00
  1.60000000E+01  1.00800000E+00  1.00800000E+00  0.00000000E+00  1.60000000E+01
  1.00800000E+00  1.00800000E+00  0.00000000E+00  1.60000000E+01  1.00800000E+00
  1.00800000E+00  0.00000000E+00  1.60000000E+01  1.00800000E+00  1.00800000E+00
  0.00000000E+00  1.60000000E+01  1.00800000E+00  1.00800000E+00  0.00000000E+00
  1.60000000E+01  1.00800000E+00  1.00800000E+00  0.00000000E+00  1.60000000E+01
  1.00800000E+00  1.00800000E+00  0.00000000E+00  1.60000000E+01  1.00800000E+00
  1.00800000E+00  0.00000000E+00  1.60000000E+01  1.00800000E+00  1.00800000E+00
  0.00000000E+00  1.60000000E+01  1.00800000E+00  1.00800000E+00  0.00000000E+00
  1.60000000E+01  1.00800000E+00  1.00800000E+00  0.00000000E+00  1.60000000E+01
  1.00800000E+00  1.00800000E+00  0.00000000E+00  1.60000000E+01  1.00800000E+00
  1.00800000E+00  0.00000000E+00  1.60000000E+01  1.00800000E+00  1.00800000E+00
  0.00000000E+00  1.60000000E+01  1.00800000E+00  1.00800000E+00  0.00000000E+00
  1.60000000E+01  1.00800000E+00  1.00800000E+00  0.00000000E+00  1.60000000E+01
  1.00800000E+00  1.00800000E+00  0.00000000E+00  1.60000000E+01  1.00800000E+00
  1.00800000E+00  0.00000000E+00  1.60000000E+01  1.00800000E+00  1.00800000E+00
  0.00000000E+00  1.60000000E+01  1.00800000E+00  1.00800000E+00  0.00000000E+00
  1.60000000E+01  1.00800000E+00  1.00800000E+00  0.00000000E+00  1.60000000E+01
  1.00800000E+00  1.00800000E+00  0.00000000E+00  1.60000000E+01  1.00800000E+00
  1.00800000E+00  0.00000000E+00  1.60000000E+01  1.00800000E+00  1.00800000E+00
  0.00000000E+00  1.60000000E+01  1.00800000E+00  1.00800000E+00  0.00000000E+00
  1.60000000E+01  1.00800000E+00  1.00800000E+00  0.00000000E+00  1.60000000E+01
  1.00800000E+00  1.00800000E+00  0.00000000E+00  1.60000000E+01  1.00800000E+00
  1.00800000E+00  0.00000000E+00  1.60000000E+01  1.00800000E+00  1.00800000E+00
  0.00000000E+00  1.60000000E+01  1.00800000E+00  1.00800000E+00  0.00000000E+00
  1.60000000E+01  1.00800000E+00  1.00800000E+00  0.00000000E+00  1.60000000E+01
  1.00800000E+00  1.00800000E+00  0.00000000E+00  1.60000000E+01  1.00800000E+00
  1.00800000E+00  0.00000000E+00  1.60000000E+01  1.00800000E+00  1.00800000E+00
  0.00000000E+00  1.60000000E+01  1.00800000E+00  1.00800000E+00  0.00000000E+00
  1.60000000E+01  1.00800000E+00  1.00800000E+00  0.00000000E+00  1.60000000E+01
  1.00800000E+00  1.00800000E+00  0.00000000E+00  1.60000000E+01  1.00800000E+00
  1.00800000E+00  0.00000000E+00  1.60000000E+01  1.00800000E+00  1.00800000E+00
  0.00000000E+00  1.60000000E+01  1.00800000E+00  1.00800000E+00  0.00000000E+00
  1.60000000E+01  1.00800000E+00  1.00800000E+00  0.00000000E+00  1.60000000E+01
  1.00800000E+00  1.00800000E+00  0.00000000E+00  1.60000000E+01  1.00800000E+00
  1.00800000E+00  0.00000000E+00  1.60000000E+01  1.00800000E+00  1.00800000E+00
  0.00000000E+00  1.60000000E+01  1.00800000E+00  1.00800000E+00  0.00000000E+00
  1.60000000E+01  1.00800000E+00  1.00800000E+00  0.00000000E+00  1.60000000E+01
  1.00800000E+00  1.00800000E+00  0.00000000E+00  1.60000000E+01  1.00800000E+00
  1.00800000E+00  0.00000000E+00  1.60000000E+01  1.00800000E+00  1.00800000E+00
  0.00000000E+00  1.60000000E+01  1.00800000E+00  1.00800000E+00  0.00000000E+00
  1.60000000E+01  1.00800000E+00  1.00800000E+00  0.00000000E+00  1.60000000E+01
  1.00800000E+00  1.00800000E+00  0.00000000E+00  1.60000000E+01  1.00800000E+00
  1.00800000E+00  0.00000000E+00  1.60000000E+01  1.00800000E+00  1.00800000E+00
  0.00000000E+00  1.60000000E+01  1.00800000E+00  1.00800000E+00  0.00000000E+00
  1.60000000E+01  1.00800000E+00  1.00800000E+00  0.00000000E+00  1.60000000E+01
  1.00800000E+00  1.00800000E+00  0.00000000E+00  1.60000000E+01  1.00800000E+00
  1.00800000E+00  0.00000000E+00  1.60000000E+01  1.00800000E+00  1.00800000E+00
  0.00000000E+00  1.60000000E+01  1.00800000E+00  1.00800000E+00  0.00000000E+00
  1.60000000E+01  1.00800000E+00  1.00800000E+00  0.00000000E+00  1.60000000E+01
  1.00800000E+00  1.00800000E+00  0.00000000E+00  1.60000000E+01  1.00800000E+00
  1.00800000E+00  0.00000000E+00  1.60000000E+01  1.00800000E+00  1.00800000E+00
  0.00000000E+00  1.60000000E+01  1.00800000E+00  1.00800000E+00  0.00000000E+00
  1.60000000E+01  1.00800000E+00  1.00800000E+00  0.00000000E+00  1.60000000E+01
  1.00800000E+00  1.00800000E+00  0.00000000E+00  1.60000000E+01  1.00800000E+00
  1.00800000E+00  0.00000000E+00  1.60000000E+01  1.00800000E+00  1.00800000E+00
  0.00000000E+00  1.60000000E+01  1.00800000E+00  1.00800000E+00  0.00000000E+00
  1.60000000E+01  1.00800000E+00  1.00800000E+00  0.00000000E+00  1.60000000E+01
  1.00800000E+00  1.00800000E+00  0.00000000E+00  1.60000000E+01  1.00800000E+00
  1.00800000E+00  0.00000000E+00  1.60000000E+01  1.00800000E+00  1.00800000E+00
  0.00000000E+00  1.60000000E+01  1.00800000E+00  1.00800000E+00  0.00000000E+00
  1.60000000E+01  1.00800000E+00  1.00800000E+00  0.00000000E+00  1.60000000E+01
  1.00800000E+00  1.00800000E+00  0.00000000E+00  1.60000000E+01  1.00800000E+00
  1.00800000E+00  0.00000000E+00  1.60000000E+01  1.00800000E+00  1.00800000E+00
  0.00000000E+00  1.60000000E+01  1.00800000E+00  1.00800000E+00  0.00000000E+00
  1.60000000E+01  1.00800000E+00  1.00800000E+00  0.00000000E+00  1.60000000E+01
  1.00800000E+00  1.00800000E+00  0.00000000E+00  1.60000000E+01  1.00800000E+00
  1.00800000E+00  0.00000000E+00  1.60000000E+01  1.00800000E+00  1.00800000E+00
  0.00000000E+00  1.60000000E+01  1.00800000E+00  1.00800000E+00  0.00000000E+00
  1.60000000E+01  1.00800000E+00  1.00800000E+00  0.00000000E+00  1.60000000E+01
  1.00800000E+00  1.00800000E+00  0.00000000E+00  1.60000000E+01  1.00800000E+00
  1.00800000E+00  0.00000000E+00  1.60000000E+01  1.00800000E+00  1.00800000E+00
  0.00000000E+00  1.60000000E+01  1.00800000E+00  1.00800000E+00  0.00000000E+00
  1.60000000E+01  1.00800000E+00  1.00800000E+00  0.00000000E+00  1.60000000E+01
  1.00800000E+00  1.00800000E+00  0.00000000E+00  1.60000000E+01  1.00800000E+00
  1.00800000E+00  0.00000000E+00  1.60000000E+01  1.00800000E+00  1.00800000E+00
  0.00000000E+00  1.60000000E+01  1.00800000E+00  1.00800000E+00  0.00000000E+00
  1.60000000E+01  1.00800000E+00  1.00800000E+00  0.00000000E+00  1.60000000E+01
  1.00800000E+00  1.00800000E+00  0.00000000E+00  1.60000000E+01  1.00800000E+00
  1.00800000E+00  0.00000000E+00  1.60000000E+01  1.00800000E+00  1.00800000E+00
  0.00000000E+00  1.60000000E+01  1.00800000E+00  1.00800000E+00  0.00000000E+00
  1.60000000E+01  1.00800000E+00  1.00800000E+00  0.00000000E+00  1.60000000E+01
  1.00800000E+00  1.00800000E+00  0.00000000E+00  1.60000000E+01  1.00800000E+00
  1.00800000E+00  0.00000000E+00  1.60000000E+01  1.00800000E+00  1.00800000E+00
  0.00000000E+00  1.60000000E+01  1.00800000E+00  1.00800000E+00  0.00000000E+00
  1.60000000E+01  1.00800000E+00  1.00800000E+00  0.00000000E+00  1.60000000E+01
  1.00800000E+00  1.00800000E+00  0.00000000E+00  1.60000000E+01  1.00800000E+00
  1.00800000E+00  0.00000000E+00  1.60000000E+01  1.00800000E+00  1.00800000E+00
  0.00000000E+00  1.60000000E+01  1.00800000E+00  1.00800000E+00  0.00000000E+00
  1.60000000E+01  1.00800000E+00  1.00800000E+00  0.00000000E+00  1.60000000E+01
  1.00800000E+00  1.00800000E+00  0.00000000E+00  1.60000000E+01  1.00800000E+00
  1.00800000E+00  0.00000000E+00  1.60000000E+01  1.00800000E+00  1.00800000E+00
  0.00000000E+00  1.60000000E+01  1.00800000E+00  1.00800000E+00  0.00000000E+00
  1.60000000E+01  1.00800000E+00  1.00800000E+00  0.00000000E+00  1.60000000E+01
  1.00800000E+00  1.00800000E+00  0.00000000E+00  1.60000000E+01  1.00800000E+00
  1.00800000E+00  0.00000000E+00  1.60000000E+01  1.00800000E+00  1.00800000E+00
  0.00000000E+00  1.60000000E+01  1.00800000E+00  1.00800000E+00  0.00000000E+00
  1.60000000E+01  1.00800000E+00  1.00800000E+00  0.00000000E+00  1.60000000E+01
  1.00800000E+00  1.00800000E+00  0.00000000E+00  1.60000000E+01  1.00800000E+00
  1.00800000E+00  0.00000000E+00  1.60000000E+01  1.00800000E+00  1.00800000E+00
  0.00000000E+00  1.60000000E+01  1.00800000E+00  1.00800000E+00  0.00000000E+00
  1.60000000E+01  1.00800000E+00  1.00800000E+00  0.00000000E+00  1.60000000E+01
  1.00800000E+00  1.00800000E+00  0.00000000E+00  1.60000000E+01  1.00800000E+00
  1.00800000E+00  0.00000000E+00  1.60000000E+01  1.00800000E+00  1.00800000E+00
  0.00000000E+00  1.60000000E+01  1.00800000E+00  1.00800000E+00  0.00000000E+00
  1.60000000E+01  1.00800000E+00  1.00800000E+00  0.00000000E+00  1.60000000E+01
  1.00800000E+00  1.00800000E+00  0.00000000E+00  1.60000000E+01  1.00800000E+00
  1.00800000E+00  0.00000000E+00  1.60000000E+01  1.00800000E+00  1.00800000E+00
  0.00000000E+00  1.60000000E+01  1.00800000E+00  1.00800000E+00  0.00000000E+00
  1.60000000E+01  1.00800000E+00  1.00800000E+00  0.00000000E+00  1.60000000E+01
  1.00800000E+00  1.00800000E+00  0.00000000E+00  1.60000000E+01  1.00800000E+00
  1.00800000E+00  0.00000000E+00  1.60000000E+01  1.00800000E+00  1.00800000E+00
  0.00000000E+00  1.60000000E+01  1.00800000E+00  1.00800000E+00  0.00000000E+00
  1.60000000E+01  1.00800000E+00  1.00800000E+00  0.00000000E+00  1.60000000E+01
  1.00800000E+00  1.00800000E+00  0.00000000E+00  1.60000000E+01  1.00800000E+00
  1.00800000E+00  0.00000000E+00  1.60000000E+01  1.00800000E+00  1.00800000E+00
  0.00000000E+00  1.60000000E+01  1.00800000E+00  1.00800000E+00  0.00000000E+00
  1.60000000E+01  1.00800000E+00  1.00800000E+00  0.00000000E+00  1.60000000E+01
  1.00800000E+00  1.00800000E+00  0.00000000E+00  1.60000000E+01  1.00800000E+00
  1.00800000E+00  0.00000000E+00  1.60000000E+01  1.00800000E+00  1.00800000E+00
  0.00000000E+00  1.60000000E+01  1.00800000E+00  1.00800000E+00  0.00000000E+00
  1.60000000E+01  1.00800000E+00  1.00800000E+00  0.00000000E+00  1.60000000E+01
  1.00800000E+00  1.00800000E+00  0.00000000E+00  1.60000000E+01  1.00800000E+00
  1.00800000E+00  0.00000000E+00  1.60000000E+01  1.00800000E+00  1.00800000E+00
  0.00000000E+00  1.60000000E+01  1.00800000E+00  1.00800000E+00  0.00000000E+00
  1.60000000E+01  1.00800000E+00  1.00800000E+00  0.00000000E+00  1.60000000E+01
  1.00800000E+00  1.00800000E+00  0.00000000E+00  1.60000000E+01  1.00800000E+00
  1.00800000E+00  0.00000000E+00  1.60000000E+01  1.00800000E+00  1.00800000E+00
  0.00000000E+00  1.60000000E+01  1.00800000E+00  1.00800000E+00  0.00000000E+00
  1.60000000E+01  1.00800000E+00  1.00800000E+00  0.00000000E+00  1.60000000E+01
  1.00800000E+00  1.00800000E+00  0.00000000E+00  1.60000000E+01  1.00800000E+00
  1.00800000E+00  0.00000000E+00  1.60000000E+01  1.00800000E+00  1.00800000E+00
  0.00000000E+00  1.60000000E+01  1.00800000E+00  1.00800000E+00  0.00000000E+00
  1.60000000E+01  1.00800000E+00  1.00800000E+00  0.00000000E+00  1.60000000E+01
  1.00800000E+00  1.00800000E+00  0.00000000E+00  1.60000000E+01  1.00800000E+00
  1.00800000E+00  0.00000000E+00  1.60000000E+01  1.00800000E+00  1.00800000E+00
  0.00000000E+00  1.60000000E+01  1.00800000E+00  1.00800000E+00  0.00000000E+00
  1.60000000E+01  1.00800000E+00  1.00800000E+00  0.00000000E+00  1.60000000E+01
  1.00800000E+00  1.00800000E+00  0.00000000E+00  1.60000000E+01  1.00800000E+00
  1.00800000E+00  0.00000000E+00  1.60000000E+01  1.00800000E+00  1.00800000E+00
  0.00000000E+00  1.60000000E+01  1.00800000E+00  1.00800000E+00  0.00000000E+00
  1.60000000E+01  1.00800000E+00  1.00800000E+00  0.00000000E+00  1.60000000E+01
  1.00800000E+00  1.00800000E+00  0.00000000E+00  1.60000000E+01  1.00800000E+00
  1.00800000E+00  0.00000000E+00  1.60000000E+01  1.00800000E+00  1.00800000E+00
  0.00000000E+00  1.60000000E+01  1.00800000E+00  1.00800000E+00  0.00000000E+00
  1.60000000E+01  1.00800000E+00  1.00800000E+00  0.00000000E+00  1.60000000E+01
  1.00800000E+00  1.00800000E+00  0.00000000E+00  1.60000000E+01  1.00800000E+00
  1.00800000E+00  0.00000000E+00  1.60000000E+01  1.00800000E+00  1.00800000E+00
  0.00000000E+00  1.60000000E+01  1.00800000E+00  1.00800000E+00  0.00000000E+00
  1.60000000E+01  1.00800000E+00  1.00800000E+00  0.00000000E+00  1.60000000E+01
  1.00800000E+00  1.00800000E+00  0.00000000E+00  1.60000000E+01  1.00800000E+00
  1.00800000E+00  0.00000000E+00  1.60000000E+01  1.00800000E+00  1.00800000E+00
  0.00000000E+00  1.60000000E+01  1.00800000E+00  1.00800000E+00  0.00000000E+00
  1.60000000E+01  1.00800000E+00  1.00800000E+00  0.00000000E+00  1.60000000E+01
  1.00800000E+00  1.00800000E+00  0.00000000E+00  1.60000000E+01  1.00800000E+00
  1.00800000E+00  0.00000000E+00  1.60000000E+01  1.00800000E+00  1.00800000E+00
  0.00000000E+00  1.60000000E+01  1.00800000E+00  1.00800000E+00  0.00000000E+00
  1.60000000E+01  1.00800000E+00  1.00800000E+00  0.00000000E+00  1.60000000E+01
  1.00800000E+00  1.00800000E+00  0.00000000E+00  1.60000000E+01  1.00800000E+00
  1.00800000E+00  0.00000000E+00  1.60000000E+01  1.00800000E+00  1.00800000E+00
  0.00000000E+00  1.60000000E+01  1.00800000E+00  1.00800000E+00  0.00000000E+00
  1.60000000E+01  1.00800000E+00  1.00800000E+00  0.00000000E+00  1.60000000E+01
  1.00800000E+00  1.00800000E+00  0.00000000E+00  1.60000000E+01  1.00800000E+00
  1.00800000E+00  0.00000000E+00  1.60000000E+01  1.00800000E+00  1.00800000E+00
  0.00000000E+00  1.60000000E+01  1.00800000E+00  1.00800000E+00  0.00000000E+00
  1.60000000E+01  1.00800000E+00  1.00800000E+00  0.00000000E+00  1.60000000E+01
  1.00800000E+00  1.00800000E+00  0.00000000E+00  1.60000000E+01  1.00800000E+00
  1.00800000E+00  0.00000000E+00  1.60000000E+01  1.00800000E+00  1.00800000E+00
  0.00000000E+00  1.60000000E+01  1.00800000E+00  1.00800000E+00  0.00000000E+00
  1.60000000E+01  1.00800000E+00  1.00800000E+00  0.00000000E+00  1.60000000E+01
  1.00800000E+00  1.00800000E+00  0.00000000E+00  1.60000000E+01  1.00800000E+00
  1.00800000E+00  0.00000000E+00  1.60000000E+01  1.00800000E+00  1.00800000E+00
  0.00000000E+00  1.60000000E+01  1.00800000E+00  1.00800000E+00  0.00000000E+00
  1.60000000E+01  1.00800000E+00  1.00800000E+00  0.00000000E+00  1.60000000E+01
  1.00800000E+00  1.00800000E+00  0.00000000E+00  1.60000000E+01  1.00800000E+00
  1.00800000E+00  0.00000000E+00  1.60000000E+01  1.00800000E+00  1.00800000E+00
  0.00000000E+00  1.60000000E+01  1.00800000E+00  1.00800000E+00  0.00000000E+00
  1.60000000E+01  1.00800000E+00  1.00800000E+00  0.00000000E+00  1.60000000E+01
  1.00800000E+00  1.00800000E+00  0.00000000E+00  1.60000000E+01  1.00800000E+00
  1.00800000E+00  0.00000000E+00  1.60000000E+01  1.00800000E+00  1.00800000E+00
  0.00000000E+00  1.60000000E+01  1.00800000E+00  1.00800000E+00  0.00000000E+00
  1.60000000E+01  1.00800000E+00  1.00800000E+00  0.00000000E+00  1.60000000E+01
  1.00800000E+00  1.00800000E+00  0.00000000E+00  1.60000000E+01  1.00800000E+00
  1.00800000E+00  0.00000000E+00  1.60000000E+01  1.00800000E+00  1.00800000E+00
  0.00000000E+00  1.60000000E+01  1.00800000E+00  1.00800000E+00  0.00000000E+00
  1.60000000E+01  1.00800000E+00  1.00800000E+00  0.00000000E+00  1.60000000E+01
  1.00800000E+00  1.00800000E+00  0.00000000E+00  1.60000000E+01  1.00800000E+00
  1.00800000E+00  0.00000000E+00  1.60000000E+01  1.00800000E+00  1.00800000E+00
  0.00000000E+00  1.60000000E+01  1.00800000E+00  1.00800000E+00  0.00000000E+00
  1.60000000E+01  1.00800000E+00  1.00800000E+00  0.00000000E+00  1.60000000E+01
  1.00800000E+00  1.00800000E+00  0.00000000E+00  1.60000000E+01  1.00800000E+00
  1.00800000E+00  0.00000000E+00  1.60000000E+01  1.00800000E+00  1.00800000E+00
  0.00000000E+00  1.60000000E+01  1.00800000E+00  1.00800000E+00  0.00000000E+00
  1.60000000E+01  1.00800000E+00  1.00800000E+00  0.00000000E+00  1.60000000E+01
  1.00800000E+00  1.00800000E+00  0.00000000E+00  1.60000000E+01  1.00800000E+00
  1.00800000E+00  0.00000000E+00  1.60000000E+01  1.00800000E+00  1.00800000E+00
  0.00000000E+00  1.60000000E+01  1.00800000E+00  1.00800000E+00  0.00000000E+00
  1.60000000E+01  1.00800000E+00  1.00800000E+00  0.00000000E+00  1.60000000E+01
  1.00800000E+00  1.00800000E+00  0.00000000E+00  1.60000000E+01  1.00800000E+00
  1.00800000E+00  0.00000000E+00  1.60000000E+01  1.00800000E+00  1.00800000E+00
  0.00000000E+00  1.60000000E+01  1.00800000E+00  1.00800000E+00  0.00000000E+00
  1.60000000E+01  1.00800000E+00  1.00800000E+00  0.00000000E+00  1.60000000E+01
  1.00800000E+00  1.00800000E+00  0.00000000E+00  1.60000000E+01  1.00800000E+00
  1.00800000E+00  0.00000000E+00  1.60000000E+01  1.00800000E+00  1.00800000E+00
  0.00000000E+00  1.60000000E+01  1.00800000E+00  1.00800000E+00  0.00000000E+00
  1.60000000E+01  1.00800000E+00  1.00800000E+00  0.00000000E+00  1.60000000E+01
  1.00800000E+00  1.00800000E+00  0.00000000E+00  1.60000000E+01  1.00800000E+00
  1.00800000E+00  0.00000000E+00  1.60000000E+01  1.00800000E+00  1.00800000E+00
  0.00000000E+00  1.60000000E+01  1.00800000E+00  1.00800000E+00  0.00000000E+00
  1.60000000E+01  1.00800000E+00  1.00800000E+00  0.00000000E+00  1.60000000E+01
  1.00800000E+00  1.00800000E+00  0.00000000E+00  1.60000000E+01  1.00800000E+00
  1.00800000E+00  0.00000000E+00  1.60000000E+01  1.00800000E+00  1.00800000E+00
  0.00000000E+00  1.60000000E+01  1.00800000E+00  1.00800000E+00  0.00000000E+00
  1.60000000E+01  1.00800000E+00  1.00800000E+00  0.00000000E+00  1.60000000E+01
  1.00800000E+00  1.00800000E+00  0.00000000E+00  1.60000000E+01  1.00800000E+00
  1.00800000E+00  0.00000000E+00  1.60000000E+01  1.00800000E+00  1.00800000E+00
  0.00000000E+00  1.60000000E+01  1.00800000E+00  1.00800000E+00  0.00000000E+00
  1.60000000E+01  1.00800000E+00  1.00800000E+00  0.00000000E+00  1.60000000E+01
  1.00800000E+00  1.00800000E+00  0.00000000E+00  1.60000000E+01  1.00800000E+00
  1.00800000E+00  0.00000000E+00  1.60000000E+01  1.00800000E+00  1.00800000E+00
  0.00000000E+00  1.60000000E+01  1.00800000E+00  1.00800000E+00  0.00000000E+00
  1.60000000E+01  1.00800000E+00  1.00800000E+00  0.00000000E+00  1.60000000E+01
  1.00800000E+00  1.00800000E+00  0.00000000E+00  1.60000000E+01  1.00800000E+00
  1.00800000E+00  0.00000000E+00  1.60000000E+01  1.00800000E+00  1.00800000E+00
  0.00000000E+00  1.60000000E+01  1.00800000E+00  1.00800000E+00  0.00000000E+00
  1.60000000E+01  1.00800000E+00  1.00800000E+00  0.00000000E+00  1.60000000E+01
  1.00800000E+00  1.00800000E+00  0.00000000E+00  1.60000000E+01  1.00800000E+00
  1.00800000E+00  0.00000000E+00  1.60000000E+01  1.00800000E+00  1.00800000E+00
  0.00000000E+00  1.60000000E+01  1.00800000E+00  1.00800000E+00  0.00000000E+00
  1.60000000E+01  1.00800000E+00  1.00800000E+00  0.00000000E+00  1.60000000E+01
  1.00800000E+00  1.00800000E+00  0.00000000E+00  1.60000000E+01  1.00800000E+00
  1.00800000E+00  0.00000000E+00  1.60000000E+01  1.00800000E+00  1.00800000E+00
  0.00000000E+00  1.60000000E+01  1.00800000E+00  1.00800000E+00  0.00000000E+00
  1.60000000E+01  1.00800000E+00  1.00800000E+00  0.00000000E+00  1.60000000E+01
  1.00800000E+00  1.00800000E+00  0.00000000E+00  1.60000000E+01  1.00800000E+00
  1.00800000E+00  0.00000000E+00  1.60000000E+01  1.00800000E+00  1.00800000E+00
  0.00000000E+00  1.60000000E+01  1.00800000E+00  1.00800000E+00  0.00000000E+00
  1.60000000E+01  1.00800000E+00  1.00800000E+00  0.00000000E+00  1.60000000E+01
  1.00800000E+00  1.00800000E+00  0.00000000E+00  1.60000000E+01  1.00800000E+00
  1.00800000E+00  0.00000000E+00  1.60000000E+01  1.00800000E+00  1.00800000E+00
  0.00000000E+00  1.60000000E+01  1.00800000E+00  1.00800000E+00  0.00000000E+00
  1.60000000E+01  1.00800000E+00  1.00800000E+00  0.00000000E+00  1.60000000E+01
  1.00800000E+00  1.00800000E+00  0.00000000E+00  1.60000000E+01  1.00800000E+00
  1.00800000E+00  0.00000000E+00  1.60000000E+01  1.00800000E+00  1.00800000E+00
  0.00000000E+00  1.60000000E+01  1.00800000E+00  1.00800000E+00  0.00000000E+00
  1.60000000E+01  1.00800000E+00  1.00800000E+00  0.00000000E+00  1.60000000E+01
  1.00800000E+00  1.00800000E+00  0.00000000E+00  1.60000000E+01  1.00800000E+00
  1.00800000E+00  0.00000000E+00  1.60000000E+01  1.00800000E+00  1.00800000E+00
  0.00000000E+00  1.60000000E+01  1.00800000E+00  1.00800000E+00  0.00000000E+00
  1.60000000E+01  1.00800000E+00  1.00800000E+00  0.00000000E+00  1.60000000E+01
  1.00800000E+00  1.00800000E+00  0.00000000E+00  1.60000000E+01  1.00800000E+00
  1.00800000E+00  0.00000000E+00  1.60000000E+01  1.00800000E+00  1.00800000E+00
  0.00000000E+00  1.60000000E+01  1.00800000E+00  1.00800000E+00  0.00000000E+00
  1.60000000E+01  1.00800000E+00  1.00800000E+00  0.00000000E+00  1.60000000E+01
  1.00800000E+00  1.00800000E+00  0.00000000E+00  1.60000000E+01  1.00800000E+00
  1.00800000E+00  0.00000000E+00  1.60000000E+01  1.00800000E+00  1.00800000E+00
  0.00000000E+00  1.60000000E+01  1.00800000E+00  1.00800000E+00  0.00000000E+00
  1.60000000E+01  1.00800000E+00  1.00800000E+00  0.00000000E+00  1.60000000E+01
  1.00800000E+00  1.00800000E+00  0.00000000E+00  1.60000000E+01  1.00800000E+00
  1.00800000E+00  0.00000000E+00  1.60000000E+01  1.00800000E+00  1.00800000E+00
  0.00000000E+00  1.60000000E+01  1.00800000E+00  1.00800000E+00  0.00000000E+00
  1.60000000E+01  1.00800000E+00  1.00800000E+00  0.00000000E+00  1.60000000E+01
  1.00800000E+00  1.00800000E+00  0.00000000E+00  1.60000000E+01  1.00800000E+00
  1.00800000E+00  0.00000000E+00  1.60000000E+01  1.00800000E+00  1.00800000E+00
  0.00000000E+00  1.60000000E+01  1.00800000E+00  1.00800000E+00  0.00000000E+00
  1.60000000E+01  1.00800000E+00  1.00800000E+00  0.00000000E+00  1.60000000E+01
  1.00800000E+00  1.00800000E+00  0.00000000E+00  1.60000000E+01  1.00800000E+00
  1.00800000E+00  0.00000000E+00  1.60000000E+01  1.00800000E+00  1.00800000E+00
  0.00000000E+00  1.60000000E+01  1.00800000E+00  1.00800000E+00  0.00000000E+00
  1.60000000E+01  1.00800000E+00  1.00800000E+00  0.00000000E+00  1.60000000E+01
  1.00800000E+00  1.00800000E+00  0.00000000E+00  1.60000000E+01  1.00800000E+00
  1.00800000E+00  0.00000000E+00  1.60000000E+01  1.00800000E+00  1.00800000E+00
  0.00000000E+00  1.60000000E+01  1.00800000E+00  1.00800000E+00  0.00000000E+00
  1.60000000E+01  1.00800000E+00  1.00800000E+00  0.00000000E+00  1.60000000E+01
  1.00800000E+00  1.00800000E+00  0.00000000E+00  1.60000000E+01  1.00800000E+00
  1.00800000E+00  0.00000000E+00  1.60000000E+01  1.00800000E+00  1.00800000E+00
  0.00000000E+00  1.60000000E+01  1.00800000E+00  1.00800000E+00  0.00000000E+00
  1.60000000E+01  1.00800000E+00  1.00800000E+00  0.00000000E+00  1.60000000E+01
  1.00800000E+00  1.00800000E+00  0.00000000E+00  1.60000000E+01  1.00800000E+00
  1.00800000E+00  0.00000000E+00  1.60000000E+01  1.00800000E+00  1.00800000E+00
  0.00000000E+00  1.60000000E+01  1.00800000E+00  1.00800000E+00  0.00000000E+00
  1.60000000E+01  1.00800000E+00  1.00800000E+00  0.00000000E+00  1.60000000E+01
  1.00800000E+00  1.00800000E+00  0.00000000E+00  1.60000000E+01  1.00800000E+00
  1.00800000E+00  0.00000000E+00  1.60000000E+01  1.00800000E+00  1.00800000E+00
  0.00000000E+00  1.60000000E+01  1.00800000E+00  1.00800000E+00  0.00000000E+00
  1.60000000E+01  1.00800000E+00  1.00800000E+00  0.00000000E+00  1.60000000E+01
  1.00800000E+00  1.00800000E+00  0.00000000E+00  1.60000000E+01  1.00800000E+00
  1.00800000E+00  0.00000000E+00  1.60000000E+01  1.00800000E+00  1.00800000E+00
  0.00000000E+00  1.60000000E+01  1.00800000E+00  1.00800000E+00  0.00000000E+00
  1.60000000E+01  1.00800000E+00  1.00800000E+00  0.00000000E+00  1.60000000E+01
  1.00800000E+00  1.00800000E+00  0.00000000E+00  1.60000000E+01  1.00800000E+00
  1.00800000E+00  0.00000000E+00  1.60000000E+01  1.00800000E+00  1.00800000E+00
  0.00000000E+00  1.60000000E+01  1.00800000E+00  1.00800000E+00  0.00000000E+00
  1.60000000E+01  1.00800000E+00  1.00800000E+00  0.00000000E+00  1.60000000E+01
  1.00800000E+00  1.00800000E+00  0.00000000E+00  1.60000000E+01  1.00800000E+00
  1.00800000E+00  0.00000000E+00  1.60000000E+01  1.00800000E+00  1.00800000E+00
  0.00000000E+00  1.60000000E+01  1.00800000E+00  1.00800000E+00  0.00000000E+00
  1.60000000E+01  1.00800000E+00  1.00800000E+00  0.00000000E+00  1.60000000E+01
  1.00800000E+00  1.00800000E+00  0.00000000E+00  1.60000000E+01  1.00800000E+00
  1.00800000E+00  0.00000000E+00  1.60000000E+01  1.00800000E+00  1.00800000E+00
  0.00000000E+00  1.60000000E+01  1.00800000E+00  1.00800000E+00  0.00000000E+00
  1.60000000E+01  1.00800000E+00  1.00800000E+00  0.00000000E+00  1.60000000E+01
  1.00800000E+00  1.00800000E+00  0.00000000E+00  1.60000000E+01  1.00800000E+00
  1.00800000E+00  0.00000000E+00  1.60000000E+01  1.00800000E+00  1.00800000E+00
  0.00000000E+00  1.60000000E+01  1.00800000E+00  1.00800000E+00  0.00000000E+00
  1.60000000E+01  1.00800000E+00  1.00800000E+00  0.00000000E+00  1.60000000E+01
  1.00800000E+00  1.00800000E+00  0.00000000E+00  1.60000000E+01  1.00800000E+00
  1.00800000E+00  0.00000000E+00  1.60000000E+01  1.00800000E+00  1.00800000E+00
  0.00000000E+00  1.60000000E+01  1.00800000E+00  1.00800000E+00  0.00000000E+00
  1.60000000E+01  1.00800000E+00  1.00800000E+00  0.00000000E+00  1.60000000E+01
  1.00800000E+00  1.00800000E+00  0.00000000E+00  1.60000000E+01  1.00800000E+00
  1.00800000E+00  0.00000000E+00  1.60000000E+01  1.00800000E+00  1.00800000E+00
  0.00000000E+00  1.60000000E+01  1.00800000E+00  1.00800000E+00  0.00000000E+00
  1.60000000E+01  1.00800000E+00  1.00800000E+00  0.00000000E+00  1.60000000E+01
  1.00800000E+00  1.00800000E+00  0.00000000E+00  1.60000000E+01  1.00800000E+00
  1.00800000E+00  0.00000000E+00  1.60000000E+01  1.00800000E+00  1.00800000E+00
  0.00000000E+00  1.60000000E+01  1.00800000E+00  1.00800000E+00  0.00000000E+00
  1.60000000E+01  1.00800000E+00  1.00800000E+00  0.00000000E+00  1.60000000E+01
  1.00800000E+00  1.00800000E+00  0.00000000E+00  1.60000000E+01  1.00800000E+00
  1.00800000E+00  0.00000000E+00  1.60000000E+01  1.00800000E+00  1.00800000E+00
  0.00000000E+00  1.60000000E+01  1.00800000E+00  1.00800000E+00  0.00000000E+00
  1.60000000E+01  1.00800000E+00  1.00800000E+00  0.00000000E+00  1.60000000E+01
  1.00800000E+00  1.00800000E+00  0.00000000E+00  1.60000000E+01  1.00800000E+00
  1.00800000E+00  0.00000000E+00  1.60000000E+01  1.00800000E+00  1.00800000E+00
  0.00000000E+00  1.60000000E+01  1.00800000E+00  1.00800000E+00  0.00000000E+00
  1.60000000E+01  1.00800000E+00  1.00800000E+00  0.00000000E+00  1.60000000E+01
  1.00800000E+00  1.00800000E+00  0.00000000E+00  1.60000000E+01  1.00800000E+00
  1.00800000E+00  0.00000000E+00  1.60000000E+01  1.00800000E+00  1.00800000E+00
  0.00000000E+00  1.60000000E+01  1.00800000E+00  1.00800000E+00  0.00000000E+00
  1.60000000E+01  1.00800000E+00  1.00800000E+00  0.00000000E+00  1.60000000E+01
  1.00800000E+00  1.00800000E+00  0.00000000E+00  1.60000000E+01  1.00800000E+00
  1.00800000E+00  0.00000000E+00  1.60000000E+01  1.00800000E+00  1.00800000E+00
  0.00000000E+00  1.60000000E+01  1.00800000E+00  1.00800000E+00  0.00000000E+00
  1.60000000E+01  1.00800000E+00  1.00800000E+00  0.00000000E+00  1.60000000E+01
  1.00800000E+00  1.00800000E+00  0.00000000E+00  1.60000000E+01  1.00800000E+00
  1.00800000E+00  0.00000000E+00  1.60000000E+01  1.00800000E+00  1.00800000E+00
  0.00000000E+00  1.60000000E+01  1.00800000E+00  1.00800000E+00  0.00000000E+00
  1.60000000E+01  1.00800000E+00  1.00800000E+00  0.00000000E+00  1.60000000E+01
  1.00800000E+00  1.00800000E+00  0.00000000E+00  1.60000000E+01  1.00800000E+00
  1.00800000E+00  0.00000000E+00  1.60000000E+01  1.00800000E+00  1.00800000E+00
  0.00000000E+00  1.60000000E+01  1.00800000E+00  1.00800000E+00  0.00000000E+00
  1.60000000E+01  1.00800000E+00  1.00800000E+00  0.00000000E+00  1.60000000E+01
  1.00800000E+00  1.00800000E+00  0.00000000E+00  1.60000000E+01  1.00800000E+00
  1.00800000E+00  0.00000000E+00  1.60000000E+01  1.00800000E+00  1.00800000E+00
  0.00000000E+00  1.60000000E+01  1.00800000E+00  1.00800000E+00  0.00000000E+00
  1.60000000E+01  1.00800000E+00  1.00800000E+00  0.00000000E+00  1.60000000E+01
  1.00800000E+00  1.00800000E+00  0.00000000E+00  1.60000000E+01  1.00800000E+00
  1.00800000E+00  0.00000000E+00  1.60000000E+01  1.00800000E+00  1.00800000E+00
  0.00000000E+00  1.60000000E+01  1.00800000E+00  1.00800000E+00  0.00000000E+00
  1.60000000E+01  1.00800000E+00  1.00800000E+00  0.00000000E+00  1.60000000E+01
  1.00800000E+00  1.00800000E+00  0.00000000E+00  1.60000000E+01  1.00800000E+00
  1.00800000E+00  0.00000000E+00  1.60000000E+01  1.00800000E+00  1.00800000E+00
  0.00000000E+00  1.60000000E+01  1.00800000E+00  1.00800000E+00  0.00000000E+00
  1.60000000E+01  1.00800000E+00  1.00800000E+00  0.00000000E+00  1.60000000E+01
  1.00800000E+00  1.00800000E+00  0.00000000E+00  1.60000000E+01  1.00800000E+00
  1.00800000E+00  0.00000000E+00  1.60000000E+01  1.00800000E+00  1.00800000E+00
  0.00000000E+00  1.60000000E+01  1.00800000E+00  1.00800000E+00  0.00000000E+00
  1.60000000E+01  1.00800000E+00  1.00800000E+00  0.00000000E+00  1.60000000E+01
  1.00800000E+00  1.00800000E+00  0.00000000E+00  1.60000000E+01  1.00800000E+00
  1.00800000E+00  0.00000000E+00  1.60000000E+01  1.00800000E+00  1.00800000E+00
  0.00000000E+00  1.60000000E+01  1.00800000E+00  1.00800000E+00  0.00000000E+00
  1.60000000E+01  1.00800000E+00  1.00800000E+00  0.00000000E+00  1.60000000E+01
  1.00800000E+00  1.00800000E+00  0.00000000E+00  1.60000000E+01  1.00800000E+00
  1.00800000E+00  0.00000000E+00  1.60000000E+01  1.00800000E+00  1.00800000E+00
  0.00000000E+00  1.60000000E+01  1.00800000E+00  1.00800000E+00  0.00000000E+00
  1.60000000E+01  1.00800000E+00  1.00800000E+00  0.00000000E+00  1.60000000E+01
  1.00800000E+00  1.00800000E+00  0.00000000E+00  1.60000000E+01  1.00800000E+00
  1.00800000E+00  0.00000000E+00  1.60000000E+01  1.00800000E+00  1.00800000E+00
  0.00000000E+00  1.60000000E+01  1.00800000E+00  1.00800000E+00  0.00000000E+00
  1.60000000E+01  1.00800000E+00  1.00800000E+00  0.00000000E+00  1.60000000E+01
  1.00800000E+00  1.00800000E+00  0.00000000E+00  1.60000000E+01  1.00800000E+00
  1.00800000E+00  0.00000000E+00  1.60000000E+01  1.00800000E+00  1.00800000E+00
  0.00000000E+00  1.60000000E+01  1.00800000E+00  1.00800000E+00  0.00000000E+00
  1.60000000E+01  1.00800000E+00  1.00800000E+00  0.00000000E+00  1.60000000E+01
  1.00800000E+00  1.00800000E+00  0.00000000E+00  1.60000000E+01  1.00800000E+00
  1.00800000E+00  0.00000000E+00  1.60000000E+01  1.00800000E+00  1.00800000E+00
  0.00000000E+00  1.60000000E+01  1.00800000E+00  1.00800000E+00  0.00000000E+00
  1.60000000E+01  1.00800000E+00  1.00800000E+00  0.00000000E+00  1.60000000E+01
  1.00800000E+00  1.00800000E+00  0.00000000E+00  1.60000000E+01  1.00800000E+00
  1.00800000E+00  0.00000000E+00  1.60000000E+01  1.00800000E+00  1.00800000E+00
  0.00000000E+00  1.60000000E+01  1.00800000E+00  1.00800000E+00  0.00000000E+00
  1.60000000E+01  1.00800000E+00  1.00800000E+00  0.00000000E+00  1.60000000E+01
  1.00800000E+00  1.00800000E+00  0.00000000E+00  1.60000000E+01  1.00800000E+00
  1.00800000E+00  0.00000000E+00  1.60000000E+01  1.00800000E+00  1.00800000E+00
  0.00000000E+00  1.60000000E+01  1.00800000E+00  1.00800000E+00  0.00000000E+00
  1.60000000E+01  1.00800000E+00  1.00800000E+00  0.00000000E+00  1.60000000E+01
  1.00800000E+00  1.00800000E+00  0.00000000E+00  1.60000000E+01  1.00800000E+00
  1.00800000E+00  0.00000000E+00  1.60000000E+01  1.00800000E+00  1.00800000E+00
  0.00000000E+00  1.60000000E+01  1.00800000E+00  1.00800000E+00  0.00000000E+00
  1.60000000E+01  1.00800000E+00  1.00800000E+00  0.00000000E+00  1.60000000E+01
  1.00800000E+00  1.00800000E+00  0.00000000E+00  1.60000000E+01  1.00800000E+00
  1.00800000E+00  0.00000000E+00  1.60000000E+01  1.00800000E+00  1.00800000E+00
  0.00000000E+00  1.60000000E+01  1.00800000E+00  1.00800000E+00  0.00000000E+00
  1.60000000E+01  1.00800000E+00  1.00800000E+00  0.00000000E+00  1.60000000E+01
  1.00800000E+00  1.00800000E+00  0.00000000E+00  1.60000000E+01  1.00800000E+00
  1.00800000E+00  0.00000000E+00  1.60000000E+01  1.00800000E+00  1.00800000E+00
  0.00000000E+00  1.60000000E+01  1.00800000E+00  1.00800000E+00  0.00000000E+00
  1.60000000E+01  1.00800000E+00  1.00800000E+00  0.00000000E+00  1.60000000E+01
  1.00800000E+00  1.00800000E+00  0.00000000E+00  1.60000000E+01  1.00800000E+00
  1.00800000E+00  0.00000000E+00  1.60000000E+01  1.00800000E+00  1.00800000E+00
  0.00000000E+00  1.60000000E+01  1.00800000E+00  1.00800000E+00  0.00000000E+00
  1.60000000E+01  1.00800000E+00  1.00800000E+00  0.00000000E+00  1.60000000E+01
  1.00800000E+00  1.00800000E+00  0.00000000E+00  1.60000000E+01  1.00800000E+00
  1.00800000E+00  0.00000000E+00  1.60000000E+01  1.00800000E+00  1.00800000E+00
  0.00000000E+00  1.60000000E+01  1.00800000E+00  1.00800000E+00  0.00000000E+00
  1.60000000E+01  1.00800000E+00  1.00800000E+00  0.00000000E+00  1.60000000E+01
  1.00800000E+00  1.00800000E+00  0.00000000E+00  1.60000000E+01  1.00800000E+00
  1.00800000E+00  0.00000000E+00  1.60000000E+01  1.00800000E+00  1.00800000E+00
  0.00000000E+00  1.60000000E+01  1.00800000E+00  1.00800000E+00  0.00000000E+00
  1.60000000E+01  1.00800000E+00  1.00800000E+00  0.00000000E+00  1.60000000E+01
  1.00800000E+00  1.00800000E+00  0.00000000E+00  1.60000000E+01  1.00800000E+00
  1.00800000E+00  0.00000000E+00  1.60000000E+01  1.00800000E+00  1.00800000E+00
  0.00000000E+00  1.60000000E+01  1.00800000E+00  1.00800000E+00  0.00000000E+00
  1.60000000E+01  1.00800000E+00  1.00800000E+00  0.00000000E+00  1.60000000E+01
  1.00800000E+00  1.00800000E+00  0.00000000E+00  1.60000000E+01  1.00800000E+00
  1.00800000E+00  0.00000000E+00  1.60000000E+01  1.00800000E+00  1.00800000E+00
  0.00000000E+00  1.60000000E+01  1.00800000E+00  1.00800000E+00  0.00000000E+00
  1.60000000E+01  1.00800000E+00  1.00800000E+00  0.00000000E+00  1.60000000E+01
  1.00800000E+00  1.00800000E+00  0.00000000E+00  1.60000000E+01  1.00800000E+00
  1.00800000E+00  0.00000000E+00  1.60000000E+01  1.00800000E+00  1.00800000E+00
  0.00000000E+00  1.60000000E+01  1.00800000E+00  1.00800000E+00  0.00000000E+00
  1.60000000E+01  1.00800000E+00  1.00800000E+00  0.00000000E+00  1.60000000E+01
  1.00800000E+00  1.00800000E+00  0.00000000E+00  1.60000000E+01  1.00800000E+00
  1.00800000E+00  0.00000000E+00  1.60000000E+01  1.00800000E+00  1.00800000E+00
  0.00000000E+00  1.60000000E+01  1.00800000E+00  1.00800000E+00  0.00000000E+00
  1.60000000E+01  1.00800000E+00  1.00800000E+00  0.00000000E+00  1.60000000E+01
  1.00800000E+00  1.00800000E+00  0.00000000E+00  1.60000000E+01  1.00800000E+00
  1.00800000E+00  0.00000000E+00  1.60000000E+01  1.00800000E+00  1.00800000E+00
  0.00000000E+00  1.60000000E+01  1.00800000E+00  1.00800000E+00  0.00000000E+00
  1.60000000E+01  1.00800000E+00  1.00800000E+00  0.00000000E+00  1.60000000E+01
  1.00800000E+00  1.00800000E+00  0.00000000E+00  1.60000000E+01  1.00800000E+00
  1.00800000E+00  0.00000000E+00  1.60000000E+01  1.00800000E+00  1.00800000E+00
  0.00000000E+00  1.60000000E+01  1.00800000E+00  1.00800000E+00  0.00000000E+00
  1.60000000E+01  1.00800000E+00  1.00800000E+00  0.00000000E+00  1.60000000E+01
  1.00800000E+00  1.00800000E+00  0.00000000E+00  1.60000000E+01  1.00800000E+00
  1.00800000E+00  0.00000000E+00  1.60000000E+01  1.00800000E+00  1.00800000E+00
  0.00000000E+00  1.60000000E+01  1.00800000E+00  1.00800000E+00  0.00000000E+00
  1.60000000E+01  1.00800000E+00  1.00800000E+00  0.00000000E+00  1.60000000E+01
  1.00800000E+00  1.00800000E+00  0.00000000E+00  1.60000000E+01  1.00800000E+00
  1.00800000E+00  0.00000000E+00  1.60000000E+01  1.00800000E+00  1.00800000E+00
  0.00000000E+00  1.60000000E+01  1.00800000E+00  1.00800000E+00  0.00000000E+00
  1.60000000E+01  1.00800000E+00  1.00800000E+00  0.00000000E+00  1.60000000E+01
  1.00800000E+00  1.00800000E+00  0.00000000E+00  1.60000000E+01  1.00800000E+00
  1.00800000E+00  0.00000000E+00  1.60000000E+01  1.00800000E+00  1.00800000E+00
  0.00000000E+00  1.60000000E+01  1.00800000E+00  1.00800000E+00  0.00000000E+00
  1.60000000E+01  1.00800000E+00  1.00800000E+00  0.00000000E+00  1.60000000E+01
  1.00800000E+00  1.00800000E+00  0.00000000E+00  1.60000000E+01  1.00800000E+00
  1.00800000E+00  0.00000000E+00  1.60000000E+01  1.00800000E+00  1.00800000E+00
  0.00000000E+00  1.60000000E+01  1.00800000E+00  1.00800000E+00  0.00000000E+00
  1.60000000E+01  1.00800000E+00  1.00800000E+00  0.00000000E+00  1.60000000E+01
  1.00800000E+00  1.00800000E+00  0.00000000E+00  1.60000000E+01  1.00800000E+00
  1.00800000E+00  0.00000000E+00  1.60000000E+01  1.00800000E+00  1.00800000E+00
  0.00000000E+00  1.60000000E+01  1.00800000E+00  1.00800000E+00  0.00000000E+00
  1.60000000E+01  1.00800000E+00  1.00800000E+00  0.00000000E+00  1.60000000E+01
  1.00800000E+00  1.00800000E+00  0.00000000E+00  1.60000000E+01  1.00800000E+00
  1.00800000E+00  0.00000000E+00  1.60000000E+01  1.00800000E+00  1.00800000E+00
  0.00000000E+00  1.60000000E+01  1.00800000E+00  1.00800000E+00  0.00000000E+00
  1.60000000E+01  1.00800000E+00  1.00800000E+00  0.00000000E+00  1.60000000E+01
  1.00800000E+00  1.00800000E+00  0.00000000E+00  1.60000000E+01  1.00800000E+00
  1.00800000E+00  0.00000000E+00  1.60000000E+01  1.00800000E+00  1.00800000E+00
  0.00000000E+00  1.60000000E+01  1.00800000E+00  1.00800000E+00  0.00000000E+00
  1.60000000E+01  1.00800000E+00  1.00800000E+00  0.00000000E+00  1.60000000E+01
  1.00800000E+00  1.00800000E+00  0.00000000E+00  1.60000000E+01  1.00800000E+00
  1.00800000E+00  0.00000000E+00  1.60000000E+01  1.00800000E+00  1.00800000E+00
  0.00000000E+00  1.60000000E+01  1.00800000E+00  1.00800000E+00  0.00000000E+00
  1.60000000E+01  1.00800000E+00  1.00800000E+00  0.00000000E+00  1.60000000E+01
  1.00800000E+00  1.00800000E+00  0.00000000E+00  1.60000000E+01  1.00800000E+00
  1.00800000E+00  0.00000000E+00  1.60000000E+01  1.00800000E+00  1.00800000E+00
  0.00000000E+00  1.60000000E+01  1.00800000E+00  1.00800000E+00  0.00000000E+00
  1.60000000E+01  1.00800000E+00  1.00800000E+00  0.00000000E+00  1.60000000E+01
  1.00800000E+00  1.00800000E+00  0.00000000E+00  1.60000000E+01  1.00800000E+00
  1.00800000E+00  0.00000000E+00  1.60000000E+01  1.00800000E+00  1.00800000E+00
  0.00000000E+00  1.60000000E+01  1.00800000E+00  1.00800000E+00  0.00000000E+00
  1.60000000E+01  1.00800000E+00  1.00800000E+00  0.00000000E+00  1.60000000E+01
  1.00800000E+00  1.00800000E+00  0.00000000E+00  1.60000000E+01  1.00800000E+00
  1.00800000E+00  0.00000000E+00  1.60000000E+01  1.00800000E+00  1.00800000E+00
  0.00000000E+00  1.60000000E+01  1.00800000E+00  1.00800000E+00  0.00000000E+00
  1.60000000E+01  1.00800000E+00  1.00800000E+00  0.00000000E+00  1.60000000E+01
  1.00800000E+00  1.00800000E+00  0.00000000E+00  1.60000000E+01  1.00800000E+00
  1.00800000E+00  0.00000000E+00  1.60000000E+01  1.00800000E+00  1.00800000E+00
  0.00000000E+00  1.60000000E+01  1.00800000E+00  1.00800000E+00  0.00000000E+00
  1.60000000E+01  1.00800000E+00  1.00800000E+00  0.00000000E+00  1.60000000E+01
  1.00800000E+00  1.00800000E+00  0.00000000E+00  1.60000000E+01  1.00800000E+00
  1.00800000E+00  0.00000000E+00  1.60000000E+01  1.00800000E+00  1.00800000E+00
  0.00000000E+00  1.60000000E+01  1.00800000E+00  1.00800000E+00  0.00000000E+00
  1.60000000E+01  1.00800000E+00  1.00800000E+00  0.00000000E+00  1.60000000E+01
  1.00800000E+00  1.00800000E+00  0.00000000E+00  1.60000000E+01  1.00800000E+00
  1.00800000E+00  0.00000000E+00  1.60000000E+01  1.00800000E+00  1.00800000E+00
  0.00000000E+00  1.60000000E+01  1.00800000E+00  1.00800000E+00  0.00000000E+00
  1.60000000E+01  1.00800000E+00  1.00800000E+00  0.00000000E+00  1.60000000E+01
  1.00800000E+00  1.00800000E+00  0.00000000E+00  1.60000000E+01  1.00800000E+00
  1.00800000E+00  0.00000000E+00  1.60000000E+01  1.00800000E+00  1.00800000E+00
  0.00000000E+00  1.60000000E+01  1.00800000E+00  1.00800000E+00  0.00000000E+00
  1.60000000E+01  1.00800000E+00  1.00800000E+00  0.00000000E+00  1.60000000E+01
  1.00800000E+00  1.00800000E+00  0.00000000E+00  1.60000000E+01  1.00800000E+00
  1.00800000E+00  0.00000000E+00  1.60000000E+01  1.00800000E+00  1.00800000E+00
  0.00000000E+00  1.60000000E+01  1.00800000E+00  1.00800000E+00  0.00000000E+00
  1.60000000E+01  1.00800000E+00  1.00800000E+00  0.00000000E+00  1.60000000E+01
  1.00800000E+00  1.00800000E+00  0.00000000E+00  1.60000000E+01  1.00800000E+00
  1.00800000E+00  0.00000000E+00  1.60000000E+01  1.00800000E+00  1.00800000E+00
  0.00000000E+00  1.60000000E+01  1.00800000E+00  1.00800000E+00  0.00000000E+00
  1.60000000E+01  1.00800000E+00  1.00800000E+00  0.00000000E+00  1.60000000E+01
  1.00800000E+00  1.00800000E+00  0.00000000E+00  1.60000000E+01  1.00800000E+00
  1.00800000E+00  0.00000000E+00  1.60000000E+01  1.00800000E+00  1.00800000E+00
  0.00000000E+00  1.60000000E+01  1.00800000E+00  1.00800000E+00  0.00000000E+00
  1.60000000E+01  1.00800000E+00  1.00800000E+00  0.00000000E+00  1.60000000E+01
  1.00800000E+00  1.00800000E+00  0.00000000E+00  1.60000000E+01  1.00800000E+00
  1.00800000E+00  0.00000000E+00  1.60000000E+01  1.00800000E+00  1.00800000E+00
  0.00000000E+00  1.60000000E+01  1.00800000E+00  1.00800000E+00  0.00000000E+00
  1.60000000E+01  1.00800000E+00  1.00800000E+00  0.00000000E+00  1.60000000E+01
  1.00800000E+00  1.00800000E+00  0.00000000E+00  1.60000000E+01  1.00800000E+00
  1.00800000E+00  0.00000000E+00  1.60000000E+01  1.00800000E+00  1.00800000E+00
  0.00000000E+00  1.60000000E+01  1.00800000E+00  1.00800000E+00  0.00000000E+00
  1.60000000E+01  1.00800000E+00  1.00800000E+00  0.00000000E+00  1.60000000E+01
  1.00800000E+00  1.00800000E+00  0.00000000E+00  1.60000000E+01  1.00800000E+00
  1.00800000E+00  0.00000000E+00  1.60000000E+01  1.00800000E+00  1.00800000E+00
  0.00000000E+00  1.60000000E+01  1.00800000E+00  1.00800000E+00  0.00000000E+00
  1.60000000E+01  1.00800000E+00  1.00800000E+00  0.00000000E+00  1.60000000E+01
  1.00800000E+00  1.00800000E+00  0.00000000E+00  1.60000000E+01  1.00800000E+00
  1.00800000E+00  0.00000000E+00  1.60000000E+01  1.00800000E+00  1.00800000E+00
  0.00000000E+00  1.60000000E+01  1.00800000E+00  1.00800000E+00  0.00000000E+00
  1.60000000E+01  1.00800000E+00  1.00800000E+00  0.00000000E+00  1.60000000E+01
  1.00800000E+00  1.00800000E+00  0.00000000E+00  1.60000000E+01  1.00800000E+00
  1.00800000E+00  0.00000000E+00  1.60000000E+01  1.00800000E+00  1.00800000E+00
  0.00000000E+00  1.60000000E+01  1.00800000E+00  1.00800000E+00  0.00000000E+00
  1.60000000E+01  1.00800000E+00  1.00800000E+00  0.00000000E+00  1.60000000E+01
  1.00800000E+00  1.00800000E+00  0.00000000E+00  1.60000000E+01  1.00800000E+00
  1.00800000E+00  0.00000000E+00  1.60000000E+01  1.00800000E+00  1.00800000E+00
  0.00000000E+00  1.60000000E+01  1.00800000E+00  1.00800000E+00  0.00000000E+00
  1.60000000E+01  1.00800000E+00  1.00800000E+00  0.00000000E+00  1.60000000E+01
  1.00800000E+00  1.00800000E+00  0.00000000E+00  1.60000000E+01  1.00800000E+00
  1.00800000E+00  0.00000000E+00  1.60000000E+01  1.00800000E+00  1.00800000E+00
  0.00000000E+00  1.60000000E+01  1.00800000E+00  1.00800000E+00  0.00000000E+00
  1.60000000E+01  1.00800000E+00  1.00800000E+00  0.00000000E+00  1.60000000E+01
  1.00800000E+00  1.00800000E+00  0.00000000E+00  1.60000000E+01  1.00800000E+00
  1.00800000E+00  0.00000000E+00  1.60000000E+01  1.00800000E+00  1.00800000E+00
  0.00000000E+00  1.60000000E+01  1.00800000E+00  1.00800000E+00  0.00000000E+00
  1.60000000E+01  1.00800000E+00  1.00800000E+00  0.00000000E+00  1.60000000E+01
  1.00800000E+00  1.00800000E+00  0.00000000E+00  1.60000000E+01  1.00800000E+00
  1.00800000E+00  0.00000000E+00  1.60000000E+01  1.00800000E+00  1.00800000E+00
  0.00000000E+00  1.60000000E+01  1.00800000E+00  1.00800000E+00  0.00000000E+00
  1.60000000E+01  1.00800000E+00  1.00800000E+00  0.00000000E+00  1.60000000E+01
  1.00800000E+00  1.00800000E+00  0.00000000E+00  1.60000000E+01  1.00800000E+00
  1.00800000E+00  0.00000000E+00  1.60000000E+01  1.00800000E+00  1.00800000E+00
  0.00000000E+00  1.60000000E+01  1.00800000E+00  1.00800000E+00  0.00000000E+00
  1.60000000E+01  1.00800000E+00  1.00800000E+00  0.00000000E+00  1.60000000E+01
  1.00800000E+00  1.00800000E+00  0.00000000E+00  1.60000000E+01  1.00800000E+00
  1.00800000E+00  0.00000000E+00  1.60000000E+01  1.00800000E+00  1.00800000E+00
  0.00000000E+00  1.60000000E+01  1.00800000E+00  1.00800000E+00  0.00000000E+00
  1.60000000E+01  1.00800000E+00  1.00800000E+00  0.00000000E+00  1.60000000E+01
  1.00800000E+00  1.00800000E+00  0.00000000E+00  1.60000000E+01  1.00800000E+00
  1.00800000E+00  0.00000000E+00  1.60000000E+01  1.00800000E+00  1.00800000E+00
  0.00000000E+00  1.60000000E+01  1.00800000E+00  1.00800000E+00  0.00000000E+00
  1.60000000E+01  1.00800000E+00  1.00800000E+00  0.00000000E+00  1.60000000E+01
  1.00800000E+00  1.00800000E+00  0.00000000E+00  1.60000000E+01  1.00800000E+00
  1.00800000E+00  0.00000000E+00  1.60000000E+01  1.00800000E+00  1.00800000E+00
  0.00000000E+00  1.60000000E+01  1.00800000E+00  1.00800000E+00  0.00000000E+00
  1.60000000E+01  1.00800000E+00  1.00800000E+00  0.00000000E+00  1.60000000E+01
  1.00800000E+00  1.00800000E+00  0.00000000E+00  1.60000000E+01  1.00800000E+00
  1.00800000E+00  0.00000000E+00  1.60000000E+01  1.00800000E+00  1.00800000E+00
  0.00000000E+00  1.60000000E+01  1.00800000E+00  1.00800000E+00  0.00000000E+00
  1.60000000E+01  1.00800000E+00  1.00800000E+00  0.00000000E+00  1.60000000E+01
  1.00800000E+00  1.00800000E+00  0.00000000E+00  1.60000000E+01  1.00800000E+00
  1.00800000E+00  0.00000000E+00  1.60000000E+01  1.00800000E+00  1.00800000E+00
  0.00000000E+00  1.60000000E+01  1.00800000E+00  1.00800000E+00  0.00000000E+00
  1.60000000E+01  1.00800000E+00  1.00800000E+00  0.00000000E+00  1.60000000E+01
  1.00800000E+00  1.00800000E+00  0.00000000E+00  1.60000000E+01  1.00800000E+00
  1.00800000E+00  0.00000000E+00  1.60000000E+01  1.00800000E+00  1.00800000E+00
  0.00000000E+00  1.60000000E+01  1.00800000E+00  1.00800000E+00  0.00000000E+00
  1.60000000E+01  1.00800000E+00  1.00800000E+00  0.00000000E+00  1.60000000E+01
  1.00800000E+00  1.00800000E+00  0.00000000E+00  1.60000000E+01  1.00800000E+00
  1.00800000E+00  0.00000000E+00  1.60000000E+01  1.00800000E+00  1.00800000E+00
  0.00000000E+00  1.60000000E+01  1.00800000E+00  1.00800000E+00  0.00000000E+00
  1.60000000E+01  1.00800000E+00  1.00800000E+00  0.00000000E+00  1.60000000E+01
  1.00800000E+00  1.00800000E+00  0.00000000E+00  1.60000000E+01  1.00800000E+00
  1.00800000E+00  0.00000000E+00  1.60000000E+01  1.00800000E+00  1.00800000E+00
  0.00000000E+00  1.60000000E+01  1.00800000E+00  1.00800000E+00  0.00000000E+00
  1.60000000E+01  1.00800000E+00  1.00800000E+00  0.00000000E+00  1.60000000E+01
  1.00800000E+00  1.00800000E+00  0.00000000E+00  1.60000000E+01  1.00800000E+00
  1.00800000E+00  0.00000000E+00  1.60000000E+01  1.00800000E+00  1.00800000E+00
  0.00000000E+00  1.60000000E+01  1.00800000E+00  1.00800000E+00  0.00000000E+00
  1.60000000E+01  1.00800000E+00  1.00800000E+00  0.00000000E+00  1.60000000E+01
  1.00800000E+00  1.00800000E+00  0.00000000E+00  1.60000000E+01  1.00800000E+00
  1.00800000E+00  0.00000000E+00  1.60000000E+01  1.00800000E+00  1.00800000E+00
  0.00000000E+00  1.60000000E+01  1.00800000E+00  1.00800000E+00  0.00000000E+00
  1.60000000E+01  1.00800000E+00  1.00800000E+00  0.00000000E+00  1.60000000E+01
  1.00800000E+00  1.00800000E+00  0.00000000E+00  1.60000000E+01  1.00800000E+00
  1.00800000E+00  0.00000000E+00  1.60000000E+01  1.00800000E+00  1.00800000E+00
  0.00000000E+00  1.60000000E+01  1.00800000E+00  1.00800000E+00  0.00000000E+00
  1.60000000E+01  1.00800000E+00  1.00800000E+00  0.00000000E+00  1.60000000E+01
  1.00800000E+00  1.00800000E+00  0.00000000E+00  1.60000000E+01  1.00800000E+00
  1.00800000E+00  0.00000000E+00  1.60000000E+01  1.00800000E+00  1.00800000E+00
  0.00000000E+00  1.60000000E+01  1.00800000E+00  1.00800000E+00  0.00000000E+00
  1.60000000E+01  1.00800000E+00  1.00800000E+00  0.00000000E+00  1.60000000E+01
  1.00800000E+00  1.00800000E+00  0.00000000E+00  1.60000000E+01  1.00800000E+00
  1.00800000E+00  0.00000000E+00  1.60000000E+01  1.00800000E+00  1.00800000E+00
  0.00000000E+00  1.60000000E+01  1.00800000E+00  1.00800000E+00  0.00000000E+00
  1.60000000E+01  1.00800000E+00  1.00800000E+00  0.00000000E+00  1.60000000E+01
  1.00800000E+00  1.00800000E+00  0.00000000E+00  1.60000000E+01  1.00800000E+00
  1.00800000E+00  0.00000000E+00  1.60000000E+01  1.00800000E+00  1.00800000E+00
  0.00000000E+00  1.60000000E+01  1.00800000E+00  1.00800000E+00  0.00000000E+00
  1.60000000E+01  1.00800000E+00  1.00800000E+00  0.00000000E+00  1.60000000E+01
  1.00800000E+00  1.00800000E+00  0.00000000E+00  1.60000000E+01  1.00800000E+00
  1.00800000E+00  0.00000000E+00  1.60000000E+01  1.00800000E+00  1.00800000E+00
  0.00000000E+00  1.60000000E+01  1.00800000E+00  1.00800000E+00  0.00000000E+00
  1.60000000E+01  1.00800000E+00  1.00800000E+00  0.00000000E+00  1.60000000E+01
  1.00800000E+00  1.00800000E+00  0.00000000E+00  1.60000000E+01  1.00800000E+00
  1.00800000E+00  0.00000000E+00  1.60000000E+01  1.00800000E+00  1.00800000E+00
  0.00000000E+00  1.60000000E+01  1.00800000E+00  1.00800000E+00  0.00000000E+00
  1.60000000E+01  1.00800000E+00  1.00800000E+00  0.00000000E+00  1.60000000E+01
  1.00800000E+00  1.00800000E+00  0.00000000E+00  1.60000000E+01  1.00800000E+00
  1.00800000E+00  0.00000000E+00  1.60000000E+01  1.00800000E+00  1.00800000E+00
  0.00000000E+00  1.60000000E+01  1.00800000E+00  1.00800000E+00  0.00000000E+00
  1.60000000E+01  1.00800000E+00  1.00800000E+00  0.00000000E+00  1.60000000E+01
  1.00800000E+00  1.00800000E+00  0.00000000E+00  1.60000000E+01  1.00800000E+00
  1.00800000E+00  0.00000000E+00  1.60000000E+01  1.00800000E+00  1.00800000E+00
  0.00000000E+00  1.60000000E+01  1.00800000E+00  1.00800000E+00  0.00000000E+00
  1.60000000E+01  1.00800000E+00  1.00800000E+00  0.00000000E+00  1.60000000E+01
  1.00800000E+00  1.00800000E+00  0.00000000E+00  1.60000000E+01  1.00800000E+00
  1.00800000E+00  0.00000000E+00  1.60000000E+01  1.00800000E+00  1.00800000E+00
  0.00000000E+00  1.60000000E+01  1.00800000E+00  1.00800000E+00  0.00000000E+00
  1.60000000E+01  1.00800000E+00  1.00800000E+00  0.00000000E+00  1.60000000E+01
  1.00800000E+00  1.00800000E+00  0.00000000E+00  1.60000000E+01  1.00800000E+00
  1.00800000E+00  0.00000000E+00  1.60000000E+01  1.00800000E+00  1.00800000E+00
  0.00000000E+00  1.60000000E+01  1.00800000E+00  1.00800000E+00  0.00000000E+00
  1.60000000E+01  1.00800000E+00  1.00800000E+00  0.00000000E+00  1.60000000E+01
  1.00800000E+00  1.00800000E+00  0.00000000E+00  1.60000000E+01  1.00800000E+00
  1.00800000E+00  0.00000000E+00  1.60000000E+01  1.00800000E+00  1.00800000E+00
  0.00000000E+00  1.60000000E+01  1.00800000E+00  1.00800000E+00  0.00000000E+00
  1.60000000E+01  1.00800000E+00  1.00800000E+00  0.00000000E+00  1.60000000E+01
  1.00800000E+00  1.00800000E+00  0.00000000E+00  1.60000000E+01  1.00800000E+00
  1.00800000E+00  0.00000000E+00  1.60000000E+01  1.00800000E+00  1.00800000E+00
  0.00000000E+00  1.60000000E+01  1.00800000E+00  1.00800000E+00  0.00000000E+00
  1.60000000E+01  1.00800000E+00  1.00800000E+00  0.00000000E+00  1.60000000E+01
  1.00800000E+00  1.00800000E+00  0.00000000E+00  1.60000000E+01  1.00800000E+00
  1.00800000E+00  0.00000000E+00  1.60000000E+01  1.00800000E+00  1.00800000E+00
  0.00000000E+00  1.60000000E+01  1.00800000E+00  1.00800000E+00  0.00000000E+00
  1.60000000E+01  1.00800000E+00  1.00800000E+00  0.00000000E+00  1.60000000E+01
  1.00800000E+00  1.00800000E+00  0.00000000E+00  1.60000000E+01  1.00800000E+00
  1.00800000E+00  0.00000000E+00  1.60000000E+01  1.00800000E+00  1.00800000E+00
  0.00000000E+00  1.60000000E+01  1.00800000E+00  1.00800000E+00  0.00000000E+00
  1.60000000E+01  1.00800000E+00  1.00800000E+00  0.00000000E+00  1.60000000E+01
  1.00800000E+00  1.00800000E+00  0.00000000E+00  1.60000000E+01  1.00800000E+00
  1.00800000E+00  0.00000000E+00  1.60000000E+01  1.00800000E+00  1.00800000E+00
  0.00000000E+00  1.60000000E+01  1.00800000E+00  1.00800000E+00  0.00000000E+00
  1.60000000E+01  1.00800000E+00  1.00800000E+00  0.00000000E+00  1.60000000E+01
  1.00800000E+00  1.00800000E+00  0.00000000E+00  1.60000000E+01  1.00800000E+00
  1.00800000E+00  0.00000000E+00  1.60000000E+01  1.00800000E+00  1.00800000E+00
  0.00000000E+00  1.60000000E+01  1.00800000E+00  1.00800000E+00  0.00000000E+00
  1.60000000E+01  1.00800000E+00  1.00800000E+00  0.00000000E+00  1.60000000E+01
  1.00800000E+00  1.00800000E+00  0.00000000E+00  1.60000000E+01  1.00800000E+00
  1.00800000E+00  0.00000000E+00  1.60000000E+01  1.00800000E+00  1.00800000E+00
  0.00000000E+00  1.60000000E+01  1.00800000E+00  1.00800000E+00  0.00000000E+00
  1.60000000E+01  1.00800000E+00  1.00800000E+00  0.00000000E+00  1.60000000E+01
  1.00800000E+00  1.00800000E+00  0.00000000E+00  1.60000000E+01  1.00800000E+00
  1.00800000E+00  0.00000000E+00  1.60000000E+01  1.00800000E+00  1.00800000E+00
  0.00000000E+00  1.60000000E+01  1.00800000E+00  1.00800000E+00  0.00000000E+00
  1.60000000E+01  1.00800000E+00  1.00800000E+00  0.00000000E+00  1.60000000E+01
  1.00800000E+00  1.00800000E+00  0.00000000E+00  1.60000000E+01  1.00800000E+00
  1.00800000E+00  0.00000000E+00  1.60000000E+01  1.00800000E+00  1.00800000E+00
  0.00000000E+00  1.60000000E+01  1.00800000E+00  1.00800000E+00  0.00000000E+00
  1.60000000E+01  1.00800000E+00  1.00800000E+00  0.00000000E+00  1.60000000E+01
  1.00800000E+00  1.00800000E+00  0.00000000E+00  1.60000000E+01  1.00800000E+00
  1.00800000E+00  0.00000000E+00  1.60000000E+01  1.00800000E+00  1.00800000E+00
  0.00000000E+00  1.60000000E+01  1.00800000E+00  1.00800000E+00  0.00000000E+00
  1.60000000E+01  1.00800000E+00  1.00800000E+00  0.00000000E+00  1.60000000E+01
  1.00800000E+00  1.00800000E+00  0.00000000E+00  1.60000000E+01  1.00800000E+00
  1.00800000E+00  0.00000000E+00  1.60000000E+01  1.00800000E+00  1.00800000E+00
  0.00000000E+00  1.60000000E+01  1.00800000E+00  1.00800000E+00  0.00000000E+00
  1.60000000E+01  1.00800000E+00  1.00800000E+00  0.00000000E+00  1.60000000E+01
  1.00800000E+00  1.00800000E+00  0.00000000E+00  1.60000000E+01  1.00800000E+00
  1.00800000E+00  0.00000000E+00  1.60000000E+01  1.00800000E+00  1.00800000E+00
  0.00000000E+00  1.60000000E+01  1.00800000E+00  1.00800000E+00  0.00000000E+00
  1.60000000E+01  1.00800000E+00  1.00800000E+00  0.00000000E+00  1.60000000E+01
  1.00800000E+00  1.00800000E+00  0.00000000E+00  1.60000000E+01  1.00800000E+00
  1.00800000E+00  0.00000000E+00  1.60000000E+01  1.00800000E+00  1.00800000E+00
  0.00000000E+00  1.60000000E+01  1.00800000E+00  1.00800000E+00  0.00000000E+00
  1.60000000E+01  1.00800000E+00  1.00800000E+00  0.00000000E+00  1.60000000E+01
  1.00800000E+00  1.00800000E+00  0.00000000E+00  1.60000000E+01  1.00800000E+00
  1.00800000E+00  0.00000000E+00  1.60000000E+01  1.00800000E+00  1.00800000E+00
  0.00000000E+00  1.60000000E+01  1.00800000E+00  1.00800000E+00  0.00000000E+00
  1.60000000E+01  1.00800000E+00  1.00800000E+00  0.00000000E+00  1.60000000E+01
  1.00800000E+00  1.00800000E+00  0.00000000E+00  1.60000000E+01  1.00800000E+00
  1.00800000E+00  0.00000000E+00  1.60000000E+01  1.00800000E+00  1.00800000E+00
  0.00000000E+00  1.60000000E+01  1.00800000E+00  1.00800000E+00  0.00000000E+00
  1.60000000E+01  1.00800000E+00  1.00800000E+00  0.00000000E+00  1.60000000E+01
  1.00800000E+00  1.00800000E+00  0.00000000E+00  1.60000000E+01  1.00800000E+00
  1.00800000E+00  0.00000000E+00  1.60000000E+01  1.00800000E+00  1.00800000E+00
  0.00000000E+00  1.60000000E+01  1.00800000E+00  1.00800000E+00  0.00000000E+00
  1.60000000E+01  1.00800000E+00  1.00800000E+00  0.00000000E+00  1.60000000E+01
  1.00800000E+00  1.00800000E+00  0.00000000E+00  1.60000000E+01  1.00800000E+00
  1.00800000E+00  0.00000000E+00  1.60000000E+01  1.00800000E+00  1.00800000E+00
  0.00000000E+00  1.60000000E+01  1.00800000E+00  1.00800000E+00  0.00000000E+00
  1.60000000E+01  1.00800000E+00  1.00800000E+00  0.00000000E+00  1.60000000E+01
  1.00800000E+00  1.00800000E+00  0.00000000E+00  1.60000000E+01  1.00800000E+00
  1.00800000E+00  0.00000000E+00  1.60000000E+01  1.00800000E+00  1.00800000E+00
  0.00000000E+00  1.60000000E+01  1.00800000E+00  1.00800000E+00  0.00000000E+00
  1.60000000E+01  1.00800000E+00  1.00800000E+00  0.00000000E+00  1.60000000E+01
  1.00800000E+00  1.00800000E+00  0.00000000E+00  1.60000000E+01  1.00800000E+00
  1.00800000E+00  0.00000000E+00  1.60000000E+01  1.00800000E+00  1.00800000E+00
  0.00000000E+00  1.60000000E+01  1.00800000E+00  1.00800000E+00  0.00000000E+00
  1.60000000E+01  1.00800000E+00  1.00800000E+00  0.00000000E+00  1.60000000E+01
  1.00800000E+00  1.00800000E+00  0.00000000E+00  1.60000000E+01  1.00800000E+00
  1.00800000E+00  0.00000000E+00  1.60000000E+01  1.00800000E+00  1.00800000E+00
  0.00000000E+00  1.60000000E+01  1.00800000E+00  1.00800000E+00  0.00000000E+00
  1.60000000E+01  1.00800000E+00  1.00800000E+00  0.00000000E+00  1.60000000E+01
  1.00800000E+00  1.00800000E+00  0.00000000E+00  1.60000000E+01  1.00800000E+00
  1.00800000E+00  0.00000000E+00  1.60000000E+01  1.00800000E+00  1.00800000E+00
  0.00000000E+00  1.60000000E+01  1.00800000E+00  1.00800000E+00  0.00000000E+00
  1.60000000E+01  1.00800000E+00  1.00800000E+00  0.00000000E+00  1.60000000E+01
  1.00800000E+00  1.00800000E+00  0.00000000E+00  1.60000000E+01  1.00800000E+00
  1.00800000E+00  0.00000000E+00  1.60000000E+01  1.00800000E+00  1.00800000E+00
  0.00000000E+00  1.60000000E+01  1.00800000E+00  1.00800000E+00  0.00000000E+00
  1.60000000E+01  1.00800000E+00  1.00800000E+00  0.00000000E+00  1.60000000E+01
  1.00800000E+00  1.00800000E+00  0.00000000E+00  1.60000000E+01  1.00800000E+00
  1.00800000E+00  0.00000000E+00  1.60000000E+01  1.00800000E+00  1.00800000E+00
  0.00000000E+00  1.60000000E+01  1.00800000E+00  1.00800000E+00  0.00000000E+00
  1.60000000E+01  1.00800000E+00  1.00800000E+00  0.00000000E+00  1.60000000E+01
  1.00800000E+00  1.00800000E+00  0.00000000E+00  1.60000000E+01  1.00800000E+00
  1.00800000E+00  0.00000000E+00  1.60000000E+01  1.00800000E+00  1.00800000E+00
  0.00000000E+00  1.60000000E+01  1.00800000E+00  1.00800000E+00  0.00000000E+00
  1.60000000E+01  1.00800000E+00  1.00800000E+00  0.00000000E+00  1.60000000E+01
  1.00800000E+00  1.00800000E+00  0.00000000E+00  1.60000000E+01  1.00800000E+00
  1.00800000E+00  0.00000000E+00  1.60000000E+01  1.00800000E+00  1.00800000E+00
  0.00000000E+00  1.60000000E+01  1.00800000E+00  1.00800000E+00  0.00000000E+00
  1.60000000E+01  1.00800000E+00  1.00800000E+00  0.00000000E+00  1.60000000E+01
  1.00800000E+00  1.00800000E+00  0.00000000E+00  1.60000000E+01  1.00800000E+00
  1.00800000E+00  0.00000000E+00  1.60000000E+01  1.00800000E+00  1.00800000E+00
  0.00000000E+00  1.60000000E+01  1.00800000E+00  1.00800000E+00  0.00000000E+00
  1.60000000E+01  1.00800000E+00  1.00800000E+00  0.00000000E+00  1.60000000E+01
  1.00800000E+00  1.00800000E+00  0.00000000E+00  1.60000000E+01  1.00800000E+00
  1.00800000E+00  0.00000000E+00  1.60000000E+01  1.00800000E+00  1.00800000E+00
  0.00000000E+00  1.60000000E+01  1.00800000E+00  1.00800000E+00  0.00000000E+00
  1.60000000E+01  1.00800000E+00  1.00800000E+00  0.00000000E+00  1.60000000E+01
  1.00800000E+00  1.00800000E+00  0.00000000E+00  1.60000000E+01  1.00800000E+00
  1.00800000E+00  0.00000000E+00  1.60000000E+01  1.00800000E+00  1.00800000E+00
  0.00000000E+00  1.60000000E+01  1.00800000E+00  1.00800000E+00  0.00000000E+00
  1.60000000E+01  1.00800000E+00  1.00800000E+00  0.00000000E+00  1.60000000E+01
  1.00800000E+00  1.00800000E+00  0.00000000E+00  1.60000000E+01  1.00800000E+00
  1.00800000E+00  0.00000000E+00  1.60000000E+01  1.00800000E+00  1.00800000E+00
  0.00000000E+00  1.60000000E+01  1.00800000E+00  1.00800000E+00  0.00000000E+00
  1.60000000E+01  1.00800000E+00  1.00800000E+00  0.00000000E+00  1.60000000E+01
  1.00800000E+00  1.00800000E+00  0.00000000E+00  1.60000000E+01  1.00800000E+00
  1.00800000E+00  0.00000000E+00  1.60000000E+01  1.00800000E+00  1.00800000E+00
  0.00000000E+00  1.60000000E+01  1.00800000E+00  1.00800000E+00  0.00000000E+00
  1.60000000E+01  1.00800000E+00  1.00800000E+00  0.00000000E+00  1.60000000E+01
  1.00800000E+00  1.00800000E+00  0.00000000E+00  1.60000000E+01  1.00800000E+00
  1.00800000E+00  0.00000000E+00  1.60000000E+01  1.00800000E+00  1.00800000E+00
  0.00000000E+00  1.60000000E+01  1.00800000E+00  1.00800000E+00  0.00000000E+00
  1.60000000E+01  1.00800000E+00  1.00800000E+00  0.00000000E+00  1.60000000E+01
  1.00800000E+00  1.00800000E+00  0.00000000E+00  1.60000000E+01  1.00800000E+00
  1.00800000E+00  0.00000000E+00  1.60000000E+01  1.00800000E+00  1.00800000E+00
  0.00000000E+00  1.60000000E+01  1.00800000E+00  1.00800000E+00  0.00000000E+00
  1.60000000E+01  1.00800000E+00  1.00800000E+00  0.00000000E+00  1.60000000E+01
  1.00800000E+00  1.00800000E+00  0.00000000E+00  1.60000000E+01  1.00800000E+00
  1.00800000E+00  0.00000000E+00  1.60000000E+01  1.00800000E+00  1.00800000E+00
  0.00000000E+00  1.60000000E+01  1.00800000E+00  1.00800000E+00  0.00000000E+00
  1.60000000E+01  1.00800000E+00  1.00800000E+00  0.00000000E+00  1.60000000E+01
  1.00800000E+00  1.00800000E+00  0.00000000E+00  1.60000000E+01  1.00800000E+00
  1.00800000E+00  0.00000000E+00  1.60000000E+01  1.00800000E+00  1.00800000E+00
  0.00000000E+00  1.60000000E+01  1.00800000E+00  1.00800000E+00  0.00000000E+00
  1.60000000E+01  1.00800000E+00  1.00800000E+00  0.00000000E+00  1.60000000E+01
  1.00800000E+00  1.00800000E+00  0.00000000E+00  1.60000000E+01  1.00800000E+00
  1.00800000E+00  0.00000000E+00  1.60000000E+01  1.00800000E+00  1.00800000E+00
  0.00000000E+00  1.60000000E+01  1.00800000E+00  1.00800000E+00  0.00000000E+00
  1.60000000E+01  1.00800000E+00  1.00800000E+00  0.00000000E+00  1.60000000E+01
  1.00800000E+00  1.00800000E+00  0.00000000E+00  1.60000000E+01  1.00800000E+00
  1.00800000E+00  0.00000000E+00  1.60000000E+01  1.00800000E+00  1.00800000E+00
  0.00000000E+00  1.60000000E+01  1.00800000E+00  1.00800000E+00  0.00000000E+00
  1.60000000E+01  1.00800000E+00  1.00800000E+00  0.00000000E+00  1.60000000E+01
  1.00800000E+00  1.00800000E+00  0.00000000E+00  1.60000000E+01  1.00800000E+00
  1.00800000E+00  0.00000000E+00  1.60000000E+01  1.00800000E+00  1.00800000E+00
  0.00000000E+00  1.60000000E+01  1.00800000E+00  1.00800000E+00  0.00000000E+00
  1.60000000E+01  1.00800000E+00  1.00800000E+00  0.00000000E+00  1.60000000E+01
  1.00800000E+00  1.00800000E+00  0.00000000E+00  1.60000000E+01  1.00800000E+00
  1.00800000E+00  0.00000000E+00  1.60000000E+01  1.00800000E+00  1.00800000E+00
  0.00000000E+00  1.60000000E+01  1.00800000E+00  1.00800000E+00  0.00000000E+00
  1.60000000E+01  1.00800000E+00  1.00800000E+00  0.00000000E+00  1.60000000E+01
  1.00800000E+00  1.00800000E+00  0.00000000E+00  1.60000000E+01  1.00800000E+00
  1.00800000E+00  0.00000000E+00  1.60000000E+01  1.00800000E+00  1.00800000E+00
  0.00000000E+00  1.60000000E+01  1.00800000E+00  1.00800000E+00  0.00000000E+00
  1.60000000E+01  1.00800000E+00  1.00800000E+00  0.00000000E+00  1.60000000E+01
  1.00800000E+00  1.00800000E+00  0.00000000E+00  1.60000000E+01  1.00800000E+00
  1.00800000E+00  0.00000000E+00  1.60000000E+01  1.00800000E+00  1.00800000E+00
  0.00000000E+00  1.60000000E+01  1.00800000E+00  1.00800000E+00  0.00000000E+00
  1.60000000E+01  1.00800000E+00  1.00800000E+00  0.00000000E+00  1.60000000E+01
  1.00800000E+00  1.00800000E+00  0.00000000E+00  1.60000000E+01  1.00800000E+00
  1.00800000E+00  0.00000000E+00  1.60000000E+01  1.00800000E+00  1.00800000E+00
  0.00000000E+00  1.60000000E+01  1.00800000E+00  1.00800000E+00  0.00000000E+00
  1.60000000E+01  1.00800000E+00  1.00800000E+00  0.00000000E+00  1.60000000E+01
  1.00800000E+00  1.00800000E+00  0.00000000E+00  1.60000000E+01  1.00800000E+00
  1.00800000E+00  0.00000000E+00  1.60000000E+01  1.00800000E+00  1.00800000E+00
  0.00000000E+00  1.60000000E+01  1.00800000E+00  1.00800000E+00  0.00000000E+00
  1.60000000E+01  1.00800000E+00  1.00800000E+00  0.00000000E+00  1.60000000E+01
  1.00800000E+00  1.00800000E+00  0.00000000E+00  1.60000000E+01  1.00800000E+00
  1.00800000E+00  0.00000000E+00  1.60000000E+01  1.00800000E+00  1.00800000E+00
  0.00000000E+00  1.60000000E+01  1.00800000E+00  1.00800000E+00  0.00000000E+00
  1.60000000E+01  1.00800000E+00  1.00800000E+00  0.00000000E+00  1.60000000E+01
  1.00800000E+00  1.00800000E+00  0.00000000E+00  1.60000000E+01  1.00800000E+00
  1.00800000E+00  0.00000000E+00  1.60000000E+01  1.00800000E+00  1.00800000E+00
  0.00000000E+00  1.60000000E+01  1.00800000E+00  1.00800000E+00  0.00000000E+00
  1.60000000E+01  1.00800000E+00  1.00800000E+00  0.00000000E+00  1.60000000E+01
  1.00800000E+00  1.00800000E+00  0.00000000E+00  1.60000000E+01  1.00800000E+00
  1.00800000E+00  0.00000000E+00  1.60000000E+01  1.00800000E+00  1.00800000E+00
  0.00000000E+00  1.60000000E+01  1.00800000E+00  1.00800000E+00  0.00000000E+00
  1.60000000E+01  1.00800000E+00  1.00800000E+00  0.00000000E+00  1.60000000E+01
  1.00800000E+00  1.00800000E+00  0.00000000E+00  1.60000000E+01  1.00800000E+00
  1.00800000E+00  0.00000000E+00  1.60000000E+01  1.00800000E+00  1.00800000E+00
  0.00000000E+00  1.60000000E+01  1.00800000E+00  1.00800000E+00  0.00000000E+00
  1.60000000E+01  1.00800000E+00  1.00800000E+00  0.00000000E+00  1.60000000E+01
  1.00800000E+00  1.00800000E+00  0.00000000E+00  1.60000000E+01  1.00800000E+00
  1.00800000E+00  0.00000000E+00  1.60000000E+01  1.00800000E+00  1.00800000E+00
  0.00000000E+00  1.60000000E+01  1.00800000E+00  1.00800000E+00  0.00000000E+00
  1.60000000E+01  1.00800000E+00  1.00800000E+00  0.00000000E+00  1.60000000E+01
  1.00800000E+00  1.00800000E+00  0.00000000E+00  1.60000000E+01  1.00800000E+00
  1.00800000E+00  0.00000000E+00  1.60000000E+01  1.00800000E+00  1.00800000E+00
  0.00000000E+00  1.60000000E+01  1.00800000E+00  1.00800000E+00  0.00000000E+00
  1.60000000E+01  1.00800000E+00  1.00800000E+00  0.00000000E+00  1.60000000E+01
  1.00800000E+00  1.00800000E+00  0.00000000E+00  1.60000000E+01  1.00800000E+00
  1.00800000E+00  0.00000000E+00  1.60000000E+01  1.00800000E+00  1.00800000E+00
  0.00000000E+00  1.60000000E+01  1.00800000E+00  1.00800000E+00  0.00000000E+00
  1.60000000E+01  1.00800000E+00  1.00800000E+00  0.00000000E+00  1.60000000E+01
  1.00800000E+00  1.00800000E+00  0.00000000E+00  1.60000000E+01  1.00800000E+00
  1.00800000E+00  0.00000000E+00  1.60000000E+01  1.00800000E+00  1.00800000E+00
  0.00000000E+00  1.60000000E+01  1.00800000E+00  1.00800000E+00  0.00000000E+00
  1.60000000E+01  1.00800000E+00  1.00800000E+00  0.00000000E+00  1.60000000E+01
  1.00800000E+00  1.00800000E+00  0.00000000E+00  1.60000000E+01  1.00800000E+00
  1.00800000E+00  0.00000000E+00  1.60000000E+01  1.00800000E+00  1.00800000E+00
  0.00000000E+00  1.60000000E+01  1.00800000E+00  1.00800000E+00  0.00000000E+00
  1.60000000E+01  1.00800000E+00  1.00800000E+00  0.00000000E+00  1.60000000E+01
  1.00800000E+00  1.00800000E+00  0.00000000E+00  1.60000000E+01  1.00800000E+00
  1.00800000E+00  0.00000000E+00  1.60000000E+01  1.00800000E+00  1.00800000E+00
  0.00000000E+00  1.60000000E+01  1.00800000E+00  1.00800000E+00  0.00000000E+00
  1.60000000E+01  1.00800000E+00  1.00800000E+00  0.00000000E+00  1.60000000E+01
  1.00800000E+00  1.00800000E+00  0.00000000E+00  1.60000000E+01  1.00800000E+00
  1.00800000E+00  0.00000000E+00  1.60000000E+01  1.00800000E+00  1.00800000E+00
  0.00000000E+00  1.60000000E+01  1.00800000E+00  1.00800000E+00  0.00000000E+00
  1.60000000E+01  1.00800000E+00  1.00800000E+00  0.00000000E+00  1.60000000E+01
  1.00800000E+00  1.00800000E+00  0.00000000E+00  1.60000000E+01  1.00800000E+00
  1.00800000E+00  0.00000000E+00  1.60000000E+01  1.00800000E+00  1.00800000E+00
  0.00000000E+00  1.60000000E+01  1.00800000E+00  1.00800000E+00  0.00000000E+00
  1.60000000E+01  1.00800000E+00  1.00800000E+00  0.00000000E+00  1.60000000E+01
  1.00800000E+00  1.00800000E+00  0.00000000E+00  1.60000000E+01  1.00800000E+00
  1.00800000E+00  0.00000000E+00  1.60000000E+01  1.00800000E+00  1.00800000E+00
  0.00000000E+00  1.60000000E+01  1.00800000E+00  1.00800000E+00  0.00000000E+00
  1.60000000E+01  1.00800000E+00  1.00800000E+00  0.00000000E+00  1.60000000E+01
  1.00800000E+00  1.00800000E+00  0.00000000E+00  1.60000000E+01  1.00800000E+00
  1.00800000E+00  0.00000000E+00  1.60000000E+01  1.00800000E+00  1.00800000E+00
  0.00000000E+00  1.60000000E+01  1.00800000E+00  1.00800000E+00  0.00000000E+00
  1.60000000E+01  1.00800000E+00  1.00800000E+00  0.00000000E+00  1.60000000E+01
  1.00800000E+00  1.00800000E+00  0.00000000E+00  1.60000000E+01  1.00800000E+00
  1.00800000E+00  0.00000000E+00  1.60000000E+01  1.00800000E+00  1.00800000E+00
  0.00000000E+00  1.60000000E+01  1.00800000E+00  1.00800000E+00  0.00000000E+00
  1.60000000E+01  1.00800000E+00  1.00800000E+00  0.00000000E+00  1.60000000E+01
  1.00800000E+00  1.00800000E+00  0.00000000E+00  1.60000000E+01  1.00800000E+00
  1.00800000E+00  0.00000000E+00  1.60000000E+01  1.00800000E+00  1.00800000E+00
  0.00000000E+00  1.60000000E+01  1.00800000E+00  1.00800000E+00  0.00000000E+00
  1.60000000E+01  1.00800000E+00  1.00800000E+00  0.00000000E+00  1.60000000E+01
  1.00800000E+00  1.00800000E+00  0.00000000E+00  1.60000000E+01  1.00800000E+00
  1.00800000E+00  0.00000000E+00  1.60000000E+01  1.00800000E+00  1.00800000E+00
  0.00000000E+00  1.60000000E+01  1.00800000E+00  1.00800000E+00  0.00000000E+00
  1.60000000E+01  1.00800000E+00  1.00800000E+00  0.00000000E+00  1.60000000E+01
  1.00800000E+00  1.00800000E+00  0.00000000E+00  1.60000000E+01  1.00800000E+00
  1.00800000E+00  0.00000000E+00  1.60000000E+01  1.00800000E+00  1.00800000E+00
  0.00000000E+00  1.60000000E+01  1.00800000E+00  1.00800000E+00  0.00000000E+00
  1.60000000E+01  1.00800000E+00  1.00800000E+00  0.00000000E+00  1.60000000E+01
  1.00800000E+00  1.00800000E+00  0.00000000E+00  1.60000000E+01  1.00800000E+00
  1.00800000E+00  0.00000000E+00  1.60000000E+01  1.00800000E+00  1.00800000E+00
  0.00000000E+00  1.60000000E+01  1.00800000E+00  1.00800000E+00  0.00000000E+00
  1.60000000E+01  1.00800000E+00  1.00800000E+00  0.00000000E+00  1.60000000E+01
  1.00800000E+00  1.00800000E+00  0.00000000E+00  1.60000000E+01  1.00800000E+00
  1.00800000E+00  0.00000000E+00  1.60000000E+01  1.00800000E+00  1.00800000E+00
  0.00000000E+00  1.60000000E+01  1.00800000E+00  1.00800000E+00  0.00000000E+00
  1.60000000E+01  1.00800000E+00  1.00800000E+00  0.00000000E+00  1.60000000E+01
  1.00800000E+00  1.00800000E+00  0.00000000E+00  1.60000000E+01  1.00800000E+00
  1.00800000E+00  0.00000000E+00  1.60000000E+01  1.00800000E+00  1.00800000E+00
  0.00000000E+00  1.60000000E+01  1.00800000E+00  1.00800000E+00  0.00000000E+00
  1.60000000E+01  1.00800000E+00  1.00800000E+00  0.00000000E+00  1.60000000E+01
  1.00800000E+00  1.00800000E+00  0.00000000E+00  1.60000000E+01  1.00800000E+00
  1.00800000E+00  0.00000000E+00  1.60000000E+01  1.00800000E+00  1.00800000E+00
  0.00000000E+00  1.60000000E+01  1.00800000E+00  1.00800000E+00  0.00000000E+00
  1.60000000E+01  1.00800000E+00  1.00800000E+00  0.00000000E+00  1.60000000E+01
  1.00800000E+00  1.00800000E+00  0.00000000E+00  1.60000000E+01  1.00800000E+00
  1.00800000E+00  0.00000000E+00  1.60000000E+01  1.00800000E+00  1.00800000E+00
  0.00000000E+00  1.60000000E+01  1.00800000E+00  1.00800000E+00  0.00000000E+00
  1.60000000E+01  1.00800000E+00  1.00800000E+00  0.00000000E+00  1.60000000E+01
  1.00800000E+00  1.00800000E+00  0.00000000E+00  1.60000000E+01  1.00800000E+00
  1.00800000E+00  0.00000000E+00  1.60000000E+01  1.00800000E+00  1.00800000E+00
  0.00000000E+00  1.60000000E+01  1.00800000E+00  1.00800000E+00  0.00000000E+00
  1.60000000E+01  1.00800000E+00  1.00800000E+00  0.00000000E+00  1.60000000E+01
  1.00800000E+00  1.00800000E+00  0.00000000E+00  1.60000000E+01  1.00800000E+00
  1.00800000E+00  0.00000000E+00  1.60000000E+01  1.00800000E+00  1.00800000E+00
  0.00000000E+00  1.60000000E+01  1.00800000E+00  1.00800000E+00  0.00000000E+00
  1.60000000E+01  1.00800000E+00  1.00800000E+00  0.00000000E+00  1.60000000E+01
  1.00800000E+00  1.00800000E+00  0.00000000E+00  1.60000000E+01  1.00800000E+00
  1.00800000E+00  0.00000000E+00  1.60000000E+01  1.00800000E+00  1.00800000E+00
  0.00000000E+00  1.60000000E+01  1.00800000E+00  1.00800000E+00  0.00000000E+00
  1.60000000E+01  1.00800000E+00  1.00800000E+00  0.00000000E+00  1.60000000E+01
  1.00800000E+00  1.00800000E+00  0.00000000E+00  1.60000000E+01  1.00800000E+00
  1.00800000E+00  0.00000000E+00  1.60000000E+01  1.00800000E+00  1.00800000E+00
  0.00000000E+00  1.60000000E+01  1.00800000E+00  1.00800000E+00  0.00000000E+00
  1.60000000E+01  1.00800000E+00  1.00800000E+00  0.00000000E+00  1.60000000E+01
  1.00800000E+00  1.00800000E+00  0.00000000E+00  1.60000000E+01  1.00800000E+00
  1.00800000E+00  0.00000000E+00  1.60000000E+01  1.00800000E+00  1.00800000E+00
  0.00000000E+00  1.60000000E+01  1.00800000E+00  1.00800000E+00  0.00000000E+00
  1.60000000E+01  1.00800000E+00  1.00800000E+00  0.00000000E+00  1.60000000E+01
  1.00800000E+00  1.00800000E+00  0.00000000E+00  1.60000000E+01  1.00800000E+00
  1.00800000E+00  0.00000000E+00  1.60000000E+01  1.00800000E+00  1.00800000E+00
  0.00000000E+00  1.60000000E+01  1.00800000E+00  1.00800000E+00  0.00000000E+00
  1.60000000E+01  1.00800000E+00  1.00800000E+00  0.00000000E+00  1.60000000E+01
  1.00800000E+00  1.00800000E+00  0.00000000E+00  1.60000000E+01  1.00800000E+00
  1.00800000E+00  0.00000000E+00  1.60000000E+01  1.00800000E+00  1.00800000E+00
  0.00000000E+00  1.60000000E+01  1.00800000E+00  1.00800000E+00  0.00000000E+00
  1.60000000E+01  1.00800000E+00  1.00800000E+00  0.00000000E+00  1.60000000E+01
  1.00800000E+00  1.00800000E+00  0.00000000E+00  1.60000000E+01  1.00800000E+00
  1.00800000E+00  0.00000000E+00  1.60000000E+01  1.00800000E+00  1.00800000E+00
  0.00000000E+00  1.60000000E+01  1.00800000E+00  1.00800000E+00  0.00000000E+00
  1.60000000E+01  1.00800000E+00  1.00800000E+00  0.00000000E+00  1.60000000E+01
  1.00800000E+00  1.00800000E+00  0.00000000E+00  1.60000000E+01  1.00800000E+00
  1.00800000E+00  0.00000000E+00  1.60000000E+01  1.00800000E+00  1.00800000E+00
  0.00000000E+00  1.60000000E+01  1.00800000E+00  1.00800000E+00  0.00000000E+00
  1.60000000E+01  1.00800000E+00  1.00800000E+00  0.00000000E+00  1.60000000E+01
  1.00800000E+00  1.00800000E+00  0.00000000E+00  1.60000000E+01  1.00800000E+00
  1.00800000E+00  0.00000000E+00  1.60000000E+01  1.00800000E+00  1.00800000E+00
  0.00000000E+00  1.60000000E+01  1.00800000E+00  1.00800000E+00  0.00000000E+00
  1.60000000E+01  1.00800000E+00  1.00800000E+00  0.00000000E+00  1.60000000E+01
  1.00800000E+00  1.00800000E+00  0.00000000E+00  1.60000000E+01  1.00800000E+00
  1.00800000E+00  0.00000000E+00  1.60000000E+01  1.00800000E+00  1.00800000E+00
  0.00000000E+00  1.60000000E+01  1.00800000E+00  1.00800000E+00  0.00000000E+00
  1.60000000E+01  1.00800000E+00  1.00800000E+00  0.00000000E+00  1.60000000E+01
  1.00800000E+00  1.00800000E+00  0.00000000E+00  1.60000000E+01  1.00800000E+00
  1.00800000E+00  0.00000000E+00  1.60000000E+01  1.00800000E+00  1.00800000E+00
  0.00000000E+00  1.60000000E+01  1.00800000E+00  1.00800000E+00  0.00000000E+00
  1.60000000E+01  1.00800000E+00  1.00800000E+00  0.00000000E+00  1.60000000E+01
  1.00800000E+00  1.00800000E+00  0.00000000E+00  1.60000000E+01  1.00800000E+00
  1.00800000E+00  0.00000000E+00  1.60000000E+01  1.00800000E+00  1.00800000E+00
  0.00000000E+00  1.60000000E+01  1.00800000E+00  1.00800000E+00  0.00000000E+00
  1.60000000E+01  1.00800000E+00  1.00800000E+00  0.00000000E+00  1.60000000E+01
  1.00800000E+00  1.00800000E+00  0.00000000E+00  1.60000000E+01  1.00800000E+00
  1.00800000E+00  0.00000000E+00  1.60000000E+01  1.00800000E+00  1.00800000E+00
  0.00000000E+00  1.60000000E+01  1.00800000E+00  1.00800000E+00  0.00000000E+00
  1.60000000E+01  1.00800000E+00  1.00800000E+00  0.00000000E+00  1.60000000E+01
  1.00800000E+00  1.00800000E+00  0.00000000E+00  1.60000000E+01  1.00800000E+00
  1.00800000E+00  0.00000000E+00  1.60000000E+01  1.00800000E+00  1.00800000E+00
  0.00000000E+00  1.60000000E+01  1.00800000E+00  1.00800000E+00  0.00000000E+00
  1.60000000E+01  1.00800000E+00  1.00800000E+00  0.00000000E+00  1.60000000E+01
  1.00800000E+00  1.00800000E+00  0.00000000E+00  1.60000000E+01  1.00800000E+00
  1.00800000E+00  0.00000000E+00  1.60000000E+01  1.00800000E+00  1.00800000E+00
  0.00000000E+00  1.60000000E+01  1.00800000E+00  1.00800000E+00  0.00000000E+00
  1.60000000E+01  1.00800000E+00  1.00800000E+00  0.00000000E+00  1.60000000E+01
  1.00800000E+00  1.00800000E+00  0.00000000E+00  1.60000000E+01  1.00800000E+00
  1.00800000E+00  0.00000000E+00  1.60000000E+01  1.00800000E+00  1.00800000E+00
  0.00000000E+00  1.60000000E+01  1.00800000E+00  1.00800000E+00  0.00000000E+00
  1.60000000E+01  1.00800000E+00  1.00800000E+00  0.00000000E+00  1.60000000E+01
  1.00800000E+00  1.00800000E+00  0.00000000E+00  1.60000000E+01  1.00800000E+00
  1.00800000E+00  0.00000000E+00  1.60000000E+01  1.00800000E+00  1.00800000E+00
  0.00000000E+00  1.60000000E+01  1.00800000E+00  1.00800000E+00  0.00000000E+00
  1.60000000E+01  1.00800000E+00  1.00800000E+00  0.00000000E+00  1.60000000E+01
  1.00800000E+00  1.00800000E+00  0.00000000E+00  1.60000000E+01  1.00800000E+00
  1.00800000E+00  0.00000000E+00  1.60000000E+01  1.00800000E+00  1.00800000E+00
  0.00000000E+00  1.60000000E+01  1.00800000E+00  1.00800000E+00  0.00000000E+00
  1.60000000E+01  1.00800000E+00  1.00800000E+00  0.00000000E+00  1.60000000E+01
  1.00800000E+00  1.00800000E+00  0.00000000E+00  1.60000000E+01  1.00800000E+00
  1.00800000E+00  0.00000000E+00  1.60000000E+01  1.00800000E+00  1.00800000E+00
  0.00000000E+00  1.60000000E+01  1.00800000E+00  1.00800000E+00  0.00000000E+00
  1.60000000E+01  1.00800000E+00  1.00800000E+00  0.00000000E+00  1.60000000E+01
  1.00800000E+00  1.00800000E+00  0.00000000E+00  1.60000000E+01  1.00800000E+00
  1.00800000E+00  0.00000000E+00  1.60000000E+01  1.00800000E+00  1.00800000E+00
  0.00000000E+00  1.60000000E+01  1.00800000E+00  1.00800000E+00  0.00000000E+00
  1.60000000E+01  1.00800000E+00  1.00800000E+00  0.00000000E+00  1.60000000E+01
  1.00800000E+00  1.00800000E+00  0.00000000E+00  1.60000000E+01  1.00800000E+00
  1.00800000E+00  0.00000000E+00  1.60000000E+01  1.00800000E+00  1.00800000E+00
  0.00000000E+00  1.60000000E+01  1.00800000E+00  1.00800000E+00  0.00000000E+00
  1.60000000E+01  1.00800000E+00  1.00800000E+00  0.00000000E+00  1.60000000E+01
  1.00800000E+00  1.00800000E+00  0.00000000E+00  1.60000000E+01  1.00800000E+00
  1.00800000E+00  0.00000000E+00  1.60000000E+01  1.00800000E+00  1.00800000E+00
  0.00000000E+00  1.60000000E+01  1.00800000E+00  1.00800000E+00  0.00000000E+00
  1.60000000E+01  1.00800000E+00  1.00800000E+00  0.00000000E+00  1.60000000E+01
  1.00800000E+00  1.00800000E+00  0.00000000E+00  1.60000000E+01  1.00800000E+00
  1.00800000E+00  0.00000000E+00  1.60000000E+01  1.00800000E+00  1.00800000E+00
  0.00000000E+00  1.60000000E+01  1.00800000E+00  1.00800000E+00  0.00000000E+00
  1.60000000E+01  1.00800000E+00  1.00800000E+00  0.00000000E+00  1.60000000E+01
  1.00800000E+00  1.00800000E+00  0.00000000E+00  1.60000000E+01  1.00800000E+00
  1.00800000E+00  0.00000000E+00  1.60000000E+01  1.00800000E+00  1.00800000E+00
  0.00000000E+00  1.60000000E+01  1.00800000E+00  1.00800000E+00  0.00000000E+00
  1.60000000E+01  1.00800000E+00  1.00800000E+00  0.00000000E+00  1.60000000E+01
  1.00800000E+00  1.00800000E+00  0.00000000E+00  1.60000000E+01  1.00800000E+00
  1.00800000E+00  0.00000000E+00  1.60000000E+01  1.00800000E+00  1.00800000E+00
  0.00000000E+00  1.60000000E+01  1.00800000E+00  1.00800000E+00  0.00000000E+00
  1.60000000E+01  1.00800000E+00  1.00800000E+00  0.00000000E+00  1.60000000E+01
  1.00800000E+00  1.00800000E+00  0.00000000E+00  1.60000000E+01  1.00800000E+00
  1.00800000E+00  0.00000000E+00  1.60000000E+01  1.00800000E+00  1.00800000E+00
  0.00000000E+00  1.60000000E+01  1.00800000E+00  1.00800000E+00  0.00000000E+00
  1.60000000E+01  1.00800000E+00  1.00800000E+00  0.00000000E+00  1.60000000E+01
  1.00800000E+00  1.00800000E+00  0.00000000E+00  1.60000000E+01  1.00800000E+00
  1.00800000E+00  0.00000000E+00  1.60000000E+01  1.00800000E+00  1.00800000E+00
  0.00000000E+00  1.60000000E+01  1.00800000E+00  1.00800000E+00  0.00000000E+00
  1.60000000E+01  1.00800000E+00  1.00800000E+00  0.00000000E+00  1.60000000E+01
  1.00800000E+00  1.00800000E+00  0.00000000E+00  1.60000000E+01  1.00800000E+00
  1.00800000E+00  0.00000000E+00  1.60000000E+01  1.00800000E+00  1.00800000E+00
  0.00000000E+00  1.60000000E+01  1.00800000E+00  1.00800000E+00  0.00000000E+00
  1.60000000E+01  1.00800000E+00  1.00800000E+00  0.00000000E+00  1.60000000E+01
  1.00800000E+00  1.00800000E+00  0.00000000E+00  1.60000000E+01  1.00800000E+00
  1.00800000E+00  0.00000000E+00  1.60000000E+01  1.00800000E+00  1.00800000E+00
  0.00000000E+00  1.60000000E+01  1.00800000E+00  1.00800000E+00  0.00000000E+00
  1.60000000E+01  1.00800000E+00  1.00800000E+00  0.00000000E+00  1.60000000E+01
  1.00800000E+00  1.00800000E+00  0.00000000E+00  1.60000000E+01  1.00800000E+00
  1.00800000E+00  0.00000000E+00  1.60000000E+01  1.00800000E+00  1.00800000E+00
  0.00000000E+00  1.60000000E+01  1.00800000E+00  1.00800000E+00  0.00000000E+00
  1.60000000E+01  1.00800000E+00  1.00800000E+00  0.00000000E+00  1.60000000E+01
  1.00800000E+00  1.00800000E+00  0.00000000E+00  1.60000000E+01  1.00800000E+00
  1.00800000E+00  0.00000000E+00  1.60000000E+01  1.00800000E+00  1.00800000E+00
  0.00000000E+00  1.60000000E+01  1.00800000E+00  1.00800000E+00  0.00000000E+00
  1.60000000E+01  1.00800000E+00  1.00800000E+00  0.00000000E+00  1.60000000E+01
  1.00800000E+00  1.00800000E+00  0.00000000E+00  1.60000000E+01  1.00800000E+00
  1.00800000E+00  0.00000000E+00  1.60000000E+01  1.00800000E+00  1.00800000E+00
  0.00000000E+00  1.60000000E+01  1.00800000E+00  1.00800000E+00  0.00000000E+00
  1.60000000E+01  1.00800000E+00  1.00800000E+00  0.00000000E+00  1.60000000E+01
  1.00800000E+00  1.00800000E+00  0.00000000E+00  1.60000000E+01  1.00800000E+00
  1.00800000E+00  0.00000000E+00  1.60000000E+01  1.00800000E+00  1.00800000E+00
  0.00000000E+00  1.60000000E+01  1.00800000E+00  1.00800000E+00  0.00000000E+00
  1.60000000E+01  1.00800000E+00  1.00800000E+00  0.00000000E+00  1.60000000E+01
  1.00800000E+00  1.00800000E+00  0.00000000E+00  1.60000000E+01  1.00800000E+00
  1.00800000E+00  0.00000000E+00  1.60000000E+01  1.00800000E+00  1.00800000E+00
  0.00000000E+00  1.60000000E+01  1.00800000E+00  1.00800000E+00  0.00000000E+00
  1.60000000E+01  1.00800000E+00  1.00800000E+00  0.00000000E+00  1.60000000E+01
  1.00800000E+00  1.00800000E+00  0.00000000E+00  1.60000000E+01  1.00800000E+00
  1.00800000E+00  0.00000000E+00  1.60000000E+01  1.00800000E+00  1.00800000E+00
  0.00000000E+00  1.60000000E+01  1.00800000E+00  1.00800000E+00  0.00000000E+00
  1.60000000E+01  1.00800000E+00  1.00800000E+00  0.00000000E+00  1.60000000E+01
  1.00800000E+00  1.00800000E+00  0.00000000E+00  1.60000000E+01  1.00800000E+00
  1.00800000E+00  0.00000000E+00  1.60000000E+01  1.00800000E+00  1.00800000E+00
  0.00000000E+00  1.60000000E+01  1.00800000E+00  1.00800000E+00  0.00000000E+00
  1.60000000E+01  1.00800000E+00  1.00800000E+00  0.00000000E+00  1.60000000E+01
  1.00800000E+00  1.00800000E+00  0.00000000E+00  1.60000000E+01  1.00800000E+00
  1.00800000E+00  0.00000000E+00  1.60000000E+01  1.00800000E+00  1.00800000E+00
  0.00000000E+00  1.60000000E+01  1.00800000E+00  1.00800000E+00  0.00000000E+00
  1.60000000E+01  1.00800000E+00  1.00800000E+00  0.00000000E+00  1.60000000E+01
  1.00800000E+00  1.00800000E+00  0.00000000E+00  1.60000000E+01  1.00800000E+00
  1.00800000E+00  0.00000000E+00  1.60000000E+01  1.00800000E+00  1.00800000E+00
  0.00000000E+00  1.60000000E+01  1.00800000E+00  1.00800000E+00  0.00000000E+00
  1.60000000E+01  1.00800000E+00  1.00800000E+00  0.00000000E+00  1.60000000E+01
  1.00800000E+00  1.00800000E+00  0.00000000E+00  1.60000000E+01  1.00800000E+00
  1.00800000E+00  0.00000000E+00  1.60000000E+01  1.00800000E+00  1.00800000E+00
  0.00000000E+00  1.60000000E+01  1.00800000E+00  1.00800000E+00  0.00000000E+00
  1.60000000E+01  1.00800000E+00  1.00800000E+00  0.00000000E+00  1.60000000E+01
  1.00800000E+00  1.00800000E+00  0.00000000E+00  1.60000000E+01  1.00800000E+00
  1.00800000E+00  0.00000000E+00  1.60000000E+01  1.00800000E+00  1.00800000E+00
  0.00000000E+00  1.60000000E+01  1.00800000E+00  1.00800000E+00  0.00000000E+00
  1.60000000E+01  1.00800000E+00  1.00800000E+00  0.00000000E+00  1.60000000E+01
  1.00800000E+00  1.00800000E+00  0.00000000E+00  1.60000000E+01  1.00800000E+00
  1.00800000E+00  0.00000000E+00  1.60000000E+01  1.00800000E+00  1.00800000E+00
  0.00000000E+00  1.60000000E+01  1.00800000E+00  1.00800000E+00  0.00000000E+00
  1.60000000E+01  1.00800000E+00  1.00800000E+00  0.00000000E+00  1.60000000E+01
  1.00800000E+00  1.00800000E+00  0.00000000E+00  1.60000000E+01  1.00800000E+00
  1.00800000E+00  0.00000000E+00  1.60000000E+01  1.00800000E+00  1.00800000E+00
  0.00000000E+00  1.60000000E+01  1.00800000E+00  1.00800000E+00  0.00000000E+00
  1.60000000E+01  1.00800000E+00  1.00800000E+00  0.00000000E+00  1.60000000E+01
  1.00800000E+00  1.00800000E+00  0.00000000E+00  1.60000000E+01  1.00800000E+00
  1.00800000E+00  0.00000000E+00  1.60000000E+01  1.00800000E+00  1.00800000E+00
  0.00000000E+00  1.60000000E+01  1.00800000E+00  1.00800000E+00  0.00000000E+00
  1.60000000E+01  1.00800000E+00  1.00800000E+00  0.00000000E+00  1.60000000E+01
  1.00800000E+00  1.00800000E+00  0.00000000E+00  1.60000000E+01  1.00800000E+00
  1.00800000E+00  0.00000000E+00  1.60000000E+01  1.00800000E+00  1.00800000E+00
  0.00000000E+00  1.60000000E+01  1.00800000E+00  1.00800000E+00  0.00000000E+00
  1.60000000E+01  1.00800000E+00  1.00800000E+00  0.00000000E+00  1.60000000E+01
  1.00800000E+00  1.00800000E+00  0.00000000E+00  1.60000000E+01  1.00800000E+00
  1.00800000E+00  0.00000000E+00  1.60000000E+01  1.00800000E+00  1.00800000E+00
  0.00000000E+00  1.60000000E+01  1.00800000E+00  1.00800000E+00  0.00000000E+00
  1.60000000E+01  1.00800000E+00  1.00800000E+00  0.00000000E+00  1.60000000E+01
  1.00800000E+00  1.00800000E+00  0.00000000E+00  1.60000000E+01  1.00800000E+00
  1.00800000E+00  0.00000000E+00  1.60000000E+01  1.00800000E+00  1.00800000E+00
  0.00000000E+00  1.60000000E+01  1.00800000E+00  1.00800000E+00  0.00000000E+00
  1.60000000E+01  1.00800000E+00  1.00800000E+00  0.00000000E+00  1.60000000E+01
  1.00800000E+00  1.00800000E+00  0.00000000E+00  1.60000000E+01  1.00800000E+00
  1.00800000E+00  0.00000000E+00  1.60000000E+01  1.00800000E+00  1.00800000E+00
  0.00000000E+00  1.60000000E+01  1.00800000E+00  1.00800000E+00  0.00000000E+00
  1.60000000E+01  1.00800000E+00  1.00800000E+00  0.00000000E+00  1.60000000E+01
  1.00800000E+00  1.00800000E+00  0.00000000E+00  1.60000000E+01  1.00800000E+00
  1.00800000E+00  0.00000000E+00  1.60000000E+01  1.00800000E+00  1.00800000E+00
  0.00000000E+00  1.60000000E+01  1.00800000E+00  1.00800000E+00  0.00000000E+00
  1.60000000E+01  1.00800000E+00  1.00800000E+00  0.00000000E+00  1.60000000E+01
  1.00800000E+00  1.00800000E+00  0.00000000E+00  1.60000000E+01  1.00800000E+00
  1.00800000E+00  0.00000000E+00  1.60000000E+01  1.00800000E+00  1.00800000E+00
  0.00000000E+00  1.60000000E+01  1.00800000E+00  1.00800000E+00  0.00000000E+00
  1.60000000E+01  1.00800000E+00  1.00800000E+00  0.00000000E+00  1.60000000E+01
  1.00800000E+00  1.00800000E+00  0.00000000E+00  1.60000000E+01  1.00800000E+00
  1.00800000E+00  0.00000000E+00  1.60000000E+01  1.00800000E+00  1.00800000E+00
  0.00000000E+00  1.60000000E+01  1.00800000E+00  1.00800000E+00  0.00000000E+00
  1.60000000E+01  1.00800000E+00  1.00800000E+00  0.00000000E+00  1.60000000E+01
  1.00800000E+00  1.00800000E+00  0.00000000E+00  1.60000000E+01  1.00800000E+00
  1.00800000E+00  0.00000000E+00  1.60000000E+01  1.00800000E+00  1.00800000E+00
  0.00000000E+00  1.60000000E+01  1.00800000E+00  1.00800000E+00  0.00000000E+00
  1.60000000E+01  1.00800000E+00  1.00800000E+00  0.00000000E+00  1.60000000E+01
  1.00800000E+00  1.00800000E+00  0.00000000E+00  1.60000000E+01  1.00800000E+00
  1.00800000E+00  0.00000000E+00  1.60000000E+01  1.00800000E+00  1.00800000E+00
  0.00000000E+00  1.60000000E+01  1.00800000E+00  1.00800000E+00  0.00000000E+00
  1.60000000E+01  1.00800000E+00  1.00800000E+00  0.00000000E+00  1.60000000E+01
  1.00800000E+00  1.00800000E+00  0.00000000E+00  1.60000000E+01  1.00800000E+00
  1.00800000E+00  0.00000000E+00  1.60000000E+01  1.00800000E+00  1.00800000E+00
  0.00000000E+00  1.60000000E+01  1.00800000E+00  1.00800000E+00  0.00000000E+00
  1.60000000E+01  1.00800000E+00  1.00800000E+00  0.00000000E+00  1.60000000E+01
  1.00800000E+00  1.00800000E+00  0.00000000E+00  1.60000000E+01  1.00800000E+00
  1.00800000E+00  0.00000000E+00  1.60000000E+01  1.00800000E+00  1.00800000E+00
  0.00000000E+00  1.60000000E+01  1.00800000E+00  1.00800000E+00  0.00000000E+00
  1.60000000E+01  1.00800000E+00  1.00800000E+00  0.00000000E+00  1.60000000E+01
  1.00800000E+00  1.00800000E+00  0.00000000E+00  1.60000000E+01  1.00800000E+00
  1.00800000E+00  0.00000000E+00  1.60000000E+01  1.00800000E+00  1.00800000E+00
  0.00000000E+00  1.60000000E+01  1.00800000E+00  1.00800000E+00  0.00000000E+00
  1.60000000E+01  1.00800000E+00  1.00800000E+00  0.00000000E+00  1.60000000E+01
  1.00800000E+00  1.00800000E+00  0.00000000E+00  1.60000000E+01  1.00800000E+00
  1.00800000E+00  0.00000000E+00  1.60000000E+01  1.00800000E+00  1.00800000E+00
  0.00000000E+00  1.60000000E+01  1.00800000E+00  1.00800000E+00  0.00000000E+00
  1.60000000E+01  1.00800000E+00  1.00800000E+00  0.00000000E+00  1.60000000E+01
  1.00800000E+00  1.00800000E+00  0.00000000E+00  1.60000000E+01  1.00800000E+00
  1.00800000E+00  0.00000000E+00  1.60000000E+01  1.00800000E+00  1.00800000E+00
  0.00000000E+00  1.60000000E+01  1.00800000E+00  1.00800000E+00  0.00000000E+00
  1.60000000E+01  1.00800000E+00  1.00800000E+00  0.00000000E+00  1.60000000E+01
  1.00800000E+00  1.00800000E+00  0.00000000E+00  1.60000000E+01  1.00800000E+00
  1.00800000E+00  0.00000000E+00  1.60000000E+01  1.00800000E+00  1.00800000E+00
  0.00000000E+00  1.60000000E+01  1.00800000E+00  1.00800000E+00  0.00000000E+00
  1.60000000E+01  1.00800000E+00  1.00800000E+00  0.00000000E+00  1.60000000E+01
  1.00800000E+00  1.00800000E+00  0.00000000E+00  1.60000000E+01  1.00800000E+00
  1.00800000E+00  0.00000000E+00  1.60000000E+01  1.00800000E+00  1.00800000E+00
  0.00000000E+00  1.60000000E+01  1.00800000E+00  1.00800000E+00  0.00000000E+00
  1.60000000E+01  1.00800000E+00  1.00800000E+00  0.00000000E+00  1.60000000E+01
  1.00800000E+00  1.00800000E+00  0.00000000E+00  1.60000000E+01  1.00800000E+00
  1.00800000E+00  0.00000000E+00  1.60000000E+01  1.00800000E+00  1.00800000E+00
  0.00000000E+00  1.60000000E+01  1.00800000E+00  1.00800000E+00  0.00000000E+00
  1.60000000E+01  1.00800000E+00  1.00800000E+00  0.00000000E+00  1.60000000E+01
  1.00800000E+00  1.00800000E+00  0.00000000E+00  1.60000000E+01  1.00800000E+00
  1.00800000E+00  0.00000000E+00  1.60000000E+01  1.00800000E+00  1.00800000E+00
  0.00000000E+00  1.60000000E+01  1.00800000E+00  1.00800000E+00  0.00000000E+00
  1.60000000E+01  1.00800000E+00  1.00800000E+00  0.00000000E+00  1.60000000E+01
  1.00800000E+00  1.00800000E+00  0.00000000E+00  1.60000000E+01  1.00800000E+00
  1.00800000E+00  0.00000000E+00  1.60000000E+01  1.00800000E+00  1.00800000E+00
  0.00000000E+00  1.60000000E+01  1.00800000E+00  1.00800000E+00  0.00000000E+00
  1.60000000E+01  1.00800000E+00  1.00800000E+00  0.00000000E+00  1.60000000E+01
  1.00800000E+00  1.00800000E+00  0.00000000E+00  1.60000000E+01  1.00800000E+00
  1.00800000E+00  0.00000000E+00  1.60000000E+01  1.00800000E+00  1.00800000E+00
  0.00000000E+00  1.60000000E+01  1.00800000E+00  1.00800000E+00  0.00000000E+00
  1.60000000E+01  1.00800000E+00  1.00800000E+00  0.00000000E+00  1.60000000E+01
  1.00800000E+00  1.00800000E+00  0.00000000E+00  1.60000000E+01  1.00800000E+00
  1.00800000E+00  0.00000000E+00  1.60000000E+01  1.00800000E+00  1.00800000E+00
  0.00000000E+00  1.60000000E+01  1.00800000E+00  1.00800000E+00  0.00000000E+00
  1.60000000E+01  1.00800000E+00  1.00800000E+00  0.00000000E+00  1.60000000E+01
  1.00800000E+00  1.00800000E+00  0.00000000E+00  1.60000000E+01  1.00800000E+00
  1.00800000E+00  0.00000000E+00  1.60000000E+01  1.00800000E+00  1.00800000E+00
  0.00000000E+00  1.60000000E+01  1.00800000E+00  1.00800000E+00  0.00000000E+00
  1.60000000E+01  1.00800000E+00  1.00800000E+00  0.00000000E+00  1.60000000E+01
  1.00800000E+00  1.00800000E+00  0.00000000E+00  1.60000000E+01  1.00800000E+00
  1.00800000E+00  0.00000000E+00  1.60000000E+01  1.00800000E+00  1.00800000E+00
  0.00000000E+00  1.60000000E+01  1.00800000E+00  1.00800000E+00  0.00000000E+00
  1.60000000E+01  1.00800000E+00  1.00800000E+00  0.00000000E+00  1.60000000E+01
  1.00800000E+00  1.00800000E+00  0.00000000E+00  1.60000000E+01  1.00800000E+00
  1.00800000E+00  0.00000000E+00  1.60000000E+01  1.00800000E+00  1.00800000E+00
  0.00000000E+00  1.60000000E+01  1.00800000E+00  1.00800000E+00  0.00000000E+00
  1.60000000E+01  1.00800000E+00  1.00800000E+00  0.00000000E+00  1.60000000E+01
  1.00800000E+00  1.00800000E+00  0.00000000E+00  1.60000000E+01  1.00800000E+00
  1.00800000E+00  0.00000000E+00  1.60000000E+01  1.00800000E+00  1.00800000E+00
  0.00000000E+00  1.60000000E+01  1.00800000E+00  1.00800000E+00  0.00000000E+00
  1.60000000E+01  1.00800000E+00  1.00800000E+00  0.00000000E+00  1.60000000E+01
  1.00800000E+00  1.00800000E+00  0.00000000E+00  1.60000000E+01  1.00800000E+00
  1.00800000E+00  0.00000000E+00  1.60000000E+01  1.00800000E+00  1.00800000E+00
  0.00000000E+00  1.60000000E+01  1.00800000E+00  1.00800000E+00  0.00000000E+00
  1.60000000E+01  1.00800000E+00  1.00800000E+00  0.00000000E+00  1.60000000E+01
  1.00800000E+00  1.00800000E+00  0.00000000E+00  1.60000000E+01  1.00800000E+00
  1.00800000E+00  0.00000000E+00  1.60000000E+01  1.00800000E+00  1.00800000E+00
  0.00000000E+00  1.60000000E+01  1.00800000E+00  1.00800000E+00  0.00000000E+00
  1.60000000E+01  1.00800000E+00  1.00800000E+00  0.00000000E+00  1.60000000E+01
  1.00800000E+00  1.00800000E+00  0.00000000E+00  1.60000000E+01  1.00800000E+00
  1.00800000E+00  0.00000000E+00  1.60000000E+01  1.00800000E+00  1.00800000E+00
  0.00000000E+00  1.60000000E+01  1.00800000E+00  1.00800000E+00  0.00000000E+00
  1.60000000E+01  1.00800000E+00  1.00800000E+00  0.00000000E+00  1.60000000E+01
  1.00800000E+00  1.00800000E+00  0.00000000E+00  1.60000000E+01  1.00800000E+00
  1.00800000E+00  0.00000000E+00  1.60000000E+01  1.00800000E+00  1.00800000E+00
  0.00000000E+00  1.60000000E+01  1.00800000E+00  1.00800000E+00  0.00000000E+00
  1.60000000E+01  1.00800000E+00  1.00800000E+00  0.00000000E+00  1.60000000E+01
  1.00800000E+00  1.00800000E+00  0.00000000E+00  1.60000000E+01  1.00800000E+00
  1.00800000E+00  0.00000000E+00  1.60000000E+01  1.00800000E+00  1.00800000E+00
  0.00000000E+00  1.60000000E+01  1.00800000E+00  1.00800000E+00  0.00000000E+00
  1.60000000E+01  1.00800000E+00  1.00800000E+00  0.00000000E+00  1.60000000E+01
  1.00800000E+00  1.00800000E+00  0.00000000E+00  1.60000000E+01  1.00800000E+00
  1.00800000E+00  0.00000000E+00  1.60000000E+01  1.00800000E+00  1.00800000E+00
  0.00000000E+00  1.60000000E+01  1.00800000E+00  1.00800000E+00  0.00000000E+00
  1.60000000E+01  1.00800000E+00  1.00800000E+00  0.00000000E+00  1.60000000E+01
  1.00800000E+00  1.00800000E+00  0.00000000E+00  1.60000000E+01  1.00800000E+00
  1.00800000E+00  0.00000000E+00  1.60000000E+01  1.00800000E+00  1.00800000E+00
  0.00000000E+00  1.60000000E+01  1.00800000E+00  1.00800000E+00  0.00000000E+00
  1.60000000E+01  1.00800000E+00  1.00800000E+00  0.00000000E+00  1.60000000E+01
  1.00800000E+00  1.00800000E+00  0.00000000E+00  1.60000000E+01  1.00800000E+00
  1.00800000E+00  0.00000000E+00  1.60000000E+01  1.00800000E+00  1.00800000E+00
  0.00000000E+00  1.60000000E+01  1.00800000E+00  1.00800000E+00  0.00000000E+00
  1.60000000E+01  1.00800000E+00  1.00800000E+00  0.00000000E+00  1.60000000E+01
  1.00800000E+00  1.00800000E+00  0.00000000E+00  1.60000000E+01  1.00800000E+00
  1.00800000E+00  0.00000000E+00  1.60000000E+01  1.00800000E+00  1.00800000E+00
  0.00000000E+00  1.60000000E+01  1.00800000E+00  1.00800000E+00  0.00000000E+00
  1.60000000E+01  1.00800000E+00  1.00800000E+00  0.00000000E+00  1.60000000E+01
  1.00800000E+00  1.00800000E+00  0.00000000E+00  1.60000000E+01  1.00800000E+00
  1.00800000E+00  0.00000000E+00  1.60000000E+01  1.00800000E+00  1.00800000E+00
  0.00000000E+00  1.60000000E+01  1.00800000E+00  1.00800000E+00  0.00000000E+00
  1.60000000E+01  1.00800000E+00  1.00800000E+00  0.00000000E+00  1.60000000E+01
  1.00800000E+00  1.00800000E+00  0.00000000E+00  1.60000000E+01  1.00800000E+00
  1.00800000E+00  0.00000000E+00  1.60000000E+01  1.00800000E+00  1.00800000E+00
  0.00000000E+00  1.60000000E+01  1.00800000E+00  1.00800000E+00  0.00000000E+00
  1.60000000E+01  1.00800000E+00  1.00800000E+00  0.00000000E+00  1.60000000E+01
  1.00800000E+00  1.00800000E+00  0.00000000E+00  1.60000000E+01  1.00800000E+00
  1.00800000E+00  0.00000000E+00  1.60000000E+01  1.00800000E+00  1.00800000E+00
  0.00000000E+00  1.60000000E+01  1.00800000E+00  1.00800000E+00  0.00000000E+00
  1.60000000E+01  1.00800000E+00  1.00800000E+00  0.00000000E+00  1.60000000E+01
  1.00800000E+00  1.00800000E+00  0.00000000E+00  1.60000000E+01  1.00800000E+00
  1.00800000E+00  0.00000000E+00  1.60000000E+01  1.00800000E+00  1.00800000E+00
  0.00000000E+00  1.60000000E+01  1.00800000E+00  1.00800000E+00  0.00000000E+00
  1.60000000E+01  1.00800000E+00  1.00800000E+00  0.00000000E+00  1.60000000E+01
  1.00800000E+00  1.00800000E+00  0.00000000E+00  1.60000000E+01  1.00800000E+00
  1.00800000E+00  0.00000000E+00  1.60000000E+01  1.00800000E+00  1.00800000E+00
  0.00000000E+00  1.60000000E+01  1.00800000E+00  1.00800000E+00  0.00000000E+00
  1.60000000E+01  1.00800000E+00  1.00800000E+00  0.00000000E+00  1.60000000E+01
  1.00800000E+00  1.00800000E+00  0.00000000E+00  1.60000000E+01  1.00800000E+00
  1.00800000E+00  0.00000000E+00  1.60000000E+01  1.00800000E+00  1.00800000E+00
  0.00000000E+00  1.60000000E+01  1.00800000E+00  1.00800000E+00  0.00000000E+00
  1.60000000E+01  1.00800000E+00  1.00800000E+00  0.00000000E+00  1.60000000E+01
  1.00800000E+00  1.00800000E+00  0.00000000E+00  1.60000000E+01  1.00800000E+00
  1.00800000E+00  0.00000000E+00  1.60000000E+01  1.00800000E+00  1.00800000E+00
  0.00000000E+00  1.60000000E+01  1.00800000E+00  1.00800000E+00  0.00000000E+00
  1.60000000E+01  1.00800000E+00  1.00800000E+00  0.00000000E+00  1.60000000E+01
  1.00800000E+00  1.00800000E+00  0.00000000E+00  1.60000000E+01  1.00800000E+00
  1.00800000E+00  0.00000000E+00  1.60000000E+01  1.00800000E+00  1.00800000E+00
  0.00000000E+00  1.60000000E+01  1.00800000E+00  1.00800000E+00  0.00000000E+00
  1.60000000E+01  1.00800000E+00  1.00800000E+00  0.00000000E+00  1.60000000E+01
  1.00800000E+00  1.00800000E+00  0.00000000E+00  1.60000000E+01  1.00800000E+00
  1.00800000E+00  0.00000000E+00  1.60000000E+01  1.00800000E+00  1.00800000E+00
  0.00000000E+00  1.60000000E+01  1.00800000E+00  1.00800000E+00  0.00000000E+00
  1.60000000E+01  1.00800000E+00  1.00800000E+00  0.00000000E+00  1.60000000E+01
  1.00800000E+00  1.00800000E+00  0.00000000E+00  1.60000000E+01  1.00800000E+00
  1.00800000E+00  0.00000000E+00  1.60000000E+01  1.00800000E+00  1.00800000E+00
  0.00000000E+00  1.60000000E+01  1.00800000E+00  1.00800000E+00  0.00000000E+00
  1.60000000E+01  1.00800000E+00  1.00800000E+00  0.00000000E+00  1.60000000E+01
  1.00800000E+00  1.00800000E+00  0.00000000E+00  1.60000000E+01  1.00800000E+00
  1.00800000E+00  0.00000000E+00  1.60000000E+01  1.00800000E+00  1.00800000E+00
  0.00000000E+00  1.60000000E+01  1.00800000E+00  1.00800000E+00  0.00000000E+00
  1.60000000E+01  1.00800000E+00  1.00800000E+00  0.00000000E+00  1.60000000E+01
  1.00800000E+00  1.00800000E+00  0.00000000E+00  1.60000000E+01  1.00800000E+00
  1.00800000E+00  0.00000000E+00  1.60000000E+01  1.00800000E+00  1.00800000E+00
  0.00000000E+00  1.60000000E+01  1.00800000E+00  1.00800000E+00  0.00000000E+00
  1.60000000E+01  1.00800000E+00  1.00800000E+00  0.00000000E+00  1.60000000E+01
  1.00800000E+00  1.00800000E+00  0.00000000E+00  1.60000000E+01  1.00800000E+00
  1.00800000E+00  0.00000000E+00  1.60000000E+01  1.00800000E+00  1.00800000E+00
  0.00000000E+00  1.60000000E+01  1.00800000E+00  1.00800000E+00  0.00000000E+00
  1.60000000E+01  1.00800000E+00  1.00800000E+00  0.00000000E+00  1.60000000E+01
  1.00800000E+00  1.00800000E+00  0.00000000E+00  1.60000000E+01  1.00800000E+00
  1.00800000E+00  0.00000000E+00  1.60000000E+01  1.00800000E+00  1.00800000E+00
  0.00000000E+00  1.60000000E+01  1.00800000E+00  1.00800000E+00  0.00000000E+00
  1.60000000E+01  1.00800000E+00  1.00800000E+00  0.00000000E+00  1.60000000E+01
  1.00800000E+00  1.00800000E+00  0.00000000E+00  1.60000000E+01  1.00800000E+00
  1.00800000E+00  0.00000000E+00  1.60000000E+01  1.00800000E+00  1.00800000E+00
  0.00000000E+00  1.60000000E+01  1.00800000E+00  1.00800000E+00  0.00000000E+00
  1.60000000E+01  1.00800000E+00  1.00800000E+00  0.00000000E+00  1.60000000E+01
  1.00800000E+00  1.00800000E+00  0.00000000E+00  1.60000000E+01  1.00800000E+00
  1.00800000E+00  0.00000000E+00  1.60000000E+01  1.00800000E+00  1.00800000E+00
  0.00000000E+00  1.60000000E+01  1.00800000E+00  1.00800000E+00  0.00000000E+00
  1.60000000E+01  1.00800000E+00  1.00800000E+00  0.00000000E+00  1.60000000E+01
  1.00800000E+00  1.00800000E+00  0.00000000E+00  1.60000000E+01  1.00800000E+00
  1.00800000E+00  0.00000000E+00  1.60000000E+01  1.00800000E+00  1.00800000E+00
  0.00000000E+00  1.60000000E+01  1.00800000E+00  1.00800000E+00  0.00000000E+00
  1.60000000E+01  1.00800000E+00  1.00800000E+00  0.00000000E+00  1.60000000E+01
  1.00800000E+00  1.00800000E+00  0.00000000E+00  1.60000000E+01  1.00800000E+00
  1.00800000E+00  0.00000000E+00  1.60000000E+01  1.00800000E+00  1.00800000E+00
  0.00000000E+00  1.60000000E+01  1.00800000E+00  1.00800000E+00  0.00000000E+00
  1.60000000E+01  1.00800000E+00  1.00800000E+00  0.00000000E+00  1.60000000E+01
  1.00800000E+00  1.00800000E+00  0.00000000E+00  1.60000000E+01  1.00800000E+00
  1.00800000E+00  0.00000000E+00  1.60000000E+01  1.00800000E+00  1.00800000E+00
  0.00000000E+00  1.60000000E+01  1.00800000E+00  1.00800000E+00  0.00000000E+00
  1.60000000E+01  1.00800000E+00  1.00800000E+00  0.00000000E+00  1.60000000E+01
  1.00800000E+00  1.00800000E+00  0.00000000E+00  1.60000000E+01  1.00800000E+00
  1.00800000E+00  0.00000000E+00  1.60000000E+01  1.00800000E+00  1.00800000E+00
  0.00000000E+00  1.60000000E+01  1.00800000E+00  1.00800000E+00  0.00000000E+00
  1.60000000E+01  1.00800000E+00  1.00800000E+00  0.00000000E+00  1.60000000E+01
  1.00800000E+00  1.00800000E+00  0.00000000E+00  1.60000000E+01  1.00800000E+00
  1.00800000E+00  0.00000000E+00  1.60000000E+01  1.00800000E+00  1.00800000E+00
  0.00000000E+00  1.60000000E+01  1.00800000E+00  1.00800000E+00  0.00000000E+00
  1.60000000E+01  1.00800000E+00  1.00800000E+00  0.00000000E+00  1.60000000E+01
  1.00800000E+00  1.00800000E+00  0.00000000E+00  1.60000000E+01  1.00800000E+00
  1.00800000E+00  0.00000000E+00  1.60000000E+01  1.00800000E+00  1.00800000E+00
  0.00000000E+00  1.60000000E+01  1.00800000E+00  1.00800000E+00  0.00000000E+00
  1.60000000E+01  1.00800000E+00  1.00800000E+00  0.00000000E+00  1.60000000E+01
  1.00800000E+00  1.00800000E+00  0.00000000E+00  1.60000000E+01  1.00800000E+00
  1.00800000E+00  0.00000000E+00  1.60000000E+01  1.00800000E+00  1.00800000E+00
  0.00000000E+00  1.60000000E+01  1.00800000E+00  1.00800000E+00  0.00000000E+00
  1.60000000E+01  1.00800000E+00  1.00800000E+00  0.00000000E+00  1.60000000E+01
  1.00800000E+00  1.00800000E+00  0.00000000E+00  1.60000000E+01  1.00800000E+00
  1.00800000E+00  0.00000000E+00  1.60000000E+01  1.00800000E+00  1.00800000E+00
  0.00000000E+00  1.60000000E+01  1.00800000E+00  1.00800000E+00  0.00000000E+00
  1.60000000E+01  1.00800000E+00  1.00800000E+00  0.00000000E+00  1.60000000E+01
  1.00800000E+00  1.00800000E+00  0.00000000E+00  1.60000000E+01  1.00800000E+00
  1.00800000E+00  0.00000000E+00  1.60000000E+01  1.00800000E+00  1.00800000E+00
  0.00000000E+00  1.60000000E+01  1.00800000E+00  1.00800000E+00  0.00000000E+00
  1.60000000E+01  1.00800000E+00  1.00800000E+00  0.00000000E+00  1.60000000E+01
  1.00800000E+00  1.00800000E+00  0.00000000E+00  1.60000000E+01  1.00800000E+00
  1.00800000E+00  0.00000000E+00  1.60000000E+01  1.00800000E+00  1.00800000E+00
  0.00000000E+00  1.60000000E+01  1.00800000E+00  1.00800000E+00  0.00000000E+00
  1.60000000E+01  1.00800000E+00  1.00800000E+00  0.00000000E+00  1.60000000E+01
  1.00800000E+00  1.00800000E+00  0.00000000E+00  1.60000000E+01  1.00800000E+00
  1.00800000E+00  0.00000000E+00  1.60000000E+01  1.00800000E+00  1.00800000E+00
  0.00000000E+00  1.60000000E+01  1.00800000E+00  1.00800000E+00  0.00000000E+00
  1.60000000E+01  1.00800000E+00  1.00800000E+00  0.00000000E+00  1.60000000E+01
  1.00800000E+00  1.00800000E+00  0.00000000E+00  1.60000000E+01  1.00800000E+00
  1.00800000E+00  0.00000000E+00  1.60000000E+01  1.00800000E+00  1.00800000E+00
  0.00000000E+00  1.60000000E+01  1.00800000E+00  1.00800000E+00  0.00000000E+00
  1.60000000E+01  1.00800000E+00  1.00800000E+00  0.00000000E+00  1.60000000E+01
  1.00800000E+00  1.00800000E+00  0.00000000E+00  1.60000000E+01  1.00800000E+00
  1.00800000E+00  0.00000000E+00  1.60000000E+01  1.00800000E+00  1.00800000E+00
  0.00000000E+00  1.60000000E+01  1.00800000E+00  1.00800000E+00  0.00000000E+00
  1.60000000E+01  1.00800000E+00  1.00800000E+00  0.00000000E+00  1.60000000E+01
  1.00800000E+00  1.00800000E+00  0.00000000E+00  1.60000000E+01  1.00800000E+00
  1.00800000E+00  0.00000000E+00  1.60000000E+01  1.00800000E+00  1.00800000E+00
  0.00000000E+00  1.60000000E+01  1.00800000E+00  1.00800000E+00  0.00000000E+00
  1.60000000E+01  1.00800000E+00  1.00800000E+00  0.00000000E+00  1.60000000E+01
  1.00800000E+00  1.00800000E+00  0.00000000E+00  1.60000000E+01  1.00800000E+00
  1.00800000E+00  0.00000000E+00  1.60000000E+01  1.00800000E+00  1.00800000E+00
  0.00000000E+00  1.60000000E+01  1.00800000E+00  1.00800000E+00  0.00000000E+00
  1.60000000E+01  1.00800000E+00  1.00800000E+00  0.00000000E+00  1.60000000E+01
  1.00800000E+00  1.00800000E+00  0.00000000E+00  1.60000000E+01  1.00800000E+00
  1.00800000E+00  0.00000000E+00  1.60000000E+01  1.00800000E+00  1.00800000E+00
  0.00000000E+00  1.60000000E+01  1.00800000E+00  1.00800000E+00  0.00000000E+00
  1.60000000E+01  1.00800000E+00  1.00800000E+00  0.00000000E+00  1.60000000E+01
  1.00800000E+00  1.00800000E+00  0.00000000E+00  1.60000000E+01  1.00800000E+00
  1.00800000E+00  0.00000000E+00  1.60000000E+01  1.00800000E+00  1.00800000E+00
  0.00000000E+00  1.60000000E+01  1.00800000E+00  1.00800000E+00  0.00000000E+00
  1.60000000E+01  1.00800000E+00  1.00800000E+00  0.00000000E+00  1.60000000E+01
  1.00800000E+00  1.00800000E+00  0.00000000E+00  1.60000000E+01  1.00800000E+00
  1.00800000E+00  0.00000000E+00  1.60000000E+01  1.00800000E+00  1.00800000E+00
  0.00000000E+00  1.60000000E+01  1.00800000E+00  1.00800000E+00  0.00000000E+00
  1.60000000E+01  1.00800000E+00  1.00800000E+00  0.00000000E+00  1.60000000E+01
  1.00800000E+00  1.00800000E+00  0.00000000E+00  1.60000000E+01  1.00800000E+00
  1.00800000E+00  0.00000000E+00  1.60000000E+01  1.00800000E+00  1.00800000E+00
  0.00000000E+00  1.60000000E+01  1.00800000E+00  1.00800000E+00  0.00000000E+00
  1.60000000E+01  1.00800000E+00  1.00800000E+00  0.00000000E+00  1.60000000E+01
  1.00800000E+00  1.00800000E+00  0.00000000E+00  1.60000000E+01  1.00800000E+00
  1.00800000E+00  0.00000000E+00  1.60000000E+01  1.00800000E+00  1.00800000E+00
  0.00000000E+00  1.60000000E+01  1.00800000E+00  1.00800000E+00  0.00000000E+00
  1.60000000E+01  1.00800000E+00  1.00800000E+00  0.00000000E+00  1.60000000E+01
  1.00800000E+00  1.00800000E+00  0.00000000E+00  1.60000000E+01  1.00800000E+00
  1.00800000E+00  0.00000000E+00  1.60000000E+01  1.00800000E+00  1.00800000E+00
  0.00000000E+00  1.60000000E+01  1.00800000E+00  1.00800000E+00  0.00000000E+00
  1.60000000E+01  1.00800000E+00  1.00800000E+00  0.00000000E+00  1.60000000E+01
  1.00800000E+00  1.00800000E+00  0.00000000E+00  1.60000000E+01  1.00800000E+00
  1.00800000E+00  0.00000000E+00  1.60000000E+01  1.00800000E+00  1.00800000E+00
  0.00000000E+00  1.60000000E+01  1.00800000E+00  1.00800000E+00  0.00000000E+00
  1.60000000E+01  1.00800000E+00  1.00800000E+00  0.00000000E+00  1.60000000E+01
  1.00800000E+00  1.00800000E+00  0.00000000E+00  1.60000000E+01  1.00800000E+00
  1.00800000E+00  0.00000000E+00  1.60000000E+01  1.00800000E+00  1.00800000E+00
  0.00000000E+00  1.60000000E+01  1.00800000E+00  1.00800000E+00  0.00000000E+00
  1.60000000E+01  1.00800000E+00  1.00800000E+00  0.00000000E+00  1.60000000E+01
  1.00800000E+00  1.00800000E+00  0.00000000E+00  1.60000000E+01  1.00800000E+00
  1.00800000E+00  0.00000000E+00  1.60000000E+01  1.00800000E+00  1.00800000E+00
  0.00000000E+00  1.60000000E+01  1.00800000E+00  1.00800000E+00  0.00000000E+00
  1.60000000E+01  1.00800000E+00  1.00800000E+00  0.00000000E+00  1.60000000E+01
  1.00800000E+00  1.00800000E+00  0.00000000E+00  1.60000000E+01  1.00800000E+00
  1.00800000E+00  0.00000000E+00  1.60000000E+01  1.00800000E+00  1.00800000E+00
  0.00000000E+00  1.60000000E+01  1.00800000E+00  1.00800000E+00  0.00000000E+00
  1.60000000E+01  1.00800000E+00  1.00800000E+00  0.00000000E+00  1.60000000E+01
  1.00800000E+00  1.00800000E+00  0.00000000E+00  1.60000000E+01  1.00800000E+00
  1.00800000E+00  0.00000000E+00  1.60000000E+01  1.00800000E+00  1.00800000E+00
  0.00000000E+00  1.60000000E+01  1.00800000E+00  1.00800000E+00  0.00000000E+00
  1.60000000E+01  1.00800000E+00  1.00800000E+00  0.00000000E+00  1.60000000E+01
  1.00800000E+00  1.00800000E+00  0.00000000E+00  1.60000000E+01  1.00800000E+00
  1.00800000E+00  0.00000000E+00  1.60000000E+01  1.00800000E+00  1.00800000E+00
  0.00000000E+00  1.60000000E+01  1.00800000E+00  1.00800000E+00  0.00000000E+00
  1.60000000E+01  1.00800000E+00  1.00800000E+00  0.00000000E+00  1.60000000E+01
  1.00800000E+00  1.00800000E+00  0.00000000E+00  1.60000000E+01  1.00800000E+00
  1.00800000E+00  0.00000000E+00  1.60000000E+01  1.00800000E+00  1.00800000E+00
  0.00000000E+00  1.60000000E+01  1.00800000E+00  1.00800000E+00  0.00000000E+00
  1.60000000E+01  1.00800000E+00  1.00800000E+00  0.00000000E+00  1.60000000E+01
  1.00800000E+00  1.00800000E+00  0.00000000E+00  1.60000000E+01  1.00800000E+00
  1.00800000E+00  0.00000000E+00  1.60000000E+01  1.00800000E+00  1.00800000E+00
  0.00000000E+00  1.60000000E+01  1.00800000E+00  1.00800000E+00  0.00000000E+00
  1.60000000E+01  1.00800000E+00  1.00800000E+00  0.00000000E+00  1.60000000E+01
  1.00800000E+00  1.00800000E+00  0.00000000E+00  1.60000000E+01  1.00800000E+00
  1.00800000E+00  0.00000000E+00  1.60000000E+01  1.00800000E+00  1.00800000E+00
  0.00000000E+00  1.60000000E+01  1.00800000E+00  1.00800000E+00  0.00000000E+00
  1.60000000E+01  1.00800000E+00  1.00800000E+00  0.00000000E+00  1.60000000E+01
  1.00800000E+00  1.00800000E+00  0.00000000E+00  1.60000000E+01  1.00800000E+00
  1.00800000E+00  0.00000000E+00  1.60000000E+01  1.00800000E+00  1.00800000E+00
  0.00000000E+00  1.60000000E+01  1.00800000E+00  1.00800000E+00  0.00000000E+00
  1.60000000E+01  1.00800000E+00  1.00800000E+00  0.00000000E+00  1.60000000E+01
  1.00800000E+00  1.00800000E+00  0.00000000E+00  1.60000000E+01  1.00800000E+00
  1.00800000E+00  0.00000000E+00  1.60000000E+01  1.00800000E+00  1.00800000E+00
  0.00000000E+00  1.60000000E+01  1.00800000E+00  1.00800000E+00  0.00000000E+00
  1.60000000E+01  1.00800000E+00  1.00800000E+00  0.00000000E+00  1.60000000E+01
  1.00800000E+00  1.00800000E+00  0.00000000E+00  1.60000000E+01  1.00800000E+00
  1.00800000E+00  0.00000000E+00  1.60000000E+01  1.00800000E+00  1.00800000E+00
  0.00000000E+00  1.60000000E+01  1.00800000E+00  1.00800000E+00  0.00000000E+00
  1.60000000E+01  1.00800000E+00  1.00800000E+00  0.00000000E+00  1.60000000E+01
  1.00800000E+00  1.00800000E+00  0.00000000E+00  1.60000000E+01  1.00800000E+00
  1.00800000E+00  0.00000000E+00  1.60000000E+01  1.00800000E+00  1.00800000E+00
  0.00000000E+00  1.60000000E+01  1.00800000E+00  1.00800000E+00  0.00000000E+00
  1.60000000E+01  1.00800000E+00  1.00800000E+00  0.00000000E+00  1.60000000E+01
  1.00800000E+00  1.00800000E+00  0.00000000E+00  1.60000000E+01  1.00800000E+00
  1.00800000E+00  0.00000000E+00  1.60000000E+01  1.00800000E+00  1.00800000E+00
  0.00000000E+00  1.60000000E+01  1.00800000E+00  1.00800000E+00  0.00000000E+00
  1.60000000E+01  1.00800000E+00  1.00800000E+00  0.00000000E+00  1.60000000E+01
  1.00800000E+00  1.00800000E+00  0.00000000E+00  1.60000000E+01  1.00800000E+00
  1.00800000E+00  0.00000000E+00  1.60000000E+01  1.00800000E+00  1.00800000E+00
  0.00000000E+00  1.60000000E+01  1.00800000E+00  1.00800000E+00  0.00000000E+00
  1.60000000E+01  1.00800000E+00  1.00800000E+00  0.00000000E+00  1.60000000E+01
  1.00800000E+00  1.00800000E+00  0.00000000E+00  1.60000000E+01  1.00800000E+00
  1.00800000E+00  0.00000000E+00  1.60000000E+01  1.00800000E+00  1.00800000E+00
  0.00000000E+00  1.60000000E+01  1.00800000E+00  1.00800000E+00  0.00000000E+00
  1.60000000E+01  1.00800000E+00  1.00800000E+00  0.00000000E+00  1.60000000E+01
  1.00800000E+00  1.00800000E+00  0.00000000E+00  1.60000000E+01  1.00800000E+00
  1.00800000E+00  0.00000000E+00  1.60000000E+01  1.00800000E+00  1.00800000E+00
  0.00000000E+00  1.60000000E+01  1.00800000E+00  1.00800000E+00  0.00000000E+00
  1.60000000E+01  1.00800000E+00  1.00800000E+00  0.00000000E+00  1.60000000E+01
  1.00800000E+00  1.00800000E+00  0.00000000E+00  1.60000000E+01  1.00800000E+00
  1.00800000E+00  0.00000000E+00  1.60000000E+01  1.00800000E+00  1.00800000E+00
  0.00000000E+00  1.60000000E+01  1.00800000E+00  1.00800000E+00  0.00000000E+00
  1.60000000E+01  1.00800000E+00  1.00800000E+00  0.00000000E+00  1.60000000E+01
  1.00800000E+00  1.00800000E+00  0.00000000E+00  1.60000000E+01  1.00800000E+00
  1.00800000E+00  0.00000000E+00  1.60000000E+01  1.00800000E+00  1.00800000E+00
  0.00000000E+00  1.60000000E+01  1.00800000E+00  1.00800000E+00  0.00000000E+00
  1.60000000E+01  1.00800000E+00  1.00800000E+00  0.00000000E+00  1.60000000E+01
  1.00800000E+00  1.00800000E+00  0.00000000E+00  1.60000000E+01  1.00800000E+00
  1.00800000E+00  0.00000000E+00  1.60000000E+01  1.00800000E+00  1.00800000E+00
  0.00000000E+00  1.60000000E+01  1.00800000E+00  1.00800000E+00  0.00000000E+00
  1.60000000E+01  1.00800000E+00  1.00800000E+00  0.00000000E+00  1.60000000E+01
  1.00800000E+00  1.00800000E+00  0.00000000E+00  1.60000000E+01  1.00800000E+00
  1.00800000E+00  0.00000000E+00  1.60000000E+01  1.00800000E+00  1.00800000E+00
  0.00000000E+00  1.60000000E+01  1.00800000E+00  1.00800000E+00  0.00000000E+00
  1.60000000E+01  1.00800000E+00  1.00800000E+00  0.00000000E+00  1.60000000E+01
  1.00800000E+00  1.00800000E+00  0.00000000E+00  1.60000000E+01  1.00800000E+00
  1.00800000E+00  0.00000000E+00  1.60000000E+01  1.00800000E+00  1.00800000E+00
  0.00000000E+00  1.60000000E+01  1.00800000E+00  1.00800000E+00  0.00000000E+00
  1.60000000E+01  1.00800000E+00  1.00800000E+00  0.00000000E+00  1.60000000E+01
  1.00800000E+00  1.00800000E+00  0.00000000E+00  1.60000000E+01  1.00800000E+00
  1.00800000E+00  0.00000000E+00  1.60000000E+01  1.00800000E+00  1.00800000E+00
  0.00000000E+00  1.60000000E+01  1.00800000E+00  1.00800000E+00  0.00000000E+00
  1.60000000E+01  1.00800000E+00  1.00800000E+00  0.00000000E+00  1.60000000E+01
  1.00800000E+00  1.00800000E+00  0.00000000E+00  1.60000000E+01  1.00800000E+00
  1.00800000E+00  0.00000000E+00  1.60000000E+01  1.00800000E+00  1.00800000E+00
  0.00000000E+00  1.60000000E+01  1.00800000E+00  1.00800000E+00  0.00000000E+00
  1.60000000E+01  1.00800000E+00  1.00800000E+00  0.00000000E+00  1.60000000E+01
  1.00800000E+00  1.00800000E+00  0.00000000E+00  1.60000000E+01  1.00800000E+00
  1.00800000E+00  0.00000000E+00  1.60000000E+01  1.00800000E+00  1.00800000E+00
  0.00000000E+00  1.60000000E+01  1.00800000E+00  1.00800000E+00  0.00000000E+00
  1.60000000E+01  1.00800000E+00  1.00800000E+00  0.00000000E+00  1.60000000E+01
  1.00800000E+00  1.00800000E+00  0.00000000E+00  1.60000000E+01  1.00800000E+00
  1.00800000E+00  0.00000000E+00  1.60000000E+01  1.00800000E+00  1.00800000E+00
  0.00000000E+00  1.60000000E+01  1.00800000E+00  1.00800000E+00  0.00000000E+00
  1.60000000E+01  1.00800000E+00  1.00800000E+00  0.00000000E+00  1.60000000E+01
  1.00800000E+00  1.00800000E+00  0.00000000E+00  1.60000000E+01  1.00800000E+00
  1.00800000E+00  0.00000000E+00  1.60000000E+01  1.00800000E+00  1.00800000E+00
  0.00000000E+00  1.60000000E+01  1.00800000E+00  1.00800000E+00  0.00000000E+00
  1.60000000E+01  1.00800000E+00  1.00800000E+00  0.00000000E+00  1.60000000E+01
  1.00800000E+00  1.00800000E+00  0.00000000E+00  1.60000000E+01  1.00800000E+00
  1.00800000E+00  0.00000000E+00  1.60000000E+01  1.00800000E+00  1.00800000E+00
  0.00000000E+00  1.60000000E+01  1.00800000E+00  1.00800000E+00  0.00000000E+00
  1.60000000E+01  1.00800000E+00  1.00800000E+00  0.00000000E+00  1.60000000E+01
  1.00800000E+00  1.00800000E+00  0.00000000E+00  1.60000000E+01  1.00800000E+00
  1.00800000E+00  0.00000000E+00  1.60000000E+01  1.00800000E+00  1.00800000E+00
  0.00000000E+00  1.60000000E+01  1.00800000E+00  1.00800000E+00  0.00000000E+00
  1.60000000E+01  1.00800000E+00  1.00800000E+00  0.00000000E+00  1.60000000E+01
  1.00800000E+00  1.00800000E+00  0.00000000E+00  1.60000000E+01  1.00800000E+00
  1.00800000E+00  0.00000000E+00  1.60000000E+01  1.00800000E+00  1.00800000E+00
  0.00000000E+00  1.60000000E+01  1.00800000E+00  1.00800000E+00  0.00000000E+00
  1.60000000E+01  1.00800000E+00  1.00800000E+00  0.00000000E+00  1.60000000E+01
  1.00800000E+00  1.00800000E+00  0.00000000E+00  1.60000000E+01  1.00800000E+00
  1.00800000E+00  0.00000000E+00  1.60000000E+01  1.00800000E+00  1.00800000E+00
  0.00000000E+00  1.60000000E+01  1.00800000E+00  1.00800000E+00  0.00000000E+00
  1.60000000E+01  1.00800000E+00  1.00800000E+00  0.00000000E+00  1.60000000E+01
  1.00800000E+00  1.00800000E+00  0.00000000E+00  1.60000000E+01  1.00800000E+00
  1.00800000E+00  0.00000000E+00  1.60000000E+01  1.00800000E+00  1.00800000E+00
  0.00000000E+00  1.60000000E+01  1.00800000E+00  1.00800000E+00  0.00000000E+00
  1.60000000E+01  1.00800000E+00  1.00800000E+00  0.00000000E+00  1.60000000E+01
  1.00800000E+00  1.00800000E+00  0.00000000E+00  1.60000000E+01  1.00800000E+00
  1.00800000E+00  0.00000000E+00  1.60000000E+01  1.00800000E+00  1.00800000E+00
  0.00000000E+00  1.60000000E+01  1.00800000E+00  1.00800000E+00  0.00000000E+00
  1.60000000E+01  1.00800000E+00  1.00800000E+00  0.00000000E+00  1.60000000E+01
  1.00800000E+00  1.00800000E+00  0.00000000E+00  1.60000000E+01  1.00800000E+00
  1.00800000E+00  0.00000000E+00  1.60000000E+01  1.00800000E+00  1.00800000E+00
  0.00000000E+00  1.60000000E+01  1.00800000E+00  1.00800000E+00  0.00000000E+00
  1.60000000E+01  1.00800000E+00  1.00800000E+00  0.00000000E+00  1.60000000E+01
  1.00800000E+00  1.00800000E+00  0.00000000E+00  1.60000000E+01  1.00800000E+00
  1.00800000E+00  0.00000000E+00  1.60000000E+01  1.00800000E+00  1.00800000E+00
  0.00000000E+00  1.60000000E+01  1.00800000E+00  1.00800000E+00  0.00000000E+00
  1.60000000E+01  1.00800000E+00  1.00800000E+00  0.00000000E+00  1.60000000E+01
  1.00800000E+00  1.00800000E+00  0.00000000E+00  1.60000000E+01  1.00800000E+00
  1.00800000E+00  0.00000000E+00  1.60000000E+01  1.00800000E+00  1.00800000E+00
  0.00000000E+00  1.60000000E+01  1.00800000E+00  1.00800000E+00  0.00000000E+00
  1.60000000E+01  1.00800000E+00  1.00800000E+00  0.00000000E+00  1.60000000E+01
  1.00800000E+00  1.00800000E+00  0.00000000E+00  1.60000000E+01  1.00800000E+00
  1.00800000E+00  0.00000000E+00  1.60000000E+01  1.00800000E+00  1.00800000E+00
  0.00000000E+00  1.60000000E+01  1.00800000E+00  1.00800000E+00  0.00000000E+00
  1.60000000E+01  1.00800000E+00  1.00800000E+00  0.00000000E+00  1.60000000E+01
  1.00800000E+00  1.00800000E+00  0.00000000E+00  1.60000000E+01  1.00800000E+00
  1.00800000E+00  0.00000000E+00  1.60000000E+01  1.00800000E+00  1.00800000E+00
  0.00000000E+00  1.60000000E+01  1.00800000E+00  1.00800000E+00  0.00000000E+00
  1.60000000E+01  1.00800000E+00  1.00800000E+00  0.00000000E+00  1.60000000E+01
  1.00800000E+00  1.00800000E+00  0.00000000E+00  1.60000000E+01  1.00800000E+00
  1.00800000E+00  0.00000000E+00  1.60000000E+01  1.00800000E+00  1.00800000E+00
  0.00000000E+00  1.60000000E+01  1.00800000E+00  1.00800000E+00  0.00000000E+00
  1.60000000E+01  1.00800000E+00  1.00800000E+00  0.00000000E+00  1.60000000E+01
  1.00800000E+00  1.00800000E+00  0.00000000E+00  1.60000000E+01  1.00800000E+00
  1.00800000E+00  0.00000000E+00  1.60000000E+01  1.00800000E+00  1.00800000E+00
  0.00000000E+00  1.60000000E+01  1.00800000E+00  1.00800000E+00  0.00000000E+00
  1.60000000E+01  1.00800000E+00  1.00800000E+00  0.00000000E+00  1.60000000E+01
  1.00800000E+00  1.00800000E+00  0.00000000E+00  1.60000000E+01  1.00800000E+00
  1.00800000E+00  0.00000000E+00  1.60000000E+01  1.00800000E+00  1.00800000E+00
  0.00000000E+00  1.60000000E+01  1.00800000E+00  1.00800000E+00  0.00000000E+00
  1.60000000E+01  1.00800000E+00  1.00800000E+00  0.00000000E+00  1.60000000E+01
  1.00800000E+00  1.00800000E+00  0.00000000E+00  1.60000000E+01  1.00800000E+00
  1.00800000E+00  0.00000000E+00  1.60000000E+01  1.00800000E+00  1.00800000E+00
  0.00000000E+00  1.60000000E+01  1.00800000E+00  1.00800000E+00  0.00000000E+00
  1.60000000E+01  1.00800000E+00  1.00800000E+00  0.00000000E+00  1.60000000E+01
  1.00800000E+00  1.00800000E+00  0.00000000E+00  1.60000000E+01  1.00800000E+00
  1.00800000E+00  0.00000000E+00  1.60000000E+01  1.00800000E+00  1.00800000E+00
  0.00000000E+00  1.60000000E+01  1.00800000E+00  1.00800000E+00  0.00000000E+00
  1.60000000E+01  1.00800000E+00  1.00800000E+00  0.00000000E+00  1.60000000E+01
  1.00800000E+00  1.00800000E+00  0.00000000E+00  1.60000000E+01  1.00800000E+00
  1.00800000E+00  0.00000000E+00  1.60000000E+01  1.00800000E+00  1.00800000E+00
  0.00000000E+00  1.60000000E+01  1.00800000E+00  1.00800000E+00  0.00000000E+00
  1.60000000E+01  1.00800000E+00  1.00800000E+00  0.00000000E+00  1.60000000E+01
  1.00800000E+00  1.00800000E+00  0.00000000E+00  1.60000000E+01  1.00800000E+00
  1.00800000E+00  0.00000000E+00  1.60000000E+01  1.00800000E+00  1.00800000E+00
  0.00000000E+00  1.60000000E+01  1.00800000E+00  1.00800000E+00  0.00000000E+00
  1.60000000E+01  1.00800000E+00  1.00800000E+00  0.00000000E+00  1.60000000E+01
  1.00800000E+00  1.00800000E+00  0.00000000E+00  1.60000000E+01  1.00800000E+00
  1.00800000E+00  0.00000000E+00  1.60000000E+01  1.00800000E+00  1.00800000E+00
  0.00000000E+00  1.60000000E+01  1.00800000E+00  1.00800000E+00  0.00000000E+00
  1.60000000E+01  1.00800000E+00  1.00800000E+00  0.00000000E+00  1.60000000E+01
  1.00800000E+00  1.00800000E+00  0.00000000E+00  1.60000000E+01  1.00800000E+00
  1.00800000E+00  0.00000000E+00  1.60000000E+01  1.00800000E+00  1.00800000E+00
  0.00000000E+00  1.60000000E+01  1.00800000E+00  1.00800000E+00  0.00000000E+00
  1.60000000E+01  1.00800000E+00  1.00800000E+00  0.00000000E+00  1.60000000E+01
  1.00800000E+00  1.00800000E+00  0.00000000E+00  1.60000000E+01  1.00800000E+00
  1.00800000E+00  0.00000000E+00  1.60000000E+01  1.00800000E+00  1.00800000E+00
  0.00000000E+00  1.60000000E+01  1.00800000E+00  1.00800000E+00  0.00000000E+00
  1.60000000E+01  1.00800000E+00  1.00800000E+00  0.00000000E+00  1.60000000E+01
  1.00800000E+00  1.00800000E+00  0.00000000E+00  1.60000000E+01  1.00800000E+00
  1.00800000E+00  0.00000000E+00  1.60000000E+01  1.00800000E+00  1.00800000E+00
  0.00000000E+00  1.60000000E+01  1.00800000E+00  1.00800000E+00  0.00000000E+00
  1.60000000E+01  1.00800000E+00  1.00800000E+00  0.00000000E+00  1.60000000E+01
  1.00800000E+00  1.00800000E+00  0.00000000E+00  1.60000000E+01  1.00800000E+00
  1.00800000E+00  0.00000000E+00  1.60000000E+01  1.00800000E+00  1.00800000E+00
  0.00000000E+00  1.60000000E+01  1.00800000E+00  1.00800000E+00  0.00000000E+00
  1.60000000E+01  1.00800000E+00  1.00800000E+00  0.00000000E+00  1.60000000E+01
  1.00800000E+00  1.00800000E+00  0.00000000E+00  1.60000000E+01  1.00800000E+00
  1.00800000E+00  0.00000000E+00  1.60000000E+01  1.00800000E+00  1.00800000E+00
  0.00000000E+00  1.60000000E+01  1.00800000E+00  1.00800000E+00  0.00000000E+00
  1.60000000E+01  1.00800000E+00  1.00800000E+00  0.00000000E+00  1.60000000E+01
  1.00800000E+00  1.00800000E+00  0.00000000E+00  1.60000000E+01  1.00800000E+00
  1.00800000E+00  0.00000000E+00  1.60000000E+01  1.00800000E+00  1.00800000E+00
  0.00000000E+00  1.60000000E+01  1.00800000E+00  1.00800000E+00  0.00000000E+00
  1.60000000E+01  1.00800000E+00  1.00800000E+00  0.00000000E+00  1.60000000E+01
  1.00800000E+00  1.00800000E+00  0.00000000E+00  1.60000000E+01  1.00800000E+00
  1.00800000E+00  0.00000000E+00  1.60000000E+01  1.00800000E+00  1.00800000E+00
  0.00000000E+00  1.60000000E+01  1.00800000E+00  1.00800000E+00  0.00000000E+00
  1.60000000E+01  1.00800000E+00  1.00800000E+00  0.00000000E+00  1.60000000E+01
  1.00800000E+00  1.00800000E+00  0.00000000E+00  1.60000000E+01  1.00800000E+00
  1.00800000E+00  0.00000000E+00  1.60000000E+01  1.00800000E+00  1.00800000E+00
  0.00000000E+00  1.60000000E+01  1.00800000E+00  1.00800000E+00  0.00000000E+00
  1.60000000E+01  1.00800000E+00  1.00800000E+00  0.00000000E+00  1.60000000E+01
  1.00800000E+00  1.00800000E+00  0.00000000E+00  1.60000000E+01  1.00800000E+00
  1.00800000E+00  0.00000000E+00  1.60000000E+01  1.00800000E+00  1.00800000E+00
  0.00000000E+00  1.60000000E+01  1.00800000E+00  1.00800000E+00  0.00000000E+00
  1.60000000E+01  1.00800000E+00  1.00800000E+00  0.00000000E+00  1.60000000E+01
  1.00800000E+00  1.00800000E+00  0.00000000E+00  1.60000000E+01  1.00800000E+00
  1.00800000E+00  0.00000000E+00  1.60000000E+01  1.00800000E+00  1.00800000E+00
  0.00000000E+00  1.60000000E+01  1.00800000E+00  1.00800000E+00  0.00000000E+00
  1.60000000E+01  1.00800000E+00  1.00800000E+00  0.00000000E+00  1.60000000E+01
  1.00800000E+00  1.00800000E+00  0.00000000E+00  1.60000000E+01  1.00800000E+00
  1.00800000E+00  0.00000000E+00  1.60000000E+01  1.00800000E+00  1.00800000E+00
  0.00000000E+00  1.60000000E+01  1.00800000E+00  1.00800000E+00  0.00000000E+00
  1.60000000E+01  1.00800000E+00  1.00800000E+00  0.00000000E+00  1.60000000E+01
  1.00800000E+00  1.00800000E+00  0.00000000E+00  1.60000000E+01  1.00800000E+00
  1.00800000E+00  0.00000000E+00  1.60000000E+01  1.00800000E+00  1.00800000E+00
  0.00000000E+00  1.60000000E+01  1.00800000E+00  1.00800000E+00  0.00000000E+00
  1.60000000E+01  1.00800000E+00  1.00800000E+00  0.00000000E+00  1.60000000E+01
  1.00800000E+00  1.00800000E+00  0.00000000E+00  1.60000000E+01  1.00800000E+00
  1.00800000E+00  0.00000000E+00  1.60000000E+01  1.00800000E+00  1.00800000E+00
  0.00000000E+00  1.60000000E+01  1.00800000E+00  1.00800000E+00  0.00000000E+00
  1.60000000E+01  1.00800000E+00  1.00800000E+00  0.00000000E+00  1.60000000E+01
  1.00800000E+00  1.00800000E+00  0.00000000E+00  1.60000000E+01  1.00800000E+00
  1.00800000E+00  0.00000000E+00  1.60000000E+01  1.00800000E+00  1.00800000E+00
  0.00000000E+00  1.60000000E+01  1.00800000E+00  1.00800000E+00  0.00000000E+00
  1.60000000E+01  1.00800000E+00  1.00800000E+00  0.00000000E+00  1.60000000E+01
  1.00800000E+00  1.00800000E+00  0.00000000E+00  1.60000000E+01  1.00800000E+00
  1.00800000E+00  0.00000000E+00  1.60000000E+01  1.00800000E+00  1.00800000E+00
  0.00000000E+00  1.60000000E+01  1.00800000E+00  1.00800000E+00  0.00000000E+00
  1.60000000E+01  1.00800000E+00  1.00800000E+00  0.00000000E+00  1.60000000E+01
  1.00800000E+00  1.00800000E+00  0.00000000E+00  1.60000000E+01  1.00800000E+00
  1.00800000E+00  0.00000000E+00  1.60000000E+01  1.00800000E+00  1.00800000E+00
  0.00000000E+00  1.60000000E+01  1.00800000E+00  1.00800000E+00  0.00000000E+00
  1.60000000E+01  1.00800000E+00  1.00800000E+00  0.00000000E+00  1.60000000E+01
  1.00800000E+00  1.00800000E+00  0.00000000E+00  1.60000000E+01  1.00800000E+00
  1.00800000E+00  0.00000000E+00  1.60000000E+01  1.00800000E+00  1.00800000E+00
  0.00000000E+00  1.60000000E+01  1.00800000E+00  1.00800000E+00  0.00000000E+00
  1.60000000E+01  1.00800000E+00  1.00800000E+00  0.00000000E+00  1.60000000E+01
  1.00800000E+00  1.00800000E+00  0.00000000E+00  1.60000000E+01  1.00800000E+00
  1.00800000E+00  0.00000000E+00  1.60000000E+01  1.00800000E+00  1.00800000E+00
  0.00000000E+00  1.60000000E+01  1.00800000E+00  1.00800000E+00  0.00000000E+00
  1.60000000E+01  1.00800000E+00  1.00800000E+00  0.00000000E+00  1.60000000E+01
  1.00800000E+00  1.00800000E+00  0.00000000E+00  1.60000000E+01  1.00800000E+00
  1.00800000E+00  0.00000000E+00  1.60000000E+01  1.00800000E+00  1.00800000E+00
  0.00000000E+00  1.60000000E+01  1.00800000E+00  1.00800000E+00  0.00000000E+00
  1.60000000E+01  1.00800000E+00  1.00800000E+00  0.00000000E+00  1.60000000E+01
  1.00800000E+00  1.00800000E+00  0.00000000E+00  1.60000000E+01  1.00800000E+00
  1.00800000E+00  0.00000000E+00  1.60000000E+01  1.00800000E+00  1.00800000E+00
  0.00000000E+00  1.60000000E+01  1.00800000E+00  1.00800000E+00  0.00000000E+00
  1.60000000E+01  1.00800000E+00  1.00800000E+00  0.00000000E+00  1.60000000E+01
  1.00800000E+00  1.00800000E+00  0.00000000E+00  1.60000000E+01  1.00800000E+00
  1.00800000E+00  0.00000000E+00  1.60000000E+01  1.00800000E+00  1.00800000E+00
  0.00000000E+00  1.60000000E+01  1.00800000E+00  1.00800000E+00  0.00000000E+00
  1.60000000E+01  1.00800000E+00  1.00800000E+00  0.00000000E+00  1.60000000E+01
  1.00800000E+00  1.00800000E+00  0.00000000E+00  1.60000000E+01  1.00800000E+00
  1.00800000E+00  0.00000000E+00  1.60000000E+01  1.00800000E+00  1.00800000E+00
  0.00000000E+00  1.60000000E+01  1.00800000E+00  1.00800000E+00  0.00000000E+00
  1.60000000E+01  1.00800000E+00  1.00800000E+00  0.00000000E+00  1.60000000E+01
  1.00800000E+00  1.00800000E+00  0.00000000E+00  1.60000000E+01  1.00800000E+00
  1.00800000E+00  0.00000000E+00  1.60000000E+01  1.00800000E+00  1.00800000E+00
  0.00000000E+00  1.60000000E+01  1.00800000E+00  1.00800000E+00  0.00000000E+00
  1.60000000E+01  1.00800000E+00  1.00800000E+00  0.00000000E+00  1.60000000E+01
  1.00800000E+00  1.00800000E+00  0.00000000E+00  1.60000000E+01  1.00800000E+00
  1.00800000E+00  0.00000000E+00  1.60000000E+01  1.00800000E+00  1.00800000E+00
  0.00000000E+00  1.60000000E+01  1.00800000E+00  1.00800000E+00  0.00000000E+00
  1.60000000E+01  1.00800000E+00  1.00800000E+00  0.00000000E+00  1.60000000E+01
  1.00800000E+00  1.00800000E+00  0.00000000E+00  1.60000000E+01  1.00800000E+00
  1.00800000E+00  0.00000000E+00  1.60000000E+01  1.00800000E+00  1.00800000E+00
  0.00000000E+00  1.60000000E+01  1.00800000E+00  1.00800000E+00  0.00000000E+00
  1.60000000E+01  1.00800000E+00  1.00800000E+00  0.00000000E+00  1.60000000E+01
  1.00800000E+00  1.00800000E+00  0.00000000E+00  1.60000000E+01  1.00800000E+00
  1.00800000E+00  0.00000000E+00  1.60000000E+01  1.00800000E+00  1.00800000E+00
  0.00000000E+00  1.60000000E+01  1.00800000E+00  1.00800000E+00  0.00000000E+00
  1.60000000E+01  1.00800000E+00  1.00800000E+00  0.00000000E+00  1.60000000E+01
  1.00800000E+00  1.00800000E+00  0.00000000E+00  1.60000000E+01  1.00800000E+00
  1.00800000E+00  0.00000000E+00  1.60000000E+01  1.00800000E+00  1.00800000E+00
  0.00000000E+00  1.60000000E+01  1.00800000E+00  1.00800000E+00  0.00000000E+00
  1.60000000E+01  1.00800000E+00  1.00800000E+00  0.00000000E+00  1.60000000E+01
  1.00800000E+00  1.00800000E+00  0.00000000E+00  1.60000000E+01  1.00800000E+00
  1.00800000E+00  0.00000000E+00  1.60000000E+01  1.00800000E+00  1.00800000E+00
  0.00000000E+00  1.60000000E+01  1.00800000E+00  1.00800000E+00  0.00000000E+00
  1.60000000E+01  1.00800000E+00  1.00800000E+00  0.00000000E+00  1.60000000E+01
  1.00800000E+00  1.00800000E+00  0.00000000E+00  1.60000000E+01  1.00800000E+00
  1.00800000E+00  0.00000000E+00  1.60000000E+01  1.00800000E+00  1.00800000E+00
  0.00000000E+00  1.60000000E+01  1.00800000E+00  1.00800000E+00  0.00000000E+00
  1.60000000E+01  1.00800000E+00  1.00800000E+00  0.00000000E+00  1.60000000E+01
  1.00800000E+00  1.00800000E+00  0.00000000E+00  1.60000000E+01  1.00800000E+00
  1.00800000E+00  0.00000000E+00  1.60000000E+01  1.00800000E+00  1.00800000E+00
  0.00000000E+00  1.60000000E+01  1.00800000E+00  1.00800000E+00  0.00000000E+00
  1.60000000E+01  1.00800000E+00  1.00800000E+00  0.00000000E+00  1.60000000E+01
  1.00800000E+00  1.00800000E+00  0.00000000E+00  1.60000000E+01  1.00800000E+00
  1.00800000E+00  0.00000000E+00  1.60000000E+01  1.00800000E+00  1.00800000E+00
  0.00000000E+00  1.60000000E+01  1.00800000E+00  1.00800000E+00  0.00000000E+00
  1.60000000E+01  1.00800000E+00  1.00800000E+00  0.00000000E+00  1.60000000E+01
  1.00800000E+00  1.00800000E+00  0.00000000E+00  1.60000000E+01  1.00800000E+00
  1.00800000E+00  0.00000000E+00  1.60000000E+01  1.00800000E+00  1.00800000E+00
  0.00000000E+00  1.60000000E+01  1.00800000E+00  1.00800000E+00  0.00000000E+00
  1.60000000E+01  1.00800000E+00  1.00800000E+00  0.00000000E+00  1.60000000E+01
  1.00800000E+00  1.00800000E+00  0.00000000E+00  1.60000000E+01  1.00800000E+00
  1.00800000E+00  0.00000000E+00  1.60000000E+01  1.00800000E+00  1.00800000E+00
  0.00000000E+00  1.60000000E+01  1.00800000E+00  1.00800000E+00  0.00000000E+00
  1.60000000E+01  1.00800000E+00  1.00800000E+00  0.00000000E+00  1.60000000E+01
  1.00800000E+00  1.00800000E+00  0.00000000E+00  1.60000000E+01  1.00800000E+00
  1.00800000E+00  0.00000000E+00  1.60000000E+01  1.00800000E+00  1.00800000E+00
  0.00000000E+00  1.60000000E+01  1.00800000E+00  1.00800000E+00  0.00000000E+00
  1.60000000E+01  1.00800000E+00  1.00800000E+00  0.00000000E+00  1.60000000E+01
  1.00800000E+00  1.00800000E+00  0.00000000E+00  1.60000000E+01  1.00800000E+00
  1.00800000E+00  0.00000000E+00  1.60000000E+01  1.00800000E+00  1.00800000E+00
  0.00000000E+00  1.60000000E+01  1.00800000E+00  1.00800000E+00  0.00000000E+00
  1.60000000E+01  1.00800000E+00  1.00800000E+00  0.00000000E+00  1.60000000E+01
  1.00800000E+00  1.00800000E+00  0.00000000E+00  1.60000000E+01  1.00800000E+00
  1.00800000E+00  0.00000000E+00  1.60000000E+01  1.00800000E+00  1.00800000E+00
  0.00000000E+00  1.60000000E+01  1.00800000E+00  1.00800000E+00  0.00000000E+00
  1.60000000E+01  1.00800000E+00  1.00800000E+00  0.00000000E+00  1.60000000E+01
  1.00800000E+00  1.00800000E+00  0.00000000E+00  1.60000000E+01  1.00800000E+00
  1.00800000E+00  0.00000000E+00  1.60000000E+01  1.00800000E+00  1.00800000E+00
  0.00000000E+00  1.60000000E+01  1.00800000E+00  1.00800000E+00  0.00000000E+00
  1.60000000E+01  1.00800000E+00  1.00800000E+00  0.00000000E+00  1.60000000E+01
  1.00800000E+00  1.00800000E+00  0.00000000E+00  1.60000000E+01  1.00800000E+00
  1.00800000E+00  0.00000000E+00  1.60000000E+01  1.00800000E+00  1.00800000E+00
  0.00000000E+00  1.60000000E+01  1.00800000E+00  1.00800000E+00  0.00000000E+00
  1.60000000E+01  1.00800000E+00  1.00800000E+00  0.00000000E+00  1.60000000E+01
  1.00800000E+00  1.00800000E+00  0.00000000E+00  1.60000000E+01  1.00800000E+00
  1.00800000E+00  0.00000000E+00  1.60000000E+01  1.00800000E+00  1.00800000E+00
  0.00000000E+00  1.60000000E+01  1.00800000E+00  1.00800000E+00  0.00000000E+00
  1.60000000E+01  1.00800000E+00  1.00800000E+00  0.00000000E+00  1.60000000E+01
  1.00800000E+00  1.00800000E+00  0.00000000E+00  1.60000000E+01  1.00800000E+00
  1.00800000E+00  0.00000000E+00  1.60000000E+01  1.00800000E+00  1.00800000E+00
  0.00000000E+00  1.60000000E+01  1.00800000E+00  1.00800000E+00  0.00000000E+00
  1.60000000E+01  1.00800000E+00  1.00800000E+00  0.00000000E+00  1.60000000E+01
  1.00800000E+00  1.00800000E+00  0.00000000E+00  1.60000000E+01  1.00800000E+00
  1.00800000E+00  0.00000000E+00  1.60000000E+01  1.00800000E+00  1.00800000E+00
  0.00000000E+00  1.60000000E+01  1.00800000E+00  1.00800000E+00  0.00000000E+00
  1.60000000E+01  1.00800000E+00  1.00800000E+00  0.00000000E+00  1.60000000E+01
  1.00800000E+00  1.00800000E+00  0.00000000E+00  1.60000000E+01  1.00800000E+00
  1.00800000E+00  0.00000000E+00  1.60000000E+01  1.00800000E+00  1.00800000E+00
  0.00000000E+00  1.60000000E+01  1.00800000E+00  1.00800000E+00  0.00000000E+00
  1.60000000E+01  1.00800000E+00  1.00800000E+00  0.00000000E+00  1.60000000E+01
  1.00800000E+00  1.00800000E+00  0.00000000E+00  1.60000000E+01  1.00800000E+00
  1.00800000E+00  0.00000000E+00  1.60000000E+01  1.00800000E+00  1.00800000E+00
  0.00000000E+00  1.60000000E+01  1.00800000E+00  1.00800000E+00  0.00000000E+00
  1.60000000E+01  1.00800000E+00  1.00800000E+00  0.00000000E+00  1.60000000E+01
  1.00800000E+00  1.00800000E+00  0.00000000E+00  1.60000000E+01  1.00800000E+00
  1.00800000E+00  0.00000000E+00  1.60000000E+01  1.00800000E+00  1.00800000E+00
  0.00000000E+00  1.60000000E+01  1.00800000E+00  1.00800000E+00  0.00000000E+00
  1.60000000E+01  1.00800000E+00  1.00800000E+00  0.00000000E+00  1.60000000E+01
  1.00800000E+00  1.00800000E+00  0.00000000E+00  1.60000000E+01  1.00800000E+00
  1.00800000E+00  0.00000000E+00  1.60000000E+01  1.00800000E+00  1.00800000E+00
  0.00000000E+00  1.60000000E+01  1.00800000E+00  1.00800000E+00  0.00000000E+00
  1.60000000E+01  1.00800000E+00  1.00800000E+00  0.00000000E+00  1.60000000E+01
  1.00800000E+00  1.00800000E+00  0.00000000E+00  1.60000000E+01  1.00800000E+00
  1.00800000E+00  0.00000000E+00  1.60000000E+01  1.00800000E+00  1.00800000E+00
  0.00000000E+00  1.60000000E+01  1.00800000E+00  1.00800000E+00  0.00000000E+00
  1.60000000E+01  1.00800000E+00  1.00800000E+00  0.00000000E+00  1.60000000E+01
  1.00800000E+00  1.00800000E+00  0.00000000E+00  1.60000000E+01  1.00800000E+00
  1.00800000E+00  0.00000000E+00  1.60000000E+01  1.00800000E+00  1.00800000E+00
  0.00000000E+00  1.60000000E+01  1.00800000E+00  1.00800000E+00  0.00000000E+00
  1.60000000E+01  1.00800000E+00  1.00800000E+00  0.00000000E+00  1.60000000E+01
  1.00800000E+00  1.00800000E+00  0.00000000E+00  1.60000000E+01  1.00800000E+00
  1.00800000E+00  0.00000000E+00  1.60000000E+01  1.00800000E+00  1.00800000E+00
  0.00000000E+00  1.60000000E+01  1.00800000E+00  1.00800000E+00  0.00000000E+00
  1.60000000E+01  1.00800000E+00  1.00800000E+00  0.00000000E+00  1.60000000E+01
  1.00800000E+00  1.00800000E+00  0.00000000E+00  1.60000000E+01  1.00800000E+00
  1.00800000E+00  0.00000000E+00  1.60000000E+01  1.00800000E+00  1.00800000E+00
  0.00000000E+00  1.60000000E+01  1.00800000E+00  1.00800000E+00  0.00000000E+00
  1.60000000E+01  1.00800000E+00  1.00800000E+00  0.00000000E+00  1.60000000E+01
  1.00800000E+00  1.00800000E+00  0.00000000E+00  1.60000000E+01  1.00800000E+00
  1.00800000E+00  0.00000000E+00  1.60000000E+01  1.00800000E+00  1.00800000E+00
  0.00000000E+00  1.60000000E+01  1.00800000E+00  1.00800000E+00  0.00000000E+00
  1.60000000E+01  1.00800000E+00  1.00800000E+00  0.00000000E+00  1.60000000E+01
  1.00800000E+00  1.00800000E+00  0.00000000E+00  1.60000000E+01  1.00800000E+00
  1.00800000E+00  0.00000000E+00  1.60000000E+01  1.00800000E+00  1.00800000E+00
  0.00000000E+00  1.60000000E+01  1.00800000E+00  1.00800000E+00  0.00000000E+00
  1.60000000E+01  1.00800000E+00  1.00800000E+00  0.00000000E+00  1.60000000E+01
  1.00800000E+00  1.00800000E+00  0.00000000E+00  1.60000000E+01  1.00800000E+00
  1.00800000E+00  0.00000000E+00  1.60000000E+01  1.00800000E+00  1.00800000E+00
  0.00000000E+00  1.60000000E+01  1.00800000E+00  1.00800000E+00  0.00000000E+00
  1.60000000E+01  1.00800000E+00  1.00800000E+00  0.00000000E+00  1.60000000E+01
  1.00800000E+00  1.00800000E+00  0.00000000E+00  1.60000000E+01  1.00800000E+00
  1.00800000E+00  0.00000000E+00  1.60000000E+01  1.00800000E+00  1.00800000E+00
  0.00000000E+00  1.60000000E+01  1.00800000E+00  1.00800000E+00  0.00000000E+00
  1.60000000E+01  1.00800000E+00  1.00800000E+00  0.00000000E+00  1.60000000E+01
  1.00800000E+00  1.00800000E+00  0.00000000E+00  1.60000000E+01  1.00800000E+00
  1.00800000E+00  0.00000000E+00  1.60000000E+01  1.00800000E+00  1.00800000E+00
  0.00000000E+00  1.60000000E+01  1.00800000E+00  1.00800000E+00  0.00000000E+00
  1.60000000E+01  1.00800000E+00  1.00800000E+00  0.00000000E+00  1.60000000E+01
  1.00800000E+00  1.00800000E+00  0.00000000E+00  1.60000000E+01  1.00800000E+00
  1.00800000E+00  0.00000000E+00  1.60000000E+01  1.00800000E+00  1.00800000E+00
  0.00000000E+00  1.60000000E+01  1.00800000E+00  1.00800000E+00  0.00000000E+00
  1.60000000E+01  1.00800000E+00  1.00800000E+00  0.00000000E+00  1.60000000E+01
  1.00800000E+00  1.00800000E+00  0.00000000E+00  1.60000000E+01  1.00800000E+00
  1.00800000E+00  0.00000000E+00  1.60000000E+01  1.00800000E+00  1.00800000E+00
  0.00000000E+00  1.60000000E+01  1.00800000E+00  1.00800000E+00  0.00000000E+00
  1.60000000E+01  1.00800000E+00  1.00800000E+00  0.00000000E+00  1.60000000E+01
  1.00800000E+00  1.00800000E+00  0.00000000E+00  1.60000000E+01  1.00800000E+00
  1.00800000E+00  0.00000000E+00  1.60000000E+01  1.00800000E+00  1.00800000E+00
  0.00000000E+00  1.60000000E+01  1.00800000E+00  1.00800000E+00  0.00000000E+00
  1.60000000E+01  1.00800000E+00  1.00800000E+00  0.00000000E+00  1.60000000E+01
  1.00800000E+00  1.00800000E+00  0.00000000E+00  1.60000000E+01  1.00800000E+00
  1.00800000E+00  0.00000000E+00  1.60000000E+01  1.00800000E+00  1.00800000E+00
  0.00000000E+00  1.60000000E+01  1.00800000E+00  1.00800000E+00  0.00000000E+00
  1.60000000E+01  1.00800000E+00  1.00800000E+00  0.00000000E+00  1.60000000E+01
  1.00800000E+00  1.00800000E+00  0.00000000E+00  1.60000000E+01  1.00800000E+00
  1.00800000E+00  0.00000000E+00  1.60000000E+01  1.00800000E+00  1.00800000E+00
  0.00000000E+00  1.60000000E+01  1.00800000E+00  1.00800000E+00  0.00000000E+00
  1.60000000E+01  1.00800000E+00  1.00800000E+00  0.00000000E+00  1.60000000E+01
  1.00800000E+00  1.00800000E+00  0.00000000E+00  1.60000000E+01  1.00800000E+00
  1.00800000E+00  0.00000000E+00  1.60000000E+01  1.00800000E+00  1.00800000E+00
  0.00000000E+00  1.60000000E+01  1.00800000E+00  1.00800000E+00  0.00000000E+00
  1.60000000E+01  1.00800000E+00  1.00800000E+00  0.00000000E+00  1.60000000E+01
  1.00800000E+00  1.00800000E+00  0.00000000E+00  1.60000000E+01  1.00800000E+00
  1.00800000E+00  0.00000000E+00  1.60000000E+01  1.00800000E+00  1.00800000E+00
  0.00000000E+00  1.60000000E+01  1.00800000E+00  1.00800000E+00  0.00000000E+00
  1.60000000E+01  1.00800000E+00  1.00800000E+00  0.00000000E+00  1.60000000E+01
  1.00800000E+00  1.00800000E+00  0.00000000E+00  1.60000000E+01  1.00800000E+00
  1.00800000E+00  0.00000000E+00  1.60000000E+01  1.00800000E+00  1.00800000E+00
  0.00000000E+00  1.60000000E+01  1.00800000E+00  1.00800000E+00  0.00000000E+00
  1.60000000E+01  1.00800000E+00  1.00800000E+00  0.00000000E+00  1.60000000E+01
  1.00800000E+00  1.00800000E+00  0.00000000E+00  1.60000000E+01  1.00800000E+00
  1.00800000E+00  0.00000000E+00  1.60000000E+01  1.00800000E+00  1.00800000E+00
  0.00000000E+00  1.60000000E+01  1.00800000E+00  1.00800000E+00  0.00000000E+00
  1.60000000E+01  1.00800000E+00  1.00800000E+00  0.00000000E+00  1.60000000E+01
  1.00800000E+00  1.00800000E+00  0.00000000E+00  1.60000000E+01  1.00800000E+00
  1.00800000E+00  0.00000000E+00  1.60000000E+01  1.00800000E+00  1.00800000E+00
  0.00000000E+00  1.60000000E+01  1.00800000E+00  1.00800000E+00  0.00000000E+00
  1.60000000E+01  1.00800000E+00  1.00800000E+00  0.00000000E+00  1.60000000E+01
  1.00800000E+00  1.00800000E+00  0.00000000E+00  1.60000000E+01  1.00800000E+00
  1.00800000E+00  0.00000000E+00  1.60000000E+01  1.00800000E+00  1.00800000E+00
  0.00000000E+00  1.60000000E+01  1.00800000E+00  1.00800000E+00  0.00000000E+00
  1.60000000E+01  1.00800000E+00  1.00800000E+00  0.00000000E+00  1.60000000E+01
  1.00800000E+00  1.00800000E+00  0.00000000E+00  1.60000000E+01  1.00800000E+00
  1.00800000E+00  0.00000000E+00  1.60000000E+01  1.00800000E+00  1.00800000E+00
  0.00000000E+00  1.60000000E+01  1.00800000E+00  1.00800000E+00  0.00000000E+00
  1.60000000E+01  1.00800000E+00  1.00800000E+00  0.00000000E+00  1.60000000E+01
  1.00800000E+00  1.00800000E+00  0.00000000E+00  1.60000000E+01  1.00800000E+00
  1.00800000E+00  0.00000000E+00  1.60000000E+01  1.00800000E+00  1.00800000E+00
  0.00000000E+00  1.60000000E+01  1.00800000E+00  1.00800000E+00  0.00000000E+00
  1.60000000E+01  1.00800000E+00  1.00800000E+00  0.00000000E+00  1.60000000E+01
  1.00800000E+00  1.00800000E+00  0.00000000E+00  1.60000000E+01  1.00800000E+00
  1.00800000E+00  0.00000000E+00  1.60000000E+01  1.00800000E+00  1.00800000E+00
  0.00000000E+00  1.60000000E+01  1.00800000E+00  1.00800000E+00  0.00000000E+00
  1.60000000E+01  1.00800000E+00  1.00800000E+00  0.00000000E+00  1.60000000E+01
  1.00800000E+00  1.00800000E+00  0.00000000E+00  1.60000000E+01  1.00800000E+00
  1.00800000E+00  0.00000000E+00  1.60000000E+01  1.00800000E+00  1.00800000E+00
  0.00000000E+00  1.60000000E+01  1.00800000E+00  1.00800000E+00  0.00000000E+00
  1.60000000E+01  1.00800000E+00  1.00800000E+00  0.00000000E+00  1.60000000E+01
  1.00800000E+00  1.00800000E+00  0.00000000E+00  1.60000000E+01  1.00800000E+00
  1.00800000E+00  0.00000000E+00  1.60000000E+01  1.00800000E+00  1.00800000E+00
  0.00000000E+00  1.60000000E+01  1.00800000E+00  1.00800000E+00  0.00000000E+00
  1.60000000E+01  1.00800000E+00  1.00800000E+00  0.00000000E+00  1.60000000E+01
  1.00800000E+00  1.00800000E+00  0.00000000E+00  1.60000000E+01  1.00800000E+00
  1.00800000E+00  0.00000000E+00  1.60000000E+01  1.00800000E+00  1.00800000E+00
  0.00000000E+00  1.60000000E+01  1.00800000E+00  1.00800000E+00  0.00000000E+00
  1.60000000E+01  1.00800000E+00  1.00800000E+00  0.00000000E+00  1.60000000E+01
  1.00800000E+00  1.00800000E+00  0.00000000E+00  1.60000000E+01  1.00800000E+00
  1.00800000E+00  0.00000000E+00  1.60000000E+01  1.00800000E+00  1.00800000E+00
  0.00000000E+00  1.60000000E+01  1.00800000E+00  1.00800000E+00  0.00000000E+00
  1.60000000E+01  1.00800000E+00  1.00800000E+00  0.00000000E+00  1.60000000E+01
  1.00800000E+00  1.00800000E+00  0.00000000E+00  1.60000000E+01  1.00800000E+00
  1.00800000E+00  0.00000000E+00  1.60000000E+01  1.00800000E+00  1.00800000E+00
  0.00000000E+00  1.60000000E+01  1.00800000E+00  1.00800000E+00  0.00000000E+00
  1.60000000E+01  1.00800000E+00  1.00800000E+00  0.00000000E+00  1.60000000E+01
  1.00800000E+00  1.00800000E+00  0.00000000E+00  1.60000000E+01  1.00800000E+00
  1.00800000E+00  0.00000000E+00  1.60000000E+01  1.00800000E+00  1.00800000E+00
  0.00000000E+00  1.60000000E+01  1.00800000E+00  1.00800000E+00  0.00000000E+00
  1.60000000E+01  1.00800000E+00  1.00800000E+00  0.00000000E+00  1.60000000E+01
  1.00800000E+00  1.00800000E+00  0.00000000E+00  1.60000000E+01  1.00800000E+00
  1.00800000E+00  0.00000000E+00  1.60000000E+01  1.00800000E+00  1.00800000E+00
  0.00000000E+00  1.60000000E+01  1.00800000E+00  1.00800000E+00  0.00000000E+00
  1.60000000E+01  1.00800000E+00  1.00800000E+00  0.00000000E+00  1.60000000E+01
  1.00800000E+00  1.00800000E+00  0.00000000E+00  1.60000000E+01  1.00800000E+00
  1.00800000E+00  0.00000000E+00  1.60000000E+01  1.00800000E+00  1.00800000E+00
  0.00000000E+00  1.60000000E+01  1.00800000E+00  1.00800000E+00  0.00000000E+00
  1.60000000E+01  1.00800000E+00  1.00800000E+00  0.00000000E+00  1.60000000E+01
  1.00800000E+00  1.00800000E+00  0.00000000E+00  1.60000000E+01  1.00800000E+00
  1.00800000E+00  0.00000000E+00  1.60000000E+01  1.00800000E+00  1.00800000E+00
  0.00000000E+00  1.60000000E+01  1.00800000E+00  1.00800000E+00  0.00000000E+00
  1.60000000E+01  1.00800000E+00  1.00800000E+00  0.00000000E+00  1.60000000E+01
  1.00800000E+00  1.00800000E+00  0.00000000E+00  1.60000000E+01  1.00800000E+00
  1.00800000E+00  0.00000000E+00  1.60000000E+01  1.00800000E+00  1.00800000E+00
  0.00000000E+00  1.60000000E+01  1.00800000E+00  1.00800000E+00  0.00000000E+00
  1.60000000E+01  1.00800000E+00  1.00800000E+00  0.00000000E+00  1.60000000E+01
  1.00800000E+00  1.00800000E+00  0.00000000E+00  1.60000000E+01  1.00800000E+00
  1.00800000E+00  0.00000000E+00  1.60000000E+01  1.00800000E+00  1.00800000E+00
  0.00000000E+00  1.60000000E+01  1.00800000E+00  1.00800000E+00  0.00000000E+00
  1.60000000E+01  1.00800000E+00  1.00800000E+00  0.00000000E+00  1.60000000E+01
  1.00800000E+00  1.00800000E+00  0.00000000E+00  1.60000000E+01  1.00800000E+00
  1.00800000E+00  0.00000000E+00  1.60000000E+01  1.00800000E+00  1.00800000E+00
  0.00000000E+00  1.60000000E+01  1.00800000E+00  1.00800000E+00  0.00000000E+00
  1.60000000E+01  1.00800000E+00  1.00800000E+00  0.00000000E+00  1.60000000E+01
  1.00800000E+00  1.00800000E+00  0.00000000E+00  1.60000000E+01  1.00800000E+00
  1.00800000E+00  0.00000000E+00  1.60000000E+01  1.00800000E+00  1.00800000E+00
  0.00000000E+00  1.60000000E+01  1.00800000E+00  1.00800000E+00  0.00000000E+00
  1.60000000E+01  1.00800000E+00  1.00800000E+00  0.00000000E+00  1.60000000E+01
  1.00800000E+00  1.00800000E+00  0.00000000E+00  1.60000000E+01  1.00800000E+00
  1.00800000E+00  0.00000000E+00  1.60000000E+01  1.00800000E+00  1.00800000E+00
  0.00000000E+00  1.60000000E+01  1.00800000E+00  1.00800000E+00  0.00000000E+00
  1.60000000E+01  1.00800000E+00  1.00800000E+00  0.00000000E+00  1.60000000E+01
  1.00800000E+00  1.00800000E+00  0.00000000E+00  1.60000000E+01  1.00800000E+00
  1.00800000E+00  0.00000000E+00  1.60000000E+01  1.00800000E+00  1.00800000E+00
  0.00000000E+00  1.60000000E+01  1.00800000E+00  1.00800000E+00  0.00000000E+00
  1.60000000E+01  1.00800000E+00  1.00800000E+00  0.00000000E+00  1.60000000E+01
  1.00800000E+00  1.00800000E+00  0.00000000E+00  1.60000000E+01  1.00800000E+00
  1.00800000E+00  0.00000000E+00  1.60000000E+01  1.00800000E+00  1.00800000E+00
  0.00000000E+00  1.60000000E+01  1.00800000E+00  1.00800000E+00  0.00000000E+00
  1.60000000E+01  1.00800000E+00  1.00800000E+00  0.00000000E+00  1.60000000E+01
  1.00800000E+00  1.00800000E+00  0.00000000E+00  1.60000000E+01  1.00800000E+00
  1.00800000E+00  0.00000000E+00  1.60000000E+01  1.00800000E+00  1.00800000E+00
  0.00000000E+00  1.60000000E+01  1.00800000E+00  1.00800000E+00  0.00000000E+00
  1.60000000E+01  1.00800000E+00  1.00800000E+00  0.00000000E+00  1.60000000E+01
  1.00800000E+00  1.00800000E+00  0.00000000E+00  1.60000000E+01  1.00800000E+00
  1.00800000E+00  0.00000000E+00  1.60000000E+01  1.00800000E+00  1.00800000E+00
  0.00000000E+00  1.60000000E+01  1.00800000E+00  1.00800000E+00  0.00000000E+00
  1.60000000E+01  1.00800000E+00  1.00800000E+00  0.00000000E+00  1.60000000E+01
  1.00800000E+00  1.00800000E+00  0.00000000E+00  1.60000000E+01  1.00800000E+00
  1.00800000E+00  0.00000000E+00  1.60000000E+01  1.00800000E+00  1.00800000E+00
  0.00000000E+00  1.60000000E+01  1.00800000E+00  1.00800000E+00  0.00000000E+00
  1.60000000E+01  1.00800000E+00  1.00800000E+00  0.00000000E+00  1.60000000E+01
  1.00800000E+00  1.00800000E+00  0.00000000E+00  1.60000000E+01  1.00800000E+00
  1.00800000E+00  0.00000000E+00  1.60000000E+01  1.00800000E+00  1.00800000E+00
  0.00000000E+00  1.60000000E+01  1.00800000E+00  1.00800000E+00  0.00000000E+00
  1.60000000E+01  1.00800000E+00  1.00800000E+00  0.00000000E+00  1.60000000E+01
  1.00800000E+00  1.00800000E+00  0.00000000E+00  1.60000000E+01  1.00800000E+00
  1.00800000E+00  0.00000000E+00  1.60000000E+01  1.00800000E+00  1.00800000E+00
  0.00000000E+00  1.60000000E+01  1.00800000E+00  1.00800000E+00  0.00000000E+00
  1.60000000E+01  1.00800000E+00  1.00800000E+00  0.00000000E+00  1.60000000E+01
  1.00800000E+00  1.00800000E+00  0.00000000E+00  1.60000000E+01  1.00800000E+00
  1.00800000E+00  0.00000000E+00  1.60000000E+01  1.00800000E+00  1.00800000E+00
  0.00000000E+00  1.60000000E+01  1.00800000E+00  1.00800000E+00  0.00000000E+00
  1.60000000E+01  1.00800000E+00  1.00800000E+00  0.00000000E+00  1.60000000E+01
  1.00800000E+00  1.00800000E+00  0.00000000E+00  1.60000000E+01  1.00800000E+00
  1.00800000E+00  0.00000000E+00  1.60000000E+01  1.00800000E+00  1.00800000E+00
  0.00000000E+00  1.60000000E+01  1.00800000E+00  1.00800000E+00  0.00000000E+00
  1.60000000E+01  1.00800000E+00  1.00800000E+00  0.00000000E+00  1.60000000E+01
  1.00800000E+00  1.00800000E+00  0.00000000E+00  1.60000000E+01  1.00800000E+00
  1.00800000E+00  0.00000000E+00  1.60000000E+01  1.00800000E+00  1.00800000E+00
  0.00000000E+00  1.60000000E+01  1.00800000E+00  1.00800000E+00  0.00000000E+00
  1.60000000E+01  1.00800000E+00  1.00800000E+00  0.00000000E+00  1.60000000E+01
  1.00800000E+00  1.00800000E+00  0.00000000E+00  1.60000000E+01  1.00800000E+00
  1.00800000E+00  0.00000000E+00  1.60000000E+01  1.00800000E+00  1.00800000E+00
  0.00000000E+00  1.60000000E+01  1.00800000E+00  1.00800000E+00  0.00000000E+00
  1.60000000E+01  1.00800000E+00  1.00800000E+00  0.00000000E+00  1.60000000E+01
  1.00800000E+00  1.00800000E+00  0.00000000E+00  1.60000000E+01  1.00800000E+00
  1.00800000E+00  0.00000000E+00  1.60000000E+01  1.00800000E+00  1.00800000E+00
  0.00000000E+00  1.60000000E+01  1.00800000E+00  1.00800000E+00  0.00000000E+00
  1.60000000E+01  1.00800000E+00  1.00800000E+00  0.00000000E+00  1.60000000E+01
  1.00800000E+00  1.00800000E+00  0.00000000E+00  1.60000000E+01  1.00800000E+00
  1.00800000E+00  0.00000000E+00  1.60000000E+01  1.00800000E+00  1.00800000E+00
  0.00000000E+00  1.60000000E+01  1.00800000E+00  1.00800000E+00  0.00000000E+00
  1.60000000E+01  1.00800000E+00  1.00800000E+00  0.00000000E+00  1.60000000E+01
  1.00800000E+00  1.00800000E+00  0.00000000E+00  1.60000000E+01  1.00800000E+00
  1.00800000E+00  0.00000000E+00  1.60000000E+01  1.00800000E+00  1.00800000E+00
  0.00000000E+00  1.60000000E+01  1.00800000E+00  1.00800000E+00  0.00000000E+00
  1.60000000E+01  1.00800000E+00  1.00800000E+00  0.00000000E+00  1.60000000E+01
  1.00800000E+00  1.00800000E+00  0.00000000E+00  1.60000000E+01  1.00800000E+00
  1.00800000E+00  0.00000000E+00  1.60000000E+01  1.00800000E+00  1.00800000E+00
  0.00000000E+00  1.60000000E+01  1.00800000E+00  1.00800000E+00  0.00000000E+00
  1.60000000E+01  1.00800000E+00  1.00800000E+00  0.00000000E+00  1.60000000E+01
  1.00800000E+00  1.00800000E+00  0.00000000E+00  1.60000000E+01  1.00800000E+00
  1.00800000E+00  0.00000000E+00  1.60000000E+01  1.00800000E+00  1.00800000E+00
  0.00000000E+00  1.60000000E+01  1.00800000E+00  1.00800000E+00  0.00000000E+00
  1.60000000E+01  1.00800000E+00  1.00800000E+00  0.00000000E+00  1.60000000E+01
  1.00800000E+00  1.00800000E+00  0.00000000E+00  1.60000000E+01  1.00800000E+00
  1.00800000E+00  0.00000000E+00  1.60000000E+01  1.00800000E+00  1.00800000E+00
  0.00000000E+00  1.60000000E+01  1.00800000E+00  1.00800000E+00  0.00000000E+00
  1.60000000E+01  1.00800000E+00  1.00800000E+00  0.00000000E+00  1.60000000E+01
  1.00800000E+00  1.00800000E+00  0.00000000E+00  1.60000000E+01  1.00800000E+00
  1.00800000E+00  0.00000000E+00  1.60000000E+01  1.00800000E+00  1.00800000E+00
  0.00000000E+00  1.60000000E+01  1.00800000E+00  1.00800000E+00  0.00000000E+00
  1.60000000E+01  1.00800000E+00  1.00800000E+00  0.00000000E+00  1.60000000E+01
  1.00800000E+00  1.00800000E+00  0.00000000E+00  1.60000000E+01  1.00800000E+00
  1.00800000E+00  0.00000000E+00  1.60000000E+01  1.00800000E+00  1.00800000E+00
  0.00000000E+00  1.60000000E+01  1.00800000E+00  1.00800000E+00  0.00000000E+00
  1.60000000E+01  1.00800000E+00  1.00800000E+00  0.00000000E+00  1.60000000E+01
  1.00800000E+00  1.00800000E+00  0.00000000E+00  1.60000000E+01  1.00800000E+00
  1.00800000E+00  0.00000000E+00  1.60000000E+01  1.00800000E+00  1.00800000E+00
  0.00000000E+00  1.60000000E+01  1.00800000E+00  1.00800000E+00  0.00000000E+00
  1.60000000E+01  1.00800000E+00  1.00800000E+00  0.00000000E+00  1.60000000E+01
  1.00800000E+00  1.00800000E+00  0.00000000E+00  1.60000000E+01  1.00800000E+00
  1.00800000E+00  0.00000000E+00  1.60000000E+01  1.00800000E+00  1.00800000E+00
  0.00000000E+00  1.60000000E+01  1.00800000E+00  1.00800000E+00  0.00000000E+00
  1.60000000E+01  1.00800000E+00  1.00800000E+00  0.00000000E+00  1.60000000E+01
  1.00800000E+00  1.00800000E+00  0.00000000E+00  1.60000000E+01  1.00800000E+00
  1.00800000E+00  0.00000000E+00  1.60000000E+01  1.00800000E+00  1.00800000E+00
  0.00000000E+00  1.60000000E+01  1.00800000E+00  1.00800000E+00  0.00000000E+00
  1.60000000E+01  1.00800000E+00  1.00800000E+00  0.00000000E+00  1.60000000E+01
  1.00800000E+00  1.00800000E+00  0.00000000E+00  1.60000000E+01  1.00800000E+00
  1.00800000E+00  0.00000000E+00  1.60000000E+01  1.00800000E+00  1.00800000E+00
  0.00000000E+00  1.60000000E+01  1.00800000E+00  1.00800000E+00  0.00000000E+00
  1.60000000E+01  1.00800000E+00  1.00800000E+00  0.00000000E+00  1.60000000E+01
  1.00800000E+00  1.00800000E+00  0.00000000E+00  1.60000000E+01  1.00800000E+00
  1.00800000E+00  0.00000000E+00  1.60000000E+01  1.00800000E+00  1.00800000E+00
  0.00000000E+00  1.60000000E+01  1.00800000E+00  1.00800000E+00  0.00000000E+00
  1.60000000E+01  1.00800000E+00  1.00800000E+00  0.00000000E+00  1.60000000E+01
  1.00800000E+00  1.00800000E+00  0.00000000E+00  1.60000000E+01  1.00800000E+00
  1.00800000E+00  0.00000000E+00  1.60000000E+01  1.00800000E+00  1.00800000E+00
  0.00000000E+00  1.60000000E+01  1.00800000E+00  1.00800000E+00  0.00000000E+00
  1.60000000E+01  1.00800000E+00  1.00800000E+00  0.00000000E+00  1.60000000E+01
  1.00800000E+00  1.00800000E+00  0.00000000E+00  1.60000000E+01  1.00800000E+00
  1.00800000E+00  0.00000000E+00  1.60000000E+01  1.00800000E+00  1.00800000E+00
  0.00000000E+00  1.60000000E+01  1.00800000E+00  1.00800000E+00  0.00000000E+00
  1.60000000E+01  1.00800000E+00  1.00800000E+00  0.00000000E+00  1.60000000E+01
  1.00800000E+00  1.00800000E+00  0.00000000E+00  1.60000000E+01  1.00800000E+00
  1.00800000E+00  0.00000000E+00  1.60000000E+01  1.00800000E+00  1.00800000E+00
  0.00000000E+00  1.60000000E+01  1.00800000E+00  1.00800000E+00  0.00000000E+00
  1.60000000E+01  1.00800000E+00  1.00800000E+00  0.00000000E+00  1.60000000E+01
  1.00800000E+00  1.00800000E+00  0.00000000E+00  1.60000000E+01  1.00800000E+00
  1.00800000E+00  0.00000000E+00  1.60000000E+01  1.00800000E+00  1.00800000E+00
  0.00000000E+00  1.60000000E+01  1.00800000E+00  1.00800000E+00  0.00000000E+00
  1.60000000E+01  1.00800000E+00  1.00800000E+00  0.00000000E+00  1.60000000E+01
  1.00800000E+00  1.00800000E+00  0.00000000E+00  1.60000000E+01  1.00800000E+00
  1.00800000E+00  0.00000000E+00  1.60000000E+01  1.00800000E+00  1.00800000E+00
  0.00000000E+00  1.60000000E+01  1.00800000E+00  1.00800000E+00  0.00000000E+00
  1.60000000E+01  1.00800000E+00  1.00800000E+00  0.00000000E+00  1.60000000E+01
  1.00800000E+00  1.00800000E+00  0.00000000E+00  1.60000000E+01  1.00800000E+00
  1.00800000E+00  0.00000000E+00  1.60000000E+01  1.00800000E+00  1.00800000E+00
  0.00000000E+00  1.60000000E+01  1.00800000E+00  1.00800000E+00  0.00000000E+00
  1.60000000E+01  1.00800000E+00  1.00800000E+00  0.00000000E+00  1.60000000E+01
  1.00800000E+00  1.00800000E+00  0.00000000E+00  1.60000000E+01  1.00800000E+00
  1.00800000E+00  0.00000000E+00  1.60000000E+01  1.00800000E+00  1.00800000E+00
  0.00000000E+00  1.60000000E+01  1.00800000E+00  1.00800000E+00  0.00000000E+00
  1.60000000E+01  1.00800000E+00  1.00800000E+00  0.00000000E+00  1.60000000E+01
  1.00800000E+00  1.00800000E+00  0.00000000E+00  1.60000000E+01  1.00800000E+00
  1.00800000E+00  0.00000000E+00  1.60000000E+01  1.00800000E+00  1.00800000E+00
  0.00000000E+00  1.60000000E+01  1.00800000E+00  1.00800000E+00  0.00000000E+00
  1.60000000E+01  1.00800000E+00  1.00800000E+00  0.00000000E+00  1.60000000E+01
  1.00800000E+00  1.00800000E+00  0.00000000E+00  1.60000000E+01  1.00800000E+00
  1.00800000E+00  0.00000000E+00  1.60000000E+01  1.00800000E+00  1.00800000E+00
  0.00000000E+00  1.60000000E+01  1.00800000E+00  1.00800000E+00  0.00000000E+00
  1.60000000E+01  1.00800000E+00  1.00800000E+00  0.00000000E+00  1.60000000E+01
  1.00800000E+00  1.00800000E+00  0.00000000E+00  1.60000000E+01  1.00800000E+00
  1.00800000E+00  0.00000000E+00  1.60000000E+01  1.00800000E+00  1.00800000E+00
  0.00000000E+00  1.60000000E+01  1.00800000E+00  1.00800000E+00  0.00000000E+00
  1.60000000E+01  1.00800000E+00  1.00800000E+00  0.00000000E+00  1.60000000E+01
  1.00800000E+00  1.00800000E+00  0.00000000E+00  1.60000000E+01  1.00800000E+00
  1.00800000E+00  0.00000000E+00  1.60000000E+01  1.00800000E+00  1.00800000E+00
  0.00000000E+00  1.60000000E+01  1.00800000E+00  1.00800000E+00  0.00000000E+00
  1.60000000E+01  1.00800000E+00  1.00800000E+00  0.00000000E+00  1.60000000E+01
  1.00800000E+00  1.00800000E+00  0.00000000E+00  1.60000000E+01  1.00800000E+00
  1.00800000E+00  0.00000000E+00  1.60000000E+01  1.00800000E+00  1.00800000E+00
  0.00000000E+00  1.60000000E+01  1.00800000E+00  1.00800000E+00  0.00000000E+00
  1.60000000E+01  1.00800000E+00  1.00800000E+00  0.00000000E+00  1.60000000E+01
  1.00800000E+00  1.00800000E+00  0.00000000E+00  1.60000000E+01  1.00800000E+00
  1.00800000E+00  0.00000000E+00  1.60000000E+01  1.00800000E+00  1.00800000E+00
  0.00000000E+00  1.60000000E+01  1.00800000E+00  1.00800000E+00  0.00000000E+00
  1.60000000E+01  1.00800000E+00  1.00800000E+00  0.00000000E+00  1.60000000E+01
  1.00800000E+00  1.00800000E+00  0.00000000E+00  1.60000000E+01  1.00800000E+00
  1.00800000E+00  0.00000000E+00  1.60000000E+01  1.00800000E+00  1.00800000E+00
  0.00000000E+00  1.60000000E+01  1.00800000E+00  1.00800000E+00  0.00000000E+00
  1.60000000E+01  1.00800000E+00  1.00800000E+00  0.00000000E+00  1.60000000E+01
  1.00800000E+00  1.00800000E+00  0.00000000E+00  1.60000000E+01  1.00800000E+00
  1.00800000E+00  0.00000000E+00  1.60000000E+01  1.00800000E+00  1.00800000E+00
  0.00000000E+00  1.60000000E+01  1.00800000E+00  1.00800000E+00  0.00000000E+00
  1.60000000E+01  1.00800000E+00  1.00800000E+00  0.00000000E+00  1.60000000E+01
  1.00800000E+00  1.00800000E+00  0.00000000E+00  1.60000000E+01  1.00800000E+00
  1.00800000E+00  0.00000000E+00  1.60000000E+01  1.00800000E+00  1.00800000E+00
  0.00000000E+00  1.60000000E+01  1.00800000E+00  1.00800000E+00  0.00000000E+00
  1.60000000E+01  1.00800000E+00  1.00800000E+00  0.00000000E+00  1.60000000E+01
  1.00800000E+00  1.00800000E+00  0.00000000E+00  1.60000000E+01  1.00800000E+00
  1.00800000E+00  0.00000000E+00  1.60000000E+01  1.00800000E+00  1.00800000E+00
  0.00000000E+00  1.60000000E+01  1.00800000E+00  1.00800000E+00  0.00000000E+00
  1.60000000E+01  1.00800000E+00  1.00800000E+00  0.00000000E+00  1.60000000E+01
  1.00800000E+00  1.00800000E+00  0.00000000E+00  1.60000000E+01  1.00800000E+00
  1.00800000E+00  0.00000000E+00  1.60000000E+01  1.00800000E+00  1.00800000E+00
  0.00000000E+00  1.60000000E+01  1.00800000E+00  1.00800000E+00  0.00000000E+00
  1.60000000E+01  1.00800000E+00  1.00800000E+00  0.00000000E+00  1.60000000E+01
  1.00800000E+00  1.00800000E+00  0.00000000E+00  1.60000000E+01  1.00800000E+00
  1.00800000E+00  0.00000000E+00  1.60000000E+01  1.00800000E+00  1.00800000E+00
  0.00000000E+00  1.60000000E+01  1.00800000E+00  1.00800000E+00  0.00000000E+00
  1.60000000E+01  1.00800000E+00  1.00800000E+00  0.00000000E+00  1.60000000E+01
  1.00800000E+00  1.00800000E+00  0.00000000E+00  1.60000000E+01  1.00800000E+00
  1.00800000E+00  0.00000000E+00  1.60000000E+01  1.00800000E+00  1.00800000E+00
  0.00000000E+00  1.60000000E+01  1.00800000E+00  1.00800000E+00  0.00000000E+00
  1.60000000E+01  1.00800000E+00  1.00800000E+00  0.00000000E+00  1.60000000E+01
  1.00800000E+00  1.00800000E+00  0.00000000E+00  1.60000000E+01  1.00800000E+00
  1.00800000E+00  0.00000000E+00  1.60000000E+01  1.00800000E+00  1.00800000E+00
  0.00000000E+00  1.60000000E+01  1.00800000E+00  1.00800000E+00  0.00000000E+00
  1.60000000E+01  1.00800000E+00  1.00800000E+00  0.00000000E+00  1.60000000E+01
  1.00800000E+00  1.00800000E+00  0.00000000E+00  1.60000000E+01  1.00800000E+00
  1.00800000E+00  0.00000000E+00  1.60000000E+01  1.00800000E+00  1.00800000E+00
  0.00000000E+00  1.60000000E+01  1.00800000E+00  1.00800000E+00  0.00000000E+00
  1.60000000E+01  1.00800000E+00  1.00800000E+00  0.00000000E+00  1.60000000E+01
  1.00800000E+00  1.00800000E+00  0.00000000E+00  1.60000000E+01  1.00800000E+00
  1.00800000E+00  0.00000000E+00  1.60000000E+01  1.00800000E+00  1.00800000E+00
  0.00000000E+00  1.60000000E+01  1.00800000E+00  1.00800000E+00  0.00000000E+00
  1.60000000E+01  1.00800000E+00  1.00800000E+00  0.00000000E+00  1.60000000E+01
  1.00800000E+00  1.00800000E+00  0.00000000E+00  1.60000000E+01  1.00800000E+00
  1.00800000E+00  0.00000000E+00  1.60000000E+01  1.00800000E+00  1.00800000E+00
  0.00000000E+00  1.60000000E+01  1.00800000E+00  1.00800000E+00  0.00000000E+00
  1.60000000E+01  1.00800000E+00  1.00800000E+00  0.00000000E+00  1.60000000E+01
  1.00800000E+00  1.00800000E+00  0.00000000E+00  1.60000000E+01  1.00800000E+00
  1.00800000E+00  0.00000000E+00  1.60000000E+01  1.00800000E+00  1.00800000E+00
  0.00000000E+00  1.60000000E+01  1.00800000E+00  1.00800000E+00  0.00000000E+00
  1.60000000E+01  1.00800000E+00  1.00800000E+00  0.00000000E+00  1.60000000E+01
  1.00800000E+00  1.00800000E+00  0.00000000E+00  1.60000000E+01  1.00800000E+00
  1.00800000E+00  0.00000000E+00  1.60000000E+01  1.00800000E+00  1.00800000E+00
  0.00000000E+00  1.60000000E+01  1.00800000E+00  1.00800000E+00  0.00000000E+00
  1.60000000E+01  1.00800000E+00  1.00800000E+00  0.00000000E+00  1.60000000E+01
  1.00800000E+00  1.00800000E+00  0.00000000E+00  1.60000000E+01  1.00800000E+00
  1.00800000E+00  0.00000000E+00  1.60000000E+01  1.00800000E+00  1.00800000E+00
  0.00000000E+00  1.60000000E+01  1.00800000E+00  1.00800000E+00  0.00000000E+00
  1.60000000E+01  1.00800000E+00  1.00800000E+00  0.00000000E+00  1.60000000E+01
  1.00800000E+00  1.00800000E+00  0.00000000E+00  1.60000000E+01  1.00800000E+00
  1.00800000E+00  0.00000000E+00  1.60000000E+01  1.00800000E+00  1.00800000E+00
  0.00000000E+00  1.60000000E+01  1.00800000E+00  1.00800000E+00  0.00000000E+00
  1.60000000E+01  1.00800000E+00  1.00800000E+00  0.00000000E+00  1.60000000E+01
  1.00800000E+00  1.00800000E+00  0.00000000E+00  1.60000000E+01  1.00800000E+00
  1.00800000E+00  0.00000000E+00  1.60000000E+01  1.00800000E+00  1.00800000E+00
  0.00000000E+00  1.60000000E+01  1.00800000E+00  1.00800000E+00  0.00000000E+00
  1.60000000E+01  1.00800000E+00  1.00800000E+00  0.00000000E+00  1.60000000E+01
  1.00800000E+00  1.00800000E+00  0.00000000E+00  1.60000000E+01  1.00800000E+00
  1.00800000E+00  0.00000000E+00  1.60000000E+01  1.00800000E+00  1.00800000E+00
  0.00000000E+00  1.60000000E+01  1.00800000E+00  1.00800000E+00  0.00000000E+00
  1.60000000E+01  1.00800000E+00  1.00800000E+00  0.00000000E+00  1.60000000E+01
  1.00800000E+00  1.00800000E+00  0.00000000E+00  1.60000000E+01  1.00800000E+00
  1.00800000E+00  0.00000000E+00  1.60000000E+01  1.00800000E+00  1.00800000E+00
  0.00000000E+00  1.60000000E+01  1.00800000E+00  1.00800000E+00  0.00000000E+00
  1.60000000E+01  1.00800000E+00  1.00800000E+00  0.00000000E+00  1.60000000E+01
  1.00800000E+00  1.00800000E+00  0.00000000E+00  1.60000000E+01  1.00800000E+00
  1.00800000E+00  0.00000000E+00  1.60000000E+01  1.00800000E+00  1.00800000E+00
  0.00000000E+00  1.60000000E+01  1.00800000E+00  1.00800000E+00  0.00000000E+00
  1.60000000E+01  1.00800000E+00  1.00800000E+00  0.00000000E+00  1.60000000E+01
  1.00800000E+00  1.00800000E+00  0.00000000E+00  1.60000000E+01  1.00800000E+00
  1.00800000E+00  0.00000000E+00  1.60000000E+01  1.00800000E+00  1.00800000E+00
  0.00000000E+00  1.60000000E+01  1.00800000E+00  1.00800000E+00  0.00000000E+00
  1.60000000E+01  1.00800000E+00  1.00800000E+00  0.00000000E+00  1.60000000E+01
  1.00800000E+00  1.00800000E+00  0.00000000E+00  1.60000000E+01  1.00800000E+00
  1.00800000E+00  0.00000000E+00  1.60000000E+01  1.00800000E+00  1.00800000E+00
  0.00000000E+00  1.60000000E+01  1.00800000E+00  1.00800000E+00  0.00000000E+00
  1.60000000E+01  1.00800000E+00  1.00800000E+00  0.00000000E+00  1.60000000E+01
  1.00800000E+00  1.00800000E+00  0.00000000E+00  1.60000000E+01  1.00800000E+00
  1.00800000E+00  0.00000000E+00  1.60000000E+01  1.00800000E+00  1.00800000E+00
  0.00000000E+00  1.60000000E+01  1.00800000E+00  1.00800000E+00  0.00000000E+00
  1.60000000E+01  1.00800000E+00  1.00800000E+00  0.00000000E+00  1.60000000E+01
  1.00800000E+00  1.00800000E+00  0.00000000E+00  1.60000000E+01  1.00800000E+00
  1.00800000E+00  0.00000000E+00  1.60000000E+01  1.00800000E+00  1.00800000E+00
  0.00000000E+00  1.60000000E+01  1.00800000E+00  1.00800000E+00  0.00000000E+00
  1.60000000E+01  1.00800000E+00  1.00800000E+00  0.00000000E+00  1.60000000E+01
  1.00800000E+00  1.00800000E+00  0.00000000E+00  1.60000000E+01  1.00800000E+00
  1.00800000E+00  0.00000000E+00  1.60000000E+01  1.00800000E+00  1.00800000E+00
  0.00000000E+00  1.60000000E+01  1.00800000E+00  1.00800000E+00  0.00000000E+00
  1.60000000E+01  1.00800000E+00  1.00800000E+00  0.00000000E+00  1.60000000E+01
  1.00800000E+00  1.00800000E+00  0.00000000E+00  1.60000000E+01  1.00800000E+00
  1.00800000E+00  0.00000000E+00  1.60000000E+01  1.00800000E+00  1.00800000E+00
  0.00000000E+00  1.60000000E+01  1.00800000E+00  1.00800000E+00  0.00000000E+00
  1.60000000E+01  1.00800000E+00  1.00800000E+00  0.00000000E+00  1.60000000E+01
  1.00800000E+00  1.00800000E+00  0.00000000E+00  1.60000000E+01  1.00800000E+00
  1.00800000E+00  0.00000000E+00  1.60000000E+01  1.00800000E+00  1.00800000E+00
  0.00000000E+00  1.60000000E+01  1.00800000E+00  1.00800000E+00  0.00000000E+00
  1.60000000E+01  1.00800000E+00  1.00800000E+00  0.00000000E+00  1.60000000E+01
  1.00800000E+00  1.00800000E+00  0.00000000E+00  1.60000000E+01  1.00800000E+00
  1.00800000E+00  0.00000000E+00  1.60000000E+01  1.00800000E+00  1.00800000E+00
  0.00000000E+00  1.60000000E+01  1.00800000E+00  1.00800000E+00  0.00000000E+00
  1.60000000E+01  1.00800000E+00  1.00800000E+00  0.00000000E+00  1.60000000E+01
  1.00800000E+00  1.00800000E+00  0.00000000E+00  1.60000000E+01  1.00800000E+00
  1.00800000E+00  0.00000000E+00  1.60000000E+01  1.00800000E+00  1.00800000E+00
  0.00000000E+00  1.60000000E+01  1.00800000E+00  1.00800000E+00  0.00000000E+00
  1.60000000E+01  1.00800000E+00  1.00800000E+00  0.00000000E+00  1.60000000E+01
  1.00800000E+00  1.00800000E+00  0.00000000E+00  1.60000000E+01  1.00800000E+00
  1.00800000E+00  0.00000000E+00  1.60000000E+01  1.00800000E+00  1.00800000E+00
  0.00000000E+00  1.60000000E+01  1.00800000E+00  1.00800000E+00  0.00000000E+00
  1.60000000E+01  1.00800000E+00  1.00800000E+00  0.00000000E+00  1.60000000E+01
  1.00800000E+00  1.00800000E+00  0.00000000E+00  1.60000000E+01  1.00800000E+00
  1.00800000E+00  0.00000000E+00  1.60000000E+01  1.00800000E+00  1.00800000E+00
  0.00000000E+00  1.60000000E+01  1.00800000E+00  1.00800000E+00  0.00000000E+00
  1.60000000E+01  1.00800000E+00  1.00800000E+00  0.00000000E+00  1.60000000E+01
  1.00800000E+00  1.00800000E+00  0.00000000E+00  1.60000000E+01  1.00800000E+00
  1.00800000E+00  0.00000000E+00  1.60000000E+01  1.00800000E+00  1.00800000E+00
  0.00000000E+00  1.60000000E+01  1.00800000E+00  1.00800000E+00  0.00000000E+00
  1.60000000E+01  1.00800000E+00  1.00800000E+00  0.00000000E+00  1.60000000E+01
  1.00800000E+00  1.00800000E+00  0.00000000E+00  1.60000000E+01  1.00800000E+00
  1.00800000E+00  0.00000000E+00  1.60000000E+01  1.00800000E+00  1.00800000E+00
  0.00000000E+00  1.60000000E+01  1.00800000E+00  1.00800000E+00  0.00000000E+00
  1.60000000E+01  1.00800000E+00  1.00800000E+00  0.00000000E+00  1.60000000E+01
  1.00800000E+00  1.00800000E+00  0.00000000E+00  1.60000000E+01  1.00800000E+00
  1.00800000E+00  0.00000000E+00  1.60000000E+01  1.00800000E+00  1.00800000E+00
  0.00000000E+00  1.60000000E+01  1.00800000E+00  1.00800000E+00  0.00000000E+00
  1.60000000E+01  1.00800000E+00  1.00800000E+00  0.00000000E+00  1.60000000E+01
  1.00800000E+00  1.00800000E+00  0.00000000E+00  1.60000000E+01  1.00800000E+00
  1.00800000E+00  0.00000000E+00  1.60000000E+01  1.00800000E+00  1.00800000E+00
  0.00000000E+00  1.60000000E+01  1.00800000E+00  1.00800000E+00  0.00000000E+00
  1.60000000E+01  1.00800000E+00  1.00800000E+00  0.00000000E+00  1.60000000E+01
  1.00800000E+00  1.00800000E+00  0.00000000E+00  1.60000000E+01  1.00800000E+00
  1.00800000E+00  0.00000000E+00  1.60000000E+01  1.00800000E+00  1.00800000E+00
  0.00000000E+00  1.60000000E+01  1.00800000E+00  1.00800000E+00  0.00000000E+00
  1.60000000E+01  1.00800000E+00  1.00800000E+00  0.00000000E+00  1.60000000E+01
  1.00800000E+00  1.00800000E+00  0.00000000E+00  1.60000000E+01  1.00800000E+00
  1.00800000E+00  0.00000000E+00  1.60000000E+01  1.00800000E+00  1.00800000E+00
  0.00000000E+00  1.60000000E+01  1.00800000E+00  1.00800000E+00  0.00000000E+00
  1.60000000E+01  1.00800000E+00  1.00800000E+00  0.00000000E+00  1.60000000E+01
  1.00800000E+00  1.00800000E+00  0.00000000E+00  1.60000000E+01  1.00800000E+00
  1.00800000E+00  0.00000000E+00  1.60000000E+01  1.00800000E+00  1.00800000E+00
  0.00000000E+00  1.60000000E+01  1.00800000E+00  1.00800000E+00  0.00000000E+00
  1.60000000E+01  1.00800000E+00  1.00800000E+00  0.00000000E+00  1.60000000E+01
  1.00800000E+00  1.00800000E+00  0.00000000E+00  1.60000000E+01  1.00800000E+00
  1.00800000E+00  0.00000000E+00  1.60000000E+01  1.00800000E+00  1.00800000E+00
  0.00000000E+00  1.60000000E+01  1.00800000E+00  1.00800000E+00  0.00000000E+00
  1.60000000E+01  1.00800000E+00  1.00800000E+00  0.00000000E+00  1.60000000E+01
  1.00800000E+00  1.00800000E+00  0.00000000E+00  1.60000000E+01  1.00800000E+00
  1.00800000E+00  0.00000000E+00  1.60000000E+01  1.00800000E+00  1.00800000E+00
  0.00000000E+00  1.60000000E+01  1.00800000E+00  1.00800000E+00  0.00000000E+00
  1.60000000E+01  1.00800000E+00  1.00800000E+00  0.00000000E+00  1.60000000E+01
  1.00800000E+00  1.00800000E+00  0.00000000E+00  1.60000000E+01  1.00800000E+00
  1.00800000E+00  0.00000000E+00  1.60000000E+01  1.00800000E+00  1.00800000E+00
  0.00000000E+00  1.60000000E+01  1.00800000E+00  1.00800000E+00  0.00000000E+00
  1.60000000E+01  1.00800000E+00  1.00800000E+00  0.00000000E+00  1.60000000E+01
  1.00800000E+00  1.00800000E+00  0.00000000E+00  1.60000000E+01  1.00800000E+00
  1.00800000E+00  0.00000000E+00  1.60000000E+01  1.00800000E+00  1.00800000E+00
  0.00000000E+00  1.60000000E+01  1.00800000E+00  1.00800000E+00  0.00000000E+00
  1.60000000E+01  1.00800000E+00  1.00800000E+00  0.00000000E+00  1.60000000E+01
  1.00800000E+00  1.00800000E+00  0.00000000E+00  1.60000000E+01  1.00800000E+00
  1.00800000E+00  0.00000000E+00  1.60000000E+01  1.00800000E+00  1.00800000E+00
  0.00000000E+00  1.60000000E+01  1.00800000E+00  1.00800000E+00  0.00000000E+00
  1.60000000E+01  1.00800000E+00  1.00800000E+00  0.00000000E+00  1.60000000E+01
  1.00800000E+00  1.00800000E+00  0.00000000E+00  1.60000000E+01  1.00800000E+00
  1.00800000E+00  0.00000000E+00  1.60000000E+01  1.00800000E+00  1.00800000E+00
  0.00000000E+00  1.60000000E+01  1.00800000E+00  1.00800000E+00  0.00000000E+00
  1.60000000E+01  1.00800000E+00  1.00800000E+00  0.00000000E+00  1.60000000E+01
  1.00800000E+00  1.00800000E+00  0.00000000E+00  1.60000000E+01  1.00800000E+00
  1.00800000E+00  0.00000000E+00  1.60000000E+01  1.00800000E+00  1.00800000E+00
  0.00000000E+00  1.60000000E+01  1.00800000E+00  1.00800000E+00  0.00000000E+00
  1.60000000E+01  1.00800000E+00  1.00800000E+00  0.00000000E+00  1.60000000E+01
  1.00800000E+00  1.00800000E+00  0.00000000E+00  1.60000000E+01  1.00800000E+00
  1.00800000E+00  0.00000000E+00  1.60000000E+01  1.00800000E+00  1.00800000E+00
  0.00000000E+00  1.60000000E+01  1.00800000E+00  1.00800000E+00  0.00000000E+00
  1.60000000E+01  1.00800000E+00  1.00800000E+00  0.00000000E+00  1.60000000E+01
  1.00800000E+00  1.00800000E+00  0.00000000E+00  1.60000000E+01  1.00800000E+00
  1.00800000E+00  0.00000000E+00  1.60000000E+01  1.00800000E+00  1.00800000E+00
  0.00000000E+00  1.60000000E+01  1.00800000E+00  1.00800000E+00  0.00000000E+00
  1.60000000E+01  1.00800000E+00  1.00800000E+00  0.00000000E+00  1.60000000E+01
  1.00800000E+00  1.00800000E+00  0.00000000E+00  1.60000000E+01  1.00800000E+00
  1.00800000E+00  0.00000000E+00  1.60000000E+01  1.00800000E+00  1.00800000E+00
  0.00000000E+00  1.60000000E+01  1.00800000E+00  1.00800000E+00  0.00000000E+00
  1.60000000E+01  1.00800000E+00  1.00800000E+00  0.00000000E+00  1.60000000E+01
  1.00800000E+00  1.00800000E+00  0.00000000E+00  1.60000000E+01  1.00800000E+00
  1.00800000E+00  0.00000000E+00  1.60000000E+01  1.00800000E+00  1.00800000E+00
  0.00000000E+00  1.60000000E+01  1.00800000E+00  1.00800000E+00  0.00000000E+00
  1.60000000E+01  1.00800000E+00  1.00800000E+00  0.00000000E+00  1.60000000E+01
  1.00800000E+00  1.00800000E+00  0.00000000E+00  1.60000000E+01  1.00800000E+00
  1.00800000E+00  0.00000000E+00  1.60000000E+01  1.00800000E+00  1.00800000E+00
  0.00000000E+00  1.60000000E+01  1.00800000E+00  1.00800000E+00  0.00000000E+00
  1.60000000E+01  1.00800000E+00  1.00800000E+00  0.00000000E+00  1.60000000E+01
  1.00800000E+00  1.00800000E+00  0.00000000E+00  1.60000000E+01  1.00800000E+00
  1.00800000E+00  0.00000000E+00  1.60000000E+01  1.00800000E+00  1.00800000E+00
  0.00000000E+00  1.60000000E+01  1.00800000E+00  1.00800000E+00  0.00000000E+00
  1.60000000E+01  1.00800000E+00  1.00800000E+00  0.00000000E+00  1.60000000E+01
  1.00800000E+00  1.00800000E+00  0.00000000E+00  1.60000000E+01  1.00800000E+00
  1.00800000E+00  0.00000000E+00  1.60000000E+01  1.00800000E+00  1.00800000E+00
  0.00000000E+00  1.60000000E+01  1.00800000E+00  1.00800000E+00  0.00000000E+00
  1.60000000E+01  1.00800000E+00  1.00800000E+00  0.00000000E+00  1.60000000E+01
  1.00800000E+00  1.00800000E+00  0.00000000E+00  1.60000000E+01  1.00800000E+00
  1.00800000E+00  0.00000000E+00  1.60000000E+01  1.00800000E+00  1.00800000E+00
  0.00000000E+00  1.60000000E+01  1.00800000E+00  1.00800000E+00  0.00000000E+00
  1.60000000E+01  1.00800000E+00  1.00800000E+00  0.00000000E+00  1.60000000E+01
  1.00800000E+00  1.00800000E+00  0.00000000E+00  1.60000000E+01  1.00800000E+00
  1.00800000E+00  0.00000000E+00  1.60000000E+01  1.00800000E+00  1.00800000E+00
  0.00000000E+00  1.60000000E+01  1.00800000E+00  1.00800000E+00  0.00000000E+00
  1.60000000E+01  1.00800000E+00  1.00800000E+00  0.00000000E+00  1.60000000E+01
  1.00800000E+00  1.00800000E+00  0.00000000E+00  1.60000000E+01  1.00800000E+00
  1.00800000E+00  0.00000000E+00  1.60000000E+01  1.00800000E+00  1.00800000E+00
  0.00000000E+00  1.60000000E+01  1.00800000E+00  1.00800000E+00  0.00000000E+00
  1.60000000E+01  1.00800000E+00  1.00800000E+00  0.00000000E+00  1.60000000E+01
  1.00800000E+00  1.00800000E+00  0.00000000E+00  1.60000000E+01  1.00800000E+00
  1.00800000E+00  0.00000000E+00  1.60000000E+01  1.00800000E+00  1.00800000E+00
  0.00000000E+00  1.60000000E+01  1.00800000E+00  1.00800000E+00  0.00000000E+00
  1.60000000E+01  1.00800000E+00  1.00800000E+00  0.00000000E+00  1.60000000E+01
  1.00800000E+00  1.00800000E+00  0.00000000E+00  1.60000000E+01  1.00800000E+00
  1.00800000E+00  0.00000000E+00  1.60000000E+01  1.00800000E+00  1.00800000E+00
  0.00000000E+00  1.60000000E+01  1.00800000E+00  1.00800000E+00  0.00000000E+00
  1.60000000E+01  1.00800000E+00  1.00800000E+00  0.00000000E+00  1.60000000E+01
  1.00800000E+00  1.00800000E+00  0.00000000E+00  1.60000000E+01  1.00800000E+00
  1.00800000E+00  0.00000000E+00  1.60000000E+01  1.00800000E+00  1.00800000E+00
  0.00000000E+00  1.60000000E+01  1.00800000E+00  1.00800000E+00  0.00000000E+00
  1.60000000E+01  1.00800000E+00  1.00800000E+00  0.00000000E+00  1.60000000E+01
  1.00800000E+00  1.00800000E+00  0.00000000E+00  1.60000000E+01  1.00800000E+00
  1.00800000E+00  0.00000000E+00  1.60000000E+01  1.00800000E+00  1.00800000E+00
  0.00000000E+00  1.60000000E+01  1.00800000E+00  1.00800000E+00  0.00000000E+00
  1.60000000E+01  1.00800000E+00  1.00800000E+00  0.00000000E+00  1.60000000E+01
  1.00800000E+00  1.00800000E+00  0.00000000E+00  1.60000000E+01  1.00800000E+00
  1.00800000E+00  0.00000000E+00  1.60000000E+01  1.00800000E+00  1.00800000E+00
  0.00000000E+00  1.60000000E+01  1.00800000E+00  1.00800000E+00  0.00000000E+00
  1.60000000E+01  1.00800000E+00  1.00800000E+00  0.00000000E+00  1.60000000E+01
  1.00800000E+00  1.00800000E+00  0.00000000E+00  1.60000000E+01  1.00800000E+00
  1.00800000E+00  0.00000000E+00  1.60000000E+01  1.00800000E+00  1.00800000E+00
  0.00000000E+00  1.60000000E+01  1.00800000E+00  1.00800000E+00  0.00000000E+00
  1.60000000E+01  1.00800000E+00  1.00800000E+00  0.00000000E+00  1.60000000E+01
  1.00800000E+00  1.00800000E+00  0.00000000E+00  1.60000000E+01  1.00800000E+00
  1.00800000E+00  0.00000000E+00  1.60000000E+01  1.00800000E+00  1.00800000E+00
  0.00000000E+00  1.60000000E+01  1.00800000E+00  1.00800000E+00  0.00000000E+00
  1.60000000E+01  1.00800000E+00  1.00800000E+00  0.00000000E+00  1.60000000E+01
  1.00800000E+00  1.00800000E+00  0.00000000E+00  1.60000000E+01  1.00800000E+00
  1.00800000E+00  0.00000000E+00  1.60000000E+01  1.00800000E+00  1.00800000E+00
  0.00000000E+00  1.60000000E+01  1.00800000E+00  1.00800000E+00  0.00000000E+00
  1.60000000E+01  1.00800000E+00  1.00800000E+00  0.00000000E+00  1.60000000E+01
  1.00800000E+00  1.00800000E+00  0.00000000E+00  1.60000000E+01  1.00800000E+00
  1.00800000E+00  0.00000000E+00  1.60000000E+01  1.00800000E+00  1.00800000E+00
  0.00000000E+00  1.60000000E+01  1.00800000E+00  1.00800000E+00  0.00000000E+00
  1.60000000E+01  1.00800000E+00  1.00800000E+00  0.00000000E+00  1.60000000E+01
  1.00800000E+00  1.00800000E+00  0.00000000E+00  1.60000000E+01  1.00800000E+00
  1.00800000E+00  0.00000000E+00  1.60000000E+01  1.00800000E+00  1.00800000E+00
  0.00000000E+00  1.60000000E+01  1.00800000E+00  1.00800000E+00  0.00000000E+00
  1.60000000E+01  1.00800000E+00  1.00800000E+00  0.00000000E+00  1.60000000E+01
  1.00800000E+00  1.00800000E+00  0.00000000E+00  1.60000000E+01  1.00800000E+00
  1.00800000E+00  0.00000000E+00  1.60000000E+01  1.00800000E+00  1.00800000E+00
  0.00000000E+00  1.60000000E+01  1.00800000E+00  1.00800000E+00  0.00000000E+00
  1.60000000E+01  1.00800000E+00  1.00800000E+00  0.00000000E+00  1.60000000E+01
  1.00800000E+00  1.00800000E+00  0.00000000E+00  1.60000000E+01  1.00800000E+00
  1.00800000E+00  0.00000000E+00  1.60000000E+01  1.00800000E+00  1.00800000E+00
  0.00000000E+00  1.60000000E+01  1.00800000E+00  1.00800000E+00  0.00000000E+00
  1.60000000E+01  1.00800000E+00  1.00800000E+00  0.00000000E+00  1.60000000E+01
  1.00800000E+00  1.00800000E+00  0.00000000E+00  1.60000000E+01  1.00800000E+00
  1.00800000E+00  0.00000000E+00  1.60000000E+01  1.00800000E+00  1.00800000E+00
  0.00000000E+00  1.60000000E+01  1.00800000E+00  1.00800000E+00  0.00000000E+00
  1.60000000E+01  1.00800000E+00  1.00800000E+00  0.00000000E+00  1.60000000E+01
  1.00800000E+00  1.00800000E+00  0.00000000E+00  1.60000000E+01  1.00800000E+00
  1.00800000E+00  0.00000000E+00  1.60000000E+01  1.00800000E+00  1.00800000E+00
  0.00000000E+00  1.60000000E+01  1.00800000E+00  1.00800000E+00  0.00000000E+00
  1.60000000E+01  1.00800000E+00  1.00800000E+00  0.00000000E+00  1.60000000E+01
  1.00800000E+00  1.00800000E+00  0.00000000E+00  1.60000000E+01  1.00800000E+00
  1.00800000E+00  0.00000000E+00  1.60000000E+01  1.00800000E+00  1.00800000E+00
  0.00000000E+00  1.60000000E+01  1.00800000E+00  1.00800000E+00  0.00000000E+00
  1.60000000E+01  1.00800000E+00  1.00800000E+00  0.00000000E+00  1.60000000E+01
  1.00800000E+00  1.00800000E+00  0.00000000E+00  1.60000000E+01  1.00800000E+00
  1.00800000E+00  0.00000000E+00  1.60000000E+01  1.00800000E+00  1.00800000E+00
  0.00000000E+00  1.60000000E+01  1.00800000E+00  1.00800000E+00  0.00000000E+00
  1.60000000E+01  1.00800000E+00  1.00800000E+00  0.00000000E+00  1.60000000E+01
  1.00800000E+00  1.00800000E+00  0.00000000E+00  1.60000000E+01  1.00800000E+00
  1.00800000E+00  0.00000000E+00  1.60000000E+01  1.00800000E+00  1.00800000E+00
  0.00000000E+00  1.60000000E+01  1.00800000E+00  1.00800000E+00  0.00000000E+00
  1.60000000E+01  1.00800000E+00  1.00800000E+00  0.00000000E+00  1.60000000E+01
  1.00800000E+00  1.00800000E+00  0.00000000E+00  1.60000000E+01  1.00800000E+00
  1.00800000E+00  0.00000000E+00  1.60000000E+01  1.00800000E+00  1.00800000E+00
  0.00000000E+00  1.60000000E+01  1.00800000E+00  1.00800000E+00  0.00000000E+00
  1.60000000E+01  1.00800000E+00  1.00800000E+00  0.00000000E+00  1.60000000E+01
  1.00800000E+00  1.00800000E+00  0.00000000E+00  1.60000000E+01  1.00800000E+00
  1.00800000E+00  0.00000000E+00  1.60000000E+01  1.00800000E+00  1.00800000E+00
  0.00000000E+00  1.60000000E+01  1.00800000E+00  1.00800000E+00  0.00000000E+00
  1.60000000E+01  1.00800000E+00  1.00800000E+00  0.00000000E+00  1.60000000E+01
  1.00800000E+00  1.00800000E+00  0.00000000E+00  1.60000000E+01  1.00800000E+00
  1.00800000E+00  0.00000000E+00  1.60000000E+01  1.00800000E+00  1.00800000E+00
  0.00000000E+00  1.60000000E+01  1.00800000E+00  1.00800000E+00  0.00000000E+00
  1.60000000E+01  1.00800000E+00  1.00800000E+00  0.00000000E+00  1.60000000E+01
  1.00800000E+00  1.00800000E+00  0.00000000E+00  1.60000000E+01  1.00800000E+00
  1.00800000E+00  0.00000000E+00  1.60000000E+01  1.00800000E+00  1.00800000E+00
  0.00000000E+00  1.60000000E+01  1.00800000E+00  1.00800000E+00  0.00000000E+00
  1.60000000E+01  1.00800000E+00  1.00800000E+00  0.00000000E+00  1.60000000E+01
  1.00800000E+00  1.00800000E+00  0.00000000E+00  1.60000000E+01  1.00800000E+00
  1.00800000E+00  0.00000000E+00  1.60000000E+01  1.00800000E+00  1.00800000E+00
  0.00000000E+00  1.60000000E+01  1.00800000E+00  1.00800000E+00  0.00000000E+00
  1.60000000E+01  1.00800000E+00  1.00800000E+00  0.00000000E+00  1.60000000E+01
  1.00800000E+00  1.00800000E+00  0.00000000E+00  1.60000000E+01  1.00800000E+00
  1.00800000E+00  0.00000000E+00  1.60000000E+01  1.00800000E+00  1.00800000E+00
  0.00000000E+00  1.60000000E+01  1.00800000E+00  1.00800000E+00  0.00000000E+00
  1.60000000E+01  1.00800000E+00  1.00800000E+00  0.00000000E+00  1.60000000E+01
  1.00800000E+00  1.00800000E+00  0.00000000E+00  1.60000000E+01  1.00800000E+00
  1.00800000E+00  0.00000000E+00  1.60000000E+01  1.00800000E+00  1.00800000E+00
  0.00000000E+00  1.60000000E+01  1.00800000E+00  1.00800000E+00  0.00000000E+00
  1.60000000E+01  1.00800000E+00  1.00800000E+00  0.00000000E+00  1.60000000E+01
  1.00800000E+00  1.00800000E+00  0.00000000E+00  1.60000000E+01  1.00800000E+00
  1.00800000E+00  0.00000000E+00  1.60000000E+01  1.00800000E+00  1.00800000E+00
  0.00000000E+00  1.60000000E+01  1.00800000E+00  1.00800000E+00  0.00000000E+00
  1.60000000E+01  1.00800000E+00  1.00800000E+00  0.00000000E+00  1.60000000E+01
  1.00800000E+00  1.00800000E+00  0.00000000E+00  1.60000000E+01  1.00800000E+00
  1.00800000E+00  0.00000000E+00  1.60000000E+01  1.00800000E+00  1.00800000E+00
  0.00000000E+00  1.60000000E+01  1.00800000E+00  1.00800000E+00  0.00000000E+00
  1.60000000E+01  1.00800000E+00  1.00800000E+00  0.00000000E+00  1.60000000E+01
  1.00800000E+00  1.00800000E+00  0.00000000E+00  1.60000000E+01  1.00800000E+00
  1.00800000E+00  0.00000000E+00  1.60000000E+01  1.00800000E+00  1.00800000E+00
  0.00000000E+00  1.60000000E+01  1.00800000E+00  1.00800000E+00  0.00000000E+00
  1.60000000E+01  1.00800000E+00  1.00800000E+00  0.00000000E+00  1.60000000E+01
  1.00800000E+00  1.00800000E+00  0.00000000E+00  1.60000000E+01  1.00800000E+00
  1.00800000E+00  0.00000000E+00  1.60000000E+01  1.00800000E+00  1.00800000E+00
  0.00000000E+00  1.60000000E+01  1.00800000E+00  1.00800000E+00  0.00000000E+00
  1.60000000E+01  1.00800000E+00  1.00800000E+00  0.00000000E+00  1.60000000E+01
  1.00800000E+00  1.00800000E+00  0.00000000E+00  1.60000000E+01  1.00800000E+00
  1.00800000E+00  0.00000000E+00  1.60000000E+01  1.00800000E+00  1.00800000E+00
  0.00000000E+00  1.60000000E+01  1.00800000E+00  1.00800000E+00  0.00000000E+00
  1.60000000E+01  1.00800000E+00  1.00800000E+00  0.00000000E+00  1.60000000E+01
  1.00800000E+00  1.00800000E+00  0.00000000E+00  1.60000000E+01  1.00800000E+00
  1.00800000E+00  0.00000000E+00  1.60000000E+01  1.00800000E+00  1.00800000E+00
  0.00000000E+00  1.60000000E+01  1.00800000E+00  1.00800000E+00  0.00000000E+00
  1.60000000E+01  1.00800000E+00  1.00800000E+00  0.00000000E+00  1.60000000E+01
  1.00800000E+00  1.00800000E+00  0.00000000E+00  1.60000000E+01  1.00800000E+00
  1.00800000E+00  0.00000000E+00  1.60000000E+01  1.00800000E+00  1.00800000E+00
  0.00000000E+00  1.60000000E+01  1.00800000E+00  1.00800000E+00  0.00000000E+00
  1.60000000E+01  1.00800000E+00  1.00800000E+00  0.00000000E+00  1.60000000E+01
  1.00800000E+00  1.00800000E+00  0.00000000E+00  1.60000000E+01  1.00800000E+00
  1.00800000E+00  0.00000000E+00  1.60000000E+01  1.00800000E+00  1.00800000E+00
  0.00000000E+00  1.60000000E+01  1.00800000E+00  1.00800000E+00  0.00000000E+00
  1.60000000E+01  1.00800000E+00  1.00800000E+00  0.00000000E+00  1.60000000E+01
  1.00800000E+00  1.00800000E+00  0.00000000E+00  1.60000000E+01  1.00800000E+00
  1.00800000E+00  0.00000000E+00  1.60000000E+01  1.00800000E+00  1.00800000E+00
  0.00000000E+00  1.60000000E+01  1.00800000E+00  1.00800000E+00  0.00000000E+00
  1.60000000E+01  1.00800000E+00  1.00800000E+00  0.00000000E+00  1.60000000E+01
  1.00800000E+00  1.00800000E+00  0.00000000E+00  1.60000000E+01  1.00800000E+00
  1.00800000E+00  0.00000000E+00  1.60000000E+01  1.00800000E+00  1.00800000E+00
  0.00000000E+00  1.60000000E+01  1.00800000E+00  1.00800000E+00  0.00000000E+00
  1.60000000E+01  1.00800000E+00  1.00800000E+00  0.00000000E+00  1.60000000E+01
  1.00800000E+00  1.00800000E+00  0.00000000E+00  1.60000000E+01  1.00800000E+00
  1.00800000E+00  0.00000000E+00  1.60000000E+01  1.00800000E+00  1.00800000E+00
  0.00000000E+00  1.60000000E+01  1.00800000E+00  1.00800000E+00  0.00000000E+00
  1.60000000E+01  1.00800000E+00  1.00800000E+00  0.00000000E+00  1.60000000E+01
  1.00800000E+00  1.00800000E+00  0.00000000E+00  1.60000000E+01  1.00800000E+00
  1.00800000E+00  0.00000000E+00  1.60000000E+01  1.00800000E+00  1.00800000E+00
  0.00000000E+00  1.60000000E+01  1.00800000E+00  1.00800000E+00  0.00000000E+00
  1.60000000E+01  1.00800000E+00  1.00800000E+00  0.00000000E+00  1.60000000E+01
  1.00800000E+00  1.00800000E+00  0.00000000E+00  1.60000000E+01  1.00800000E+00
  1.00800000E+00  0.00000000E+00  1.60000000E+01  1.00800000E+00  1.00800000E+00
  0.00000000E+00  1.60000000E+01  1.00800000E+00  1.00800000E+00  0.00000000E+00
  1.60000000E+01  1.00800000E+00  1.00800000E+00  0.00000000E+00  1.60000000E+01
  1.00800000E+00  1.00800000E+00  0.00000000E+00  1.60000000E+01  1.00800000E+00
  1.00800000E+00  0.00000000E+00  1.60000000E+01  1.00800000E+00  1.00800000E+00
  0.00000000E+00  1.60000000E+01  1.00800000E+00  1.00800000E+00  0.00000000E+00
  1.60000000E+01  1.00800000E+00  1.00800000E+00  0.00000000E+00  1.60000000E+01
  1.00800000E+00  1.00800000E+00  0.00000000E+00  1.60000000E+01  1.00800000E+00
  1.00800000E+00  0.00000000E+00  1.60000000E+01  1.00800000E+00  1.00800000E+00
  0.00000000E+00  1.60000000E+01  1.00800000E+00  1.00800000E+00  0.00000000E+00
  1.60000000E+01  1.00800000E+00  1.00800000E+00  0.00000000E+00  1.60000000E+01
  1.00800000E+00  1.00800000E+00  0.00000000E+00  1.60000000E+01  1.00800000E+00
  1.00800000E+00  0.00000000E+00  1.60000000E+01  1.00800000E+00  1.00800000E+00
  0.00000000E+00  1.60000000E+01  1.00800000E+00  1.00800000E+00  0.00000000E+00
  1.60000000E+01  1.00800000E+00  1.00800000E+00  0.00000000E+00  1.60000000E+01
  1.00800000E+00  1.00800000E+00  0.00000000E+00  1.60000000E+01  1.00800000E+00
  1.00800000E+00  0.00000000E+00  1.60000000E+01  1.00800000E+00  1.00800000E+00
  0.00000000E+00  1.60000000E+01  1.00800000E+00  1.00800000E+00  0.00000000E+00
  1.60000000E+01  1.00800000E+00  1.00800000E+00  0.00000000E+00  1.60000000E+01
  1.00800000E+00  1.00800000E+00  0.00000000E+00  1.60000000E+01  1.00800000E+00
  1.00800000E+00  0.00000000E+00  1.60000000E+01  1.00800000E+00  1.00800000E+00
  0.00000000E+00  1.60000000E+01  1.00800000E+00  1.00800000E+00  0.00000000E+00
  1.60000000E+01  1.00800000E+00  1.00800000E+00  0.00000000E+00  1.60000000E+01
  1.00800000E+00  1.00800000E+00  0.00000000E+00  1.60000000E+01  1.00800000E+00
  1.00800000E+00  0.00000000E+00  1.60000000E+01  1.00800000E+00  1.00800000E+00
  0.00000000E+00  1.60000000E+01  1.00800000E+00  1.00800000E+00  0.00000000E+00
  1.60000000E+01  1.00800000E+00  1.00800000E+00  0.00000000E+00  1.60000000E+01
  1.00800000E+00  1.00800000E+00  0.00000000E+00  1.60000000E+01  1.00800000E+00
  1.00800000E+00  0.00000000E+00  1.60000000E+01  1.00800000E+00  1.00800000E+00
  0.00000000E+00  1.60000000E+01  1.00800000E+00  1.00800000E+00  0.00000000E+00
  1.60000000E+01  1.00800000E+00  1.00800000E+00  0.00000000E+00  1.60000000E+01
  1.00800000E+00  1.00800000E+00  0.00000000E+00  1.60000000E+01  1.00800000E+00
  1.00800000E+00  0.00000000E+00  1.60000000E+01  1.00800000E+00  1.00800000E+00
  0.00000000E+00  1.60000000E+01  1.00800000E+00  1.00800000E+00  0.00000000E+00
  1.60000000E+01  1.00800000E+00  1.00800000E+00  0.00000000E+00  1.60000000E+01
  1.00800000E+00  1.00800000E+00  0.00000000E+00  1.60000000E+01  1.00800000E+00
  1.00800000E+00  0.00000000E+00  1.60000000E+01  1.00800000E+00  1.00800000E+00
  0.00000000E+00  1.60000000E+01  1.00800000E+00  1.00800000E+00  0.00000000E+00
  1.60000000E+01  1.00800000E+00  1.00800000E+00  0.00000000E+00  1.60000000E+01
  1.00800000E+00  1.00800000E+00  0.00000000E+00  1.60000000E+01  1.00800000E+00
  1.00800000E+00  0.00000000E+00  1.60000000E+01  1.00800000E+00  1.00800000E+00
  0.00000000E+00  1.60000000E+01  1.00800000E+00  1.00800000E+00  0.00000000E+00
  1.60000000E+01  1.00800000E+00  1.00800000E+00  0.00000000E+00  1.60000000E+01
  1.00800000E+00  1.00800000E+00  0.00000000E+00  1.60000000E+01  1.00800000E+00
  1.00800000E+00  0.00000000E+00  1.60000000E+01  1.00800000E+00  1.00800000E+00
  0.00000000E+00  1.60000000E+01  1.00800000E+00  1.00800000E+00  0.00000000E+00
  1.60000000E+01  1.00800000E+00  1.00800000E+00  0.00000000E+00  1.60000000E+01
  1.00800000E+00  1.00800000E+00  0.00000000E+00  1.60000000E+01  1.00800000E+00
  1.00800000E+00  0.00000000E+00  1.60000000E+01  1.00800000E+00  1.00800000E+00
  0.00000000E+00  1.60000000E+01  1.00800000E+00  1.00800000E+00  0.00000000E+00
  1.60000000E+01  1.00800000E+00  1.00800000E+00  0.00000000E+00  1.60000000E+01
  1.00800000E+00  1.00800000E+00  0.00000000E+00  1.60000000E+01  1.00800000E+00
  1.00800000E+00  0.00000000E+00  1.60000000E+01  1.00800000E+00  1.00800000E+00
  0.00000000E+00  1.60000000E+01  1.00800000E+00  1.00800000E+00  0.00000000E+00
  1.60000000E+01  1.00800000E+00  1.00800000E+00  0.00000000E+00  1.60000000E+01
  1.00800000E+00  1.00800000E+00  0.00000000E+00  1.60000000E+01  1.00800000E+00
  1.00800000E+00  0.00000000E+00  1.60000000E+01  1.00800000E+00  1.00800000E+00
  0.00000000E+00  1.60000000E+01  1.00800000E+00  1.00800000E+00  0.00000000E+00
  1.60000000E+01  1.00800000E+00  1.00800000E+00  0.00000000E+00  1.60000000E+01
  1.00800000E+00  1.00800000E+00  0.00000000E+00  1.60000000E+01  1.00800000E+00
  1.00800000E+00  0.00000000E+00  1.60000000E+01  1.00800000E+00  1.00800000E+00
  0.00000000E+00  1.60000000E+01  1.00800000E+00  1.00800000E+00  0.00000000E+00
  1.60000000E+01  1.00800000E+00  1.00800000E+00  0.00000000E+00  1.60000000E+01
  1.00800000E+00  1.00800000E+00  0.00000000E+00  1.60000000E+01  1.00800000E+00
  1.00800000E+00  0.00000000E+00  1.60000000E+01  1.00800000E+00  1.00800000E+00
  0.00000000E+00  1.60000000E+01  1.00800000E+00  1.00800000E+00  0.00000000E+00
  1.60000000E+01  1.00800000E+00  1.00800000E+00  0.00000000E+00  1.60000000E+01
  1.00800000E+00  1.00800000E+00  0.00000000E+00  1.60000000E+01  1.00800000E+00
  1.00800000E+00  0.00000000E+00  1.60000000E+01  1.00800000E+00  1.00800000E+00
  0.00000000E+00  1.60000000E+01  1.00800000E+00  1.00800000E+00  0.00000000E+00
  1.60000000E+01  1.00800000E+00  1.00800000E+00  0.00000000E+00  1.60000000E+01
  1.00800000E+00  1.00800000E+00  0.00000000E+00  1.60000000E+01  1.00800000E+00
  1.00800000E+00  0.00000000E+00  1.60000000E+01  1.00800000E+00  1.00800000E+00
  0.00000000E+00  1.60000000E+01  1.00800000E+00  1.00800000E+00  0.00000000E+00
  1.60000000E+01  1.00800000E+00  1.00800000E+00  0.00000000E+00  1.60000000E+01
  1.00800000E+00  1.00800000E+00  0.00000000E+00  1.60000000E+01  1.00800000E+00
  1.00800000E+00  0.00000000E+00  1.60000000E+01  1.00800000E+00  1.00800000E+00
  0.00000000E+00  1.60000000E+01  1.00800000E+00  1.00800000E+00  0.00000000E+00
  1.60000000E+01  1.00800000E+00  1.00800000E+00  0.00000000E+00  1.60000000E+01
  1.00800000E+00  1.00800000E+00  0.00000000E+00  1.60000000E+01  1.00800000E+00
  1.00800000E+00  0.00000000E+00  1.60000000E+01  1.00800000E+00  1.00800000E+00
  0.00000000E+00  1.60000000E+01  1.00800000E+00  1.00800000E+00  0.00000000E+00
  1.60000000E+01  1.00800000E+00  1.00800000E+00  0.00000000E+00  1.60000000E+01
  1.00800000E+00  1.00800000E+00  0.00000000E+00  1.60000000E+01  1.00800000E+00
  1.00800000E+00  0.00000000E+00  1.60000000E+01  1.00800000E+00  1.00800000E+00
  0.00000000E+00  1.60000000E+01  1.00800000E+00  1.00800000E+00  0.00000000E+00
  1.60000000E+01  1.00800000E+00  1.00800000E+00  0.00000000E+00  1.60000000E+01
  1.00800000E+00  1.00800000E+00  0.00000000E+00  1.60000000E+01  1.00800000E+00
  1.00800000E+00  0.00000000E+00  1.60000000E+01  1.00800000E+00  1.00800000E+00
  0.00000000E+00  1.60000000E+01  1.00800000E+00  1.00800000E+00  0.00000000E+00
  1.60000000E+01  1.00800000E+00  1.00800000E+00  0.00000000E+00  1.60000000E+01
  1.00800000E+00  1.00800000E+00  0.00000000E+00  1.60000000E+01  1.00800000E+00
  1.00800000E+00  0.00000000E+00  1.60000000E+01  1.00800000E+00  1.00800000E+00
  0.00000000E+00  1.60000000E+01  1.00800000E+00  1.00800000E+00  0.00000000E+00
  1.60000000E+01  1.00800000E+00  1.00800000E+00  0.00000000E+00  1.60000000E+01
  1.00800000E+00  1.00800000E+00  0.00000000E+00  1.60000000E+01  1.00800000E+00
  1.00800000E+00  0.00000000E+00  1.60000000E+01  1.00800000E+00  1.00800000E+00
  0.00000000E+00  1.60000000E+01  1.00800000E+00  1.00800000E+00  0.00000000E+00
  1.60000000E+01  1.00800000E+00  1.00800000E+00  0.00000000E+00  1.60000000E+01
  1.00800000E+00  1.00800000E+00  0.00000000E+00  1.60000000E+01  1.00800000E+00
  1.00800000E+00  0.00000000E+00  1.60000000E+01  1.00800000E+00  1.00800000E+00
  0.00000000E+00  1.60000000E+01  1.00800000E+00  1.00800000E+00  0.00000000E+00
  1.60000000E+01  1.00800000E+00  1.00800000E+00  0.00000000E+00  1.60000000E+01
  1.00800000E+00  1.00800000E+00  0.00000000E+00  1.60000000E+01  1.00800000E+00
  1.00800000E+00  0.00000000E+00  1.60000000E+01  1.00800000E+00  1.00800000E+00
  0.00000000E+00  1.60000000E+01  1.00800000E+00  1.00800000E+00  0.00000000E+00
  1.60000000E+01  1.00800000E+00  1.00800000E+00  0.00000000E+00  1.60000000E+01
  1.00800000E+00  1.00800000E+00  0.00000000E+00  1.60000000E+01  1.00800000E+00
  1.00800000E+00  0.00000000E+00  1.60000000E+01  1.00800000E+00  1.00800000E+00
  0.00000000E+00  1.60000000E+01  1.00800000E+00  1.00800000E+00  0.00000000E+00
  1.60000000E+01  1.00800000E+00  1.00800000E+00  0.00000000E+00  1.60000000E+01
  1.00800000E+00  1.00800000E+00  0.00000000E+00  1.60000000E+01  1.00800000E+00
  1.00800000E+00  0.00000000E+00  1.60000000E+01  1.00800000E+00  1.00800000E+00
  0.00000000E+00  1.60000000E+01  1.00800000E+00  1.00800000E+00  0.00000000E+00
  1.60000000E+01  1.00800000E+00  1.00800000E+00  0.00000000E+00  1.60000000E+01
  1.00800000E+00  1.00800000E+00  0.00000000E+00  1.60000000E+01  1.00800000E+00
  1.00800000E+00  0.00000000E+00  1.60000000E+01  1.00800000E+00  1.00800000E+00
  0.00000000E+00  1.60000000E+01  1.00800000E+00  1.00800000E+00  0.00000000E+00
  1.60000000E+01  1.00800000E+00  1.00800000E+00  0.00000000E+00  1.60000000E+01
  1.00800000E+00  1.00800000E+00  0.00000000E+00  1.60000000E+01  1.00800000E+00
  1.00800000E+00  0.00000000E+00  1.60000000E+01  1.00800000E+00  1.00800000E+00
  0.00000000E+00  1.60000000E+01  1.00800000E+00  1.00800000E+00  0.00000000E+00
  1.60000000E+01  1.00800000E+00  1.00800000E+00  0.00000000E+00  1.60000000E+01
  1.00800000E+00  1.00800000E+00  0.00000000E+00  1.60000000E+01  1.00800000E+00
  1.00800000E+00  0.00000000E+00  1.60000000E+01  1.00800000E+00  1.00800000E+00
  0.00000000E+00  1.60000000E+01  1.00800000E+00  1.00800000E+00  0.00000000E+00
  1.60000000E+01  1.00800000E+00  1.00800000E+00  0.00000000E+00  1.60000000E+01
  1.00800000E+00  1.00800000E+00  0.00000000E+00  1.60000000E+01  1.00800000E+00
  1.00800000E+00  0.00000000E+00  1.60000000E+01  1.00800000E+00  1.00800000E+00
  0.00000000E+00  1.60000000E+01  1.00800000E+00  1.00800000E+00  0.00000000E+00
  1.60000000E+01  1.00800000E+00  1.00800000E+00  0.00000000E+00  1.60000000E+01
  1.00800000E+00  1.00800000E+00  0.00000000E+00  1.60000000E+01  1.00800000E+00
  1.00800000E+00  0.00000000E+00  1.60000000E+01  1.00800000E+00  1.00800000E+00
  0.00000000E+00  1.60000000E+01  1.00800000E+00  1.00800000E+00  0.00000000E+00
  1.60000000E+01  1.00800000E+00  1.00800000E+00  0.00000000E+00  1.60000000E+01
  1.00800000E+00  1.00800000E+00  0.00000000E+00  1.60000000E+01  1.00800000E+00
  1.00800000E+00  0.00000000E+00  1.60000000E+01  1.00800000E+00  1.00800000E+00
  0.00000000E+00  1.60000000E+01  1.00800000E+00  1.00800000E+00  0.00000000E+00
  1.60000000E+01  1.00800000E+00  1.00800000E+00  0.00000000E+00  1.60000000E+01
  1.00800000E+00  1.00800000E+00  0.00000000E+00  1.60000000E+01  1.00800000E+00
  1.00800000E+00  0.00000000E+00  1.60000000E+01  1.00800000E+00  1.00800000E+00
  0.00000000E+00  1.60000000E+01  1.00800000E+00  1.00800000E+00  0.00000000E+00
  1.60000000E+01  1.00800000E+00  1.00800000E+00  0.00000000E+00  1.60000000E+01
  1.00800000E+00  1.00800000E+00  0.00000000E+00  1.60000000E+01  1.00800000E+00
  1.00800000E+00  0.00000000E+00  1.60000000E+01  1.00800000E+00  1.00800000E+00
  0.00000000E+00  1.60000000E+01  1.00800000E+00  1.00800000E+00  0.00000000E+00
  1.60000000E+01  1.00800000E+00  1.00800000E+00  0.00000000E+00  1.60000000E+01
  1.00800000E+00  1.00800000E+00  0.00000000E+00  1.60000000E+01  1.00800000E+00
  1.00800000E+00  0.00000000E+00  1.60000000E+01  1.00800000E+00  1.00800000E+00
  0.00000000E+00  1.60000000E+01  1.00800000E+00  1.00800000E+00  0.00000000E+00
  1.60000000E+01  1.00800000E+00  1.00800000E+00  0.00000000E+00  1.60000000E+01
  1.00800000E+00  1.00800000E+00  0.00000000E+00  1.60000000E+01  1.00800000E+00
  1.00800000E+00  0.00000000E+00  1.60000000E+01  1.00800000E+00  1.00800000E+00
  0.00000000E+00  1.60000000E+01  1.00800000E+00  1.00800000E+00  0.00000000E+00
  1.60000000E+01  1.00800000E+00  1.00800000E+00  0.00000000E+00  1.60000000E+01
  1.00800000E+00  1.00800000E+00  0.00000000E+00  1.60000000E+01  1.00800000E+00
  1.00800000E+00  0.00000000E+00  1.60000000E+01  1.00800000E+00  1.00800000E+00
  0.00000000E+00  1.60000000E+01  1.00800000E+00  1.00800000E+00  0.00000000E+00
  1.60000000E+01  1.00800000E+00  1.00800000E+00  0.00000000E+00  1.60000000E+01
  1.00800000E+00  1.00800000E+00  0.00000000E+00  1.60000000E+01  1.00800000E+00
  1.00800000E+00  0.00000000E+00  1.60000000E+01  1.00800000E+00  1.00800000E+00
  0.00000000E+00  1.60000000E+01  1.00800000E+00  1.00800000E+00  0.00000000E+00
  1.60000000E+01  1.00800000E+00  1.00800000E+00  0.00000000E+00  1.60000000E+01
  1.00800000E+00  1.00800000E+00  0.00000000E+00  1.60000000E+01  1.00800000E+00
  1.00800000E+00  0.00000000E+00  1.60000000E+01  1.00800000E+00  1.00800000E+00
  0.00000000E+00  1.60000000E+01  1.00800000E+00  1.00800000E+00  0.00000000E+00
  1.60000000E+01  1.00800000E+00  1.00800000E+00  0.00000000E+00  1.60000000E+01
  1.00800000E+00  1.00800000E+00  0.00000000E+00  1.60000000E+01  1.00800000E+00
  1.00800000E+00  0.00000000E+00  1.60000000E+01  1.00800000E+00  1.00800000E+00
  0.00000000E+00  1.60000000E+01  1.00800000E+00  1.00800000E+00  0.00000000E+00
  1.60000000E+01  1.00800000E+00  1.00800000E+00  0.00000000E+00  1.60000000E+01
  1.00800000E+00  1.00800000E+00  0.00000000E+00  1.60000000E+01  1.00800000E+00
  1.00800000E+00  0.00000000E+00  1.60000000E+01  1.00800000E+00  1.00800000E+00
  0.00000000E+00  1.60000000E+01  1.00800000E+00  1.00800000E+00  0.00000000E+00
  1.60000000E+01  1.00800000E+00  1.00800000E+00  0.00000000E+00  1.60000000E+01
  1.00800000E+00  1.00800000E+00  0.00000000E+00  1.60000000E+01  1.00800000E+00
  1.00800000E+00  0.00000000E+00  1.60000000E+01  1.00800000E+00  1.00800000E+00
  0.00000000E+00  1.60000000E+01  1.00800000E+00  1.00800000E+00  0.00000000E+00
  1.60000000E+01  1.00800000E+00  1.00800000E+00  0.00000000E+00  1.60000000E+01
  1.00800000E+00  1.00800000E+00  0.00000000E+00  1.60000000E+01  1.00800000E+00
  1.00800000E+00  0.00000000E+00  1.60000000E+01  1.00800000E+00  1.00800000E+00
  0.00000000E+00  1.60000000E+01  1.00800000E+00  1.00800000E+00  0.00000000E+00
  1.60000000E+01  1.00800000E+00  1.00800000E+00  0.00000000E+00  1.60000000E+01
  1.00800000E+00  1.00800000E+00  0.00000000E+00  1.60000000E+01  1.00800000E+00
  1.00800000E+00  0.00000000E+00  1.60000000E+01  1.00800000E+00  1.00800000E+00
  0.00000000E+00  1.60000000E+01  1.00800000E+00  1.00800000E+00  0.00000000E+00
  1.60000000E+01  1.00800000E+00  1.00800000E+00  0.00000000E+00  1.60000000E+01
  1.00800000E+00  1.00800000E+00  0.00000000E+00  1.60000000E+01  1.00800000E+00
  1.00800000E+00  0.00000000E+00  1.60000000E+01  1.00800000E+00  1.00800000E+00
  0.00000000E+00  1.60000000E+01  1.00800000E+00  1.00800000E+00  0.00000000E+00
  1.60000000E+01  1.00800000E+00  1.00800000E+00  0.00000000E+00  1.60000000E+01
  1.00800000E+00  1.00800000E+00  0.00000000E+00  1.60000000E+01  1.00800000E+00
  1.00800000E+00  0.00000000E+00  1.60000000E+01  1.00800000E+00  1.00800000E+00
  0.00000000E+00  1.60000000E+01  1.00800000E+00  1.00800000E+00  0.00000000E+00
  1.60000000E+01  1.00800000E+00  1.00800000E+00  0.00000000E+00  1.60000000E+01
  1.00800000E+00  1.00800000E+00  0.00000000E+00  1.60000000E+01  1.00800000E+00
  1.00800000E+00  0.00000000E+00  1.60000000E+01  1.00800000E+00  1.00800000E+00
  0.00000000E+00  1.60000000E+01  1.00800000E+00  1.00800000E+00  0.00000000E+00
  1.60000000E+01  1.00800000E+00  1.00800000E+00  0.00000000E+00  1.60000000E+01
  1.00800000E+00  1.00800000E+00  0.00000000E+00  1.60000000E+01  1.00800000E+00
  1.00800000E+00  0.00000000E+00  1.60000000E+01  1.00800000E+00  1.00800000E+00
  0.00000000E+00  1.60000000E+01  1.00800000E+00  1.00800000E+00  0.00000000E+00
  1.60000000E+01  1.00800000E+00  1.00800000E+00  0.00000000E+00  1.60000000E+01
  1.00800000E+00  1.00800000E+00  0.00000000E+00  1.60000000E+01  1.00800000E+00
  1.00800000E+00  0.00000000E+00  1.60000000E+01  1.00800000E+00  1.00800000E+00
  0.00000000E+00  1.60000000E+01  1.00800000E+00  1.00800000E+00  0.00000000E+00
  1.60000000E+01  1.00800000E+00  1.00800000E+00  0.00000000E+00  1.60000000E+01
  1.00800000E+00  1.00800000E+00  0.00000000E+00  1.60000000E+01  1.00800000E+00
  1.00800000E+00  0.00000000E+00  1.60000000E+01  1.00800000E+00  1.00800000E+00
  0.00000000E+00  1.60000000E+01  1.00800000E+00  1.00800000E+00  0.00000000E+00
  1.60000000E+01  1.00800000E+00  1.00800000E+00  0.00000000E+00  1.60000000E+01
  1.00800000E+00  1.00800000E+00  0.00000000E+00  1.60000000E+01  1.00800000E+00
  1.00800000E+00  0.00000000E+00  1.60000000E+01  1.00800000E+00  1.00800000E+00
  0.00000000E+00  1.60000000E+01  1.00800000E+00  1.00800000E+00  0.00000000E+00
  1.60000000E+01  1.00800000E+00  1.00800000E+00  0.00000000E+00  1.60000000E+01
  1.00800000E+00  1.00800000E+00  0.00000000E+00  1.60000000E+01  1.00800000E+00
  1.00800000E+00  0.00000000E+00  1.60000000E+01  1.00800000E+00  1.00800000E+00
  0.00000000E+00  1.60000000E+01  1.00800000E+00  1.00800000E+00  0.00000000E+00
  1.60000000E+01  1.00800000E+00  1.00800000E+00  0.00000000E+00  1.60000000E+01
  1.00800000E+00  1.00800000E+00  0.00000000E+00  1.60000000E+01  1.00800000E+00
  1.00800000E+00  0.00000000E+00  1.60000000E+01  1.00800000E+00  1.00800000E+00
  0.00000000E+00  1.60000000E+01  1.00800000E+00  1.00800000E+00  0.00000000E+00
  1.60000000E+01  1.00800000E+00  1.00800000E+00  0.00000000E+00  1.60000000E+01
  1.00800000E+00  1.00800000E+00  0.00000000E+00  1.60000000E+01  1.00800000E+00
  1.00800000E+00  0.00000000E+00  1.60000000E+01  1.00800000E+00  1.00800000E+00
  0.00000000E+00  1.60000000E+01  1.00800000E+00  1.00800000E+00  0.00000000E+00
  1.60000000E+01  1.00800000E+00  1.00800000E+00  0.00000000E+00  1.60000000E+01
  1.00800000E+00  1.00800000E+00  0.00000000E+00  1.60000000E+01  1.00800000E+00
  1.00800000E+00  0.00000000E+00  1.60000000E+01  1.00800000E+00  1.00800000E+00
  0.00000000E+00  1.60000000E+01  1.00800000E+00  1.00800000E+00  0.00000000E+00
  1.60000000E+01  1.00800000E+00  1.00800000E+00  0.00000000E+00  1.60000000E+01
  1.00800000E+00  1.00800000E+00  0.00000000E+00  1.60000000E+01  1.00800000E+00
  1.00800000E+00  0.00000000E+00  1.60000000E+01  1.00800000E+00  1.00800000E+00
  0.00000000E+00  1.60000000E+01  1.00800000E+00  1.00800000E+00  0.00000000E+00
  1.60000000E+01  1.00800000E+00  1.00800000E+00  0.00000000E+00  1.60000000E+01
  1.00800000E+00  1.00800000E+00  0.00000000E+00  1.60000000E+01  1.00800000E+00
  1.00800000E+00  0.00000000E+00  1.60000000E+01  1.00800000E+00  1.00800000E+00
  0.00000000E+00  1.60000000E+01  1.00800000E+00  1.00800000E+00  0.00000000E+00
  1.60000000E+01  1.00800000E+00  1.00800000E+00  0.00000000E+00  1.60000000E+01
  1.00800000E+00  1.00800000E+00  0.00000000E+00  1.60000000E+01  1.00800000E+00
  1.00800000E+00  0.00000000E+00  1.60000000E+01  1.00800000E+00  1.00800000E+00
  0.00000000E+00  1.60000000E+01  1.00800000E+00  1.00800000E+00  0.00000000E+00
  1.60000000E+01  1.00800000E+00  1.00800000E+00  0.00000000E+00  1.60000000E+01
  1.00800000E+00  1.00800000E+00  0.00000000E+00  1.60000000E+01  1.00800000E+00
  1.00800000E+00  0.00000000E+00  1.60000000E+01  1.00800000E+00  1.00800000E+00
  0.00000000E+00  1.60000000E+01  1.00800000E+00  1.00800000E+00  0.00000000E+00
  1.60000000E+01  1.00800000E+00  1.00800000E+00  0.00000000E+00  1.60000000E+01
  1.00800000E+00  1.00800000E+00  0.00000000E+00  1.60000000E+01  1.00800000E+00
  1.00800000E+00  0.00000000E+00  1.60000000E+01  1.00800000E+00  1.00800000E+00
  0.00000000E+00  1.60000000E+01  1.00800000E+00  1.00800000E+00  0.00000000E+00
  1.60000000E+01  1.00800000E+00  1.00800000E+00  0.00000000E+00  1.60000000E+01
  1.00800000E+00  1.00800000E+00  0.00000000E+00  1.60000000E+01  1.00800000E+00
  1.00800000E+00  0.00000000E+00  1.60000000E+01  1.00800000E+00  1.00800000E+00
  0.00000000E+00  1.60000000E+01  1.00800000E+00  1.00800000E+00  0.00000000E+00
  1.60000000E+01  1.00800000E+00  1.00800000E+00  0.00000000E+00  1.60000000E+01
  1.00800000E+00  1.00800000E+00  0.00000000E+00  1.60000000E+01  1.00800000E+00
  1.00800000E+00  0.00000000E+00  1.60000000E+01  1.00800000E+00  1.00800000E+00
  0.00000000E+00  1.60000000E+01  1.00800000E+00  1.00800000E+00  0.00000000E+00
  1.60000000E+01  1.00800000E+00  1.00800000E+00  0.00000000E+00  1.60000000E+01
  1.00800000E+00  1.00800000E+00  0.00000000E+00  1.60000000E+01  1.00800000E+00
  1.00800000E+00  0.00000000E+00  1.60000000E+01  1.00800000E+00  1.00800000E+00
  0.00000000E+00  1.60000000E+01  1.00800000E+00  1.00800000E+00  0.00000000E+00
  1.60000000E+01  1.00800000E+00  1.00800000E+00  0.00000000E+00  1.60000000E+01
  1.00800000E+00  1.00800000E+00  0.00000000E+00  1.60000000E+01  1.00800000E+00
  1.00800000E+00  0.00000000E+00  1.60000000E+01  1.00800000E+00  1.00800000E+00
  0.00000000E+00  1.60000000E+01  1.00800000E+00  1.00800000E+00  0.00000000E+00
  1.60000000E+01  1.00800000E+00  1.00800000E+00  0.00000000E+00  1.60000000E+01
  1.00800000E+00  1.00800000E+00  0.00000000E+00  1.60000000E+01  1.00800000E+00
  1.00800000E+00  0.00000000E+00  1.60000000E+01  1.00800000E+00  1.00800000E+00
  0.00000000E+00  1.60000000E+01  1.00800000E+00  1.00800000E+00  0.00000000E+00
  1.60000000E+01  1.00800000E+00  1.00800000E+00  0.00000000E+00  1.60000000E+01
  1.00800000E+00  1.00800000E+00  0.00000000E+00  1.60000000E+01  1.00800000E+00
  1.00800000E+00  0.00000000E+00  1.60000000E+01  1.00800000E+00  1.00800000E+00
  0.00000000E+00  1.60000000E+01  1.00800000E+00  1.00800000E+00  0.00000000E+00
  1.60000000E+01  1.00800000E+00  1.00800000E+00  0.00000000E+00  1.60000000E+01
  1.00800000E+00  1.00800000E+00  0.00000000E+00  1.60000000E+01  1.00800000E+00
  1.00800000E+00  0.00000000E+00  1.60000000E+01  1.00800000E+00  1.00800000E+00
  0.00000000E+00  1.60000000E+01  1.00800000E+00  1.00800000E+00  0.00000000E+00
  1.60000000E+01  1.00800000E+00  1.00800000E+00  0.00000000E+00  1.60000000E+01
  1.00800000E+00  1.00800000E+00  0.00000000E+00  1.60000000E+01  1.00800000E+00
  1.00800000E+00  0.00000000E+00  1.60000000E+01  1.00800000E+00  1.00800000E+00
  0.00000000E+00  1.60000000E+01  1.00800000E+00  1.00800000E+00  0.00000000E+00
  1.60000000E+01  1.00800000E+00  1.00800000E+00  0.00000000E+00  1.60000000E+01
  1.00800000E+00  1.00800000E+00  0.00000000E+00  1.60000000E+01  1.00800000E+00
  1.00800000E+00  0.00000000E+00  1.60000000E+01  1.00800000E+00  1.00800000E+00
  0.00000000E+00  1.60000000E+01  1.00800000E+00  1.00800000E+00  0.00000000E+00
  1.60000000E+01  1.00800000E+00  1.00800000E+00  0.00000000E+00  1.60000000E+01
  1.00800000E+00  1.00800000E+00  0.00000000E+00  1.60000000E+01  1.00800000E+00
  1.00800000E+00  0.00000000E+00  1.60000000E+01  1.00800000E+00  1.00800000E+00
  0.00000000E+00  1.60000000E+01  1.00800000E+00  1.00800000E+00  0.00000000E+00
  1.60000000E+01  1.00800000E+00  1.00800000E+00  0.00000000E+00  1.60000000E+01
  1.00800000E+00  1.00800000E+00  0.00000000E+00  1.60000000E+01  1.00800000E+00
  1.00800000E+00  0.00000000E+00  1.60000000E+01  1.00800000E+00  1.00800000E+00
  0.00000000E+00  1.60000000E+01  1.00800000E+00  1.00800000E+00  0.00000000E+00
  1.60000000E+01  1.00800000E+00  1.00800000E+00  0.00000000E+00  1.60000000E+01
  1.00800000E+00  1.00800000E+00  0.00000000E+00  1.60000000E+01  1.00800000E+00
  1.00800000E+00  0.00000000E+00  1.60000000E+01  1.00800000E+00  1.00800000E+00
  0.00000000E+00  1.60000000E+01  1.00800000E+00  1.00800000E+00  0.00000000E+00
  1.60000000E+01  1.00800000E+00  1.00800000E+00  0.00000000E+00  1.60000000E+01
  1.00800000E+00  1.00800000E+00  0.00000000E+00  1.60000000E+01  1.00800000E+00
  1.00800000E+00  0.00000000E+00  1.60000000E+01  1.00800000E+00  1.00800000E+00
  0.00000000E+00  1.60000000E+01  1.00800000E+00  1.00800000E+00  0.00000000E+00
  1.60000000E+01  1.00800000E+00  1.00800000E+00  0.00000000E+00  1.60000000E+01
  1.00800000E+00  1.00800000E+00  0.00000000E+00  1.60000000E+01  1.00800000E+00
  1.00800000E+00  0.00000000E+00  1.60000000E+01  1.00800000E+00  1.00800000E+00
  0.00000000E+00  1.60000000E+01  1.00800000E+00  1.00800000E+00  0.00000000E+00
  1.60000000E+01  1.00800000E+00  1.00800000E+00  0.00000000E+00  1.60000000E+01
  1.00800000E+00  1.00800000E+00  0.00000000E+00  1.60000000E+01  1.00800000E+00
  1.00800000E+00  0.00000000E+00  1.60000000E+01  1.00800000E+00  1.00800000E+00
  0.00000000E+00  1.60000000E+01  1.00800000E+00  1.00800000E+00  0.00000000E+00
  1.60000000E+01  1.00800000E+00  1.00800000E+00  0.00000000E+00  1.60000000E+01
  1.00800000E+00  1.00800000E+00  0.00000000E+00  1.60000000E+01  1.00800000E+00
  1.00800000E+00  0.00000000E+00  1.60000000E+01  1.00800000E+00  1.00800000E+00
  0.00000000E+00  1.60000000E+01  1.00800000E+00  1.00800000E+00  0.00000000E+00
  1.60000000E+01  1.00800000E+00  1.00800000E+00  0.00000000E+00  1.60000000E+01
  1.00800000E+00  1.00800000E+00  0.00000000E+00  1.60000000E+01  1.00800000E+00
  1.00800000E+00  0.00000000E+00  1.60000000E+01  1.00800000E+00  1.00800000E+00
  0.00000000E+00  1.60000000E+01  1.00800000E+00  1.00800000E+00  0.00000000E+00
  1.60000000E+01  1.00800000E+00  1.00800000E+00  0.00000000E+00  1.60000000E+01
  1.00800000E+00  1.00800000E+00  0.00000000E+00  1.60000000E+01  1.00800000E+00
  1.00800000E+00  0.00000000E+00  1.60000000E+01  1.00800000E+00  1.00800000E+00
  0.00000000E+00  1.60000000E+01  1.00800000E+00  1.00800000E+00  0.00000000E+00
  1.60000000E+01  1.00800000E+00  1.00800000E+00  0.00000000E+00  1.60000000E+01
  1.00800000E+00  1.00800000E+00  0.00000000E+00  1.60000000E+01  1.00800000E+00
  1.00800000E+00  0.00000000E+00  1.60000000E+01  1.00800000E+00  1.00800000E+00
  0.00000000E+00  1.60000000E+01  1.00800000E+00  1.00800000E+00  0.00000000E+00
  1.60000000E+01  1.00800000E+00  1.00800000E+00  0.00000000E+00  1.60000000E+01
  1.00800000E+00  1.00800000E+00  0.00000000E+00  1.60000000E+01  1.00800000E+00
  1.00800000E+00  0.00000000E+00  1.60000000E+01  1.00800000E+00  1.00800000E+00
  0.00000000E+00  1.60000000E+01  1.00800000E+00  1.00800000E+00  0.00000000E+00
  1.60000000E+01  1.00800000E+00  1.00800000E+00  0.00000000E+00  1.60000000E+01
  1.00800000E+00  1.00800000E+00  0.00000000E+00  1.60000000E+01  1.00800000E+00
  1.00800000E+00  0.00000000E+00  1.60000000E+01  1.00800000E+00  1.00800000E+00
  0.00000000E+00  1.60000000E+01  1.00800000E+00  1.00800000E+00  0.00000000E+00
  1.60000000E+01  1.00800000E+00  1.00800000E+00  0.00000000E+00  1.60000000E+01
  1.00800000E+00  1.00800000E+00  0.00000000E+00  1.60000000E+01  1.00800000E+00
  1.00800000E+00  0.00000000E+00  1.60000000E+01  1.00800000E+00  1.00800000E+00
  0.00000000E+00  1.60000000E+01  1.00800000E+00  1.00800000E+00  0.00000000E+00
  1.60000000E+01  1.00800000E+00  1.00800000E+00  0.00000000E+00  1.60000000E+01
  1.00800000E+00  1.00800000E+00  0.00000000E+00  1.60000000E+01  1.00800000E+00
  1.00800000E+00  0.00000000E+00  1.60000000E+01  1.00800000E+00  1.00800000E+00
  0.00000000E+00  1.60000000E+01  1.00800000E+00  1.00800000E+00  0.00000000E+00
  1.60000000E+01  1.00800000E+00  1.00800000E+00  0.00000000E+00  1.60000000E+01
  1.00800000E+00  1.00800000E+00  0.00000000E+00  1.60000000E+01  1.00800000E+00
  1.00800000E+00  0.00000000E+00  1.60000000E+01  1.00800000E+00  1.00800000E+00
  0.00000000E+00  1.60000000E+01  1.00800000E+00  1.00800000E+00  0.00000000E+00
  1.60000000E+01  1.00800000E+00  1.00800000E+00  0.00000000E+00  1.60000000E+01
  1.00800000E+00  1.00800000E+00  0.00000000E+00  1.60000000E+01  1.00800000E+00
  1.00800000E+00  0.00000000E+00  1.60000000E+01  1.00800000E+00  1.00800000E+00
  0.00000000E+00  1.60000000E+01  1.00800000E+00  1.00800000E+00  0.00000000E+00
  1.60000000E+01  1.00800000E+00  1.00800000E+00  0.00000000E+00  1.60000000E+01
  1.00800000E+00  1.00800000E+00  0.00000000E+00  1.60000000E+01  1.00800000E+00
  1.00800000E+00  0.00000000E+00  1.60000000E+01  1.00800000E+00  1.00800000E+00
  0.00000000E+00  1.60000000E+01  1.00800000E+00  1.00800000E+00  0.00000000E+00
  1.60000000E+01  1.00800000E+00  1.00800000E+00  0.00000000E+00  1.60000000E+01
  1.00800000E+00  1.00800000E+00  0.00000000E+00  1.60000000E+01  1.00800000E+00
  1.00800000E+00  0.00000000E+00  1.60000000E+01  1.00800000E+00  1.00800000E+00
  0.00000000E+00  1.60000000E+01  1.00800000E+00  1.00800000E+00  0.00000000E+00
  1.60000000E+01  1.00800000E+00  1.00800000E+00  0.00000000E+00  1.60000000E+01
  1.00800000E+00  1.00800000E+00  0.00000000E+00  1.60000000E+01  1.00800000E+00
  1.00800000E+00  0.00000000E+00  1.60000000E+01  1.00800000E+00  1.00800000E+00
  0.00000000E+00  1.60000000E+01  1.00800000E+00  1.00800000E+00  0.00000000E+00
  1.60000000E+01  1.00800000E+00  1.00800000E+00  0.00000000E+00  1.60000000E+01
  1.00800000E+00  1.00800000E+00  0.00000000E+00  1.60000000E+01  1.00800000E+00
  1.00800000E+00  0.00000000E+00  1.60000000E+01  1.00800000E+00  1.00800000E+00
  0.00000000E+00  1.60000000E+01  1.00800000E+00  1.00800000E+00  0.00000000E+00
  1.60000000E+01  1.00800000E+00  1.00800000E+00  0.00000000E+00  1.60000000E+01
  1.00800000E+00  1.00800000E+00  0.00000000E+00  1.60000000E+01  1.00800000E+00
  1.00800000E+00  0.00000000E+00  1.60000000E+01  1.00800000E+00  1.00800000E+00
  0.00000000E+00  1.60000000E+01  1.00800000E+00  1.00800000E+00  0.00000000E+00
  1.60000000E+01  1.00800000E+00  1.00800000E+00  0.00000000E+00  1.60000000E+01
  1.00800000E+00  1.00800000E+00  0.00000000E+00  1.60000000E+01  1.00800000E+00
  1.00800000E+00  0.00000000E+00  1.60000000E+01  1.00800000E+00  1.00800000E+00
  0.00000000E+00  1.60000000E+01  1.00800000E+00  1.00800000E+00  0.00000000E+00
  1.60000000E+01  1.00800000E+00  1.00800000E+00  0.00000000E+00  1.60000000E+01
  1.00800000E+00  1.00800000E+00  0.00000000E+00  1.60000000E+01  1.00800000E+00
  1.00800000E+00  0.00000000E+00  1.60000000E+01  1.00800000E+00  1.00800000E+00
  0.00000000E+00  1.60000000E+01  1.00800000E+00  1.00800000E+00  0.00000000E+00
  1.60000000E+01  1.00800000E+00  1.00800000E+00  0.00000000E+00  1.60000000E+01
  1.00800000E+00  1.00800000E+00  0.00000000E+00  1.60000000E+01  1.00800000E+00
  1.00800000E+00  0.00000000E+00  1.60000000E+01  1.00800000E+00  1.00800000E+00
  0.00000000E+00  1.60000000E+01  1.00800000E+00  1.00800000E+00  0.00000000E+00
  1.60000000E+01  1.00800000E+00  1.00800000E+00  0.00000000E+00  1.60000000E+01
  1.00800000E+00  1.00800000E+00  0.00000000E+00  1.60000000E+01  1.00800000E+00
  1.00800000E+00  0.00000000E+00  1.60000000E+01  1.00800000E+00  1.00800000E+00
  0.00000000E+00  1.60000000E+01  1.00800000E+00  1.00800000E+00  0.00000000E+00
  1.60000000E+01  1.00800000E+00  1.00800000E+00  0.00000000E+00  1.60000000E+01
  1.00800000E+00  1.00800000E+00  0.00000000E+00  1.60000000E+01  1.00800000E+00
  1.00800000E+00  0.00000000E+00  1.60000000E+01  1.00800000E+00  1.00800000E+00
  0.00000000E+00  1.60000000E+01  1.00800000E+00  1.00800000E+00  0.00000000E+00
  1.60000000E+01  1.00800000E+00  1.00800000E+00  0.00000000E+00  1.60000000E+01
  1.00800000E+00  1.00800000E+00  0.00000000E+00  1.60000000E+01  1.00800000E+00
  1.00800000E+00  0.00000000E+00  1.60000000E+01  1.00800000E+00  1.00800000E+00
  0.00000000E+00  1.60000000E+01  1.00800000E+00  1.00800000E+00  0.00000000E+00
  1.60000000E+01  1.00800000E+00  1.00800000E+00  0.00000000E+00  1.60000000E+01
  1.00800000E+00  1.00800000E+00  0.00000000E+00  1.60000000E+01  1.00800000E+00
  1.00800000E+00  0.00000000E+00  1.60000000E+01  1.00800000E+00  1.00800000E+00
  0.00000000E+00  1.60000000E+01  1.00800000E+00  1.00800000E+00  0.00000000E+00
  1.60000000E+01  1.00800000E+00  1.00800000E+00  0.00000000E+00  1.60000000E+01
  1.00800000E+00  1.00800000E+00  0.00000000E+00  1.60000000E+01  1.00800000E+00
  1.00800000E+00  0.00000000E+00  1.60000000E+01  1.00800000E+00  1.00800000E+00
  0.00000000E+00  1.60000000E+01  1.00800000E+00  1.00800000E+00  0.00000000E+00
  1.60000000E+01  1.00800000E+00  1.00800000E+00  0.00000000E+00  1.60000000E+01
  1.00800000E+00  1.00800000E+00  0.00000000E+00  1.60000000E+01  1.00800000E+00
  1.00800000E+00  0.00000000E+00  1.60000000E+01  1.00800000E+00  1.00800000E+00
  0.00000000E+00  1.60000000E+01  1.00800000E+00  1.00800000E+00  0.00000000E+00
  1.60000000E+01  1.00800000E+00  1.00800000E+00  0.00000000E+00  1.60000000E+01
  1.00800000E+00  1.00800000E+00  0.00000000E+00  1.60000000E+01  1.00800000E+00
  1.00800000E+00  0.00000000E+00  1.60000000E+01  1.00800000E+00  1.00800000E+00
  0.00000000E+00  1.60000000E+01  1.00800000E+00  1.00800000E+00  0.00000000E+00
  1.60000000E+01  1.00800000E+00  1.00800000E+00  0.00000000E+00  1.60000000E+01
  1.00800000E+00  1.00800000E+00  0.00000000E+00  1.60000000E+01  1.00800000E+00
  1.00800000E+00  0.00000000E+00  1.60000000E+01  1.00800000E+00  1.00800000E+00
  0.00000000E+00  1.60000000E+01  1.00800000E+00  1.00800000E+00  0.00000000E+00
  1.60000000E+01  1.00800000E+00  1.00800000E+00  0.00000000E+00  1.60000000E+01
  1.00800000E+00  1.00800000E+00  0.00000000E+00  1.60000000E+01  1.00800000E+00
  1.00800000E+00  0.00000000E+00  1.60000000E+01  1.00800000E+00  1.00800000E+00
  0.00000000E+00  1.60000000E+01  1.00800000E+00  1.00800000E+00  0.00000000E+00
  1.60000000E+01  1.00800000E+00  1.00800000E+00  0.00000000E+00  1.60000000E+01
  1.00800000E+00  1.00800000E+00  0.00000000E+00  1.60000000E+01  1.00800000E+00
  1.00800000E+00  0.00000000E+00  1.60000000E+01  1.00800000E+00  1.00800000E+00
  0.00000000E+00  1.60000000E+01  1.00800000E+00  1.00800000E+00  0.00000000E+00
  1.60000000E+01  1.00800000E+00  1.00800000E+00  0.00000000E+00  1.60000000E+01
  1.00800000E+00  1.00800000E+00  0.00000000E+00  1.60000000E+01  1.00800000E+00
  1.00800000E+00  0.00000000E+00  1.60000000E+01  1.00800000E+00  1.00800000E+00
  0.00000000E+00  1.60000000E+01  1.00800000E+00  1.00800000E+00  0.00000000E+00
  1.60000000E+01  1.00800000E+00  1.00800000E+00  0.00000000E+00  1.60000000E+01
  1.00800000E+00  1.00800000E+00  0.00000000E+00  1.60000000E+01  1.00800000E+00
  1.00800000E+00  0.00000000E+00  1.60000000E+01  1.00800000E+00  1.00800000E+00
  0.00000000E+00  1.60000000E+01  1.00800000E+00  1.00800000E+00  0.00000000E+00
  1.60000000E+01  1.00800000E+00  1.00800000E+00  0.00000000E+00  1.60000000E+01
  1.00800000E+00  1.00800000E+00  0.00000000E+00  1.60000000E+01  1.00800000E+00
  1.00800000E+00  0.00000000E+00  1.60000000E+01  1.00800000E+00  1.00800000E+00
  0.00000000E+00  1.60000000E+01  1.00800000E+00  1.00800000E+00  0.00000000E+00
  1.60000000E+01  1.00800000E+00  1.00800000E+00  0.00000000E+00  1.60000000E+01
  1.00800000E+00  1.00800000E+00  0.00000000E+00  1.60000000E+01  1.00800000E+00
  1.00800000E+00  0.00000000E+00  1.60000000E+01  1.00800000E+00  1.00800000E+00
  0.00000000E+00  1.60000000E+01  1.00800000E+00  1.00800000E+00  0.00000000E+00
  1.60000000E+01  1.00800000E+00  1.00800000E+00  0.00000000E+00  1.60000000E+01
  1.00800000E+00  1.00800000E+00  0.00000000E+00  1.60000000E+01  1.00800000E+00
  1.00800000E+00  0.00000000E+00  1.60000000E+01  1.00800000E+00  1.00800000E+00
  0.00000000E+00  1.60000000E+01  1.00800000E+00  1.00800000E+00  0.00000000E+00
  1.60000000E+01  1.00800000E+00  1.00800000E+00  0.00000000E+00  1.60000000E+01
  1.00800000E+00  1.00800000E+00  0.00000000E+00  1.60000000E+01  1.00800000E+00
  1.00800000E+00  0.00000000E+00  1.60000000E+01  1.00800000E+00  1.00800000E+00
  0.00000000E+00  1.60000000E+01  1.00800000E+00  1.00800000E+00  0.00000000E+00
  1.60000000E+01  1.00800000E+00  1.00800000E+00  0.00000000E+00  1.60000000E+01
  1.00800000E+00  1.00800000E+00  0.00000000E+00  1.60000000E+01  1.00800000E+00
  1.00800000E+00  0.00000000E+00  1.60000000E+01  1.00800000E+00  1.00800000E+00
  0.00000000E+00  1.60000000E+01  1.00800000E+00  1.00800000E+00  0.00000000E+00
  1.60000000E+01  1.00800000E+00  1.00800000E+00  0.00000000E+00  1.60000000E+01
  1.00800000E+00  1.00800000E+00  0.00000000E+00  1.60000000E+01  1.00800000E+00
  1.00800000E+00  0.00000000E+00  1.60000000E+01  1.00800000E+00  1.00800000E+00
  0.00000000E+00  1.60000000E+01  1.00800000E+00  1.00800000E+00  0.00000000E+00
  1.60000000E+01  1.00800000E+00  1.00800000E+00  0.00000000E+00  1.60000000E+01
  1.00800000E+00  1.00800000E+00  0.00000000E+00  1.60000000E+01  1.00800000E+00
  1.00800000E+00  0.00000000E+00  1.60000000E+01  1.00800000E+00  1.00800000E+00
  0.00000000E+00  1.60000000E+01  1.00800000E+00  1.00800000E+00  0.00000000E+00
  1.60000000E+01  1.00800000E+00  1.00800000E+00  0.00000000E+00  1.60000000E+01
  1.00800000E+00  1.00800000E+00  0.00000000E+00  1.60000000E+01  1.00800000E+00
  1.00800000E+00  0.00000000E+00  1.60000000E+01  1.00800000E+00  1.00800000E+00
  0.00000000E+00  1.60000000E+01  1.00800000E+00  1.00800000E+00  0.00000000E+00
  1.60000000E+01  1.00800000E+00  1.00800000E+00  0.00000000E+00  1.60000000E+01
  1.00800000E+00  1.00800000E+00  0.00000000E+00  1.60000000E+01  1.00800000E+00
  1.00800000E+00  0.00000000E+00  1.60000000E+01  1.00800000E+00  1.00800000E+00
  0.00000000E+00  1.60000000E+01  1.00800000E+00  1.00800000E+00  0.00000000E+00
  1.60000000E+01  1.00800000E+00  1.00800000E+00  0.00000000E+00  1.60000000E+01
  1.00800000E+00  1.00800000E+00  0.00000000E+00  1.60000000E+01  1.00800000E+00
  1.00800000E+00  0.00000000E+00  1.60000000E+01  1.00800000E+00  1.00800000E+00
  0.00000000E+00  1.60000000E+01  1.00800000E+00  1.00800000E+00  0.00000000E+00
  1.60000000E+01  1.00800000E+00  1.00800000E+00  0.00000000E+00  1.60000000E+01
  1.00800000E+00  1.00800000E+00  0.00000000E+00  1.60000000E+01  1.00800000E+00
  1.00800000E+00  0.00000000E+00  1.60000000E+01  1.00800000E+00  1.00800000E+00
  0.00000000E+00  1.60000000E+01  1.00800000E+00  1.00800000E+00  0.00000000E+00
  1.60000000E+01  1.00800000E+00  1.00800000E+00  0.00000000E+00  1.60000000E+01
  1.00800000E+00  1.00800000E+00  0.00000000E+00  1.60000000E+01  1.00800000E+00
  1.00800000E+00  0.00000000E+00  1.60000000E+01  1.00800000E+00  1.00800000E+00
  0.00000000E+00  1.60000000E+01  1.00800000E+00  1.00800000E+00  0.00000000E+00
  1.60000000E+01  1.00800000E+00  1.00800000E+00  0.00000000E+00  1.60000000E+01
  1.00800000E+00  1.00800000E+00  0.00000000E+00  1.60000000E+01  1.00800000E+00
  1.00800000E+00  0.00000000E+00  1.60000000E+01  1.00800000E+00  1.00800000E+00
  0.00000000E+00  1.60000000E+01  1.00800000E+00  1.00800000E+00  0.00000000E+00
  1.60000000E+01  1.00800000E+00  1.00800000E+00  0.00000000E+00  1.60000000E+01
  1.00800000E+00  1.00800000E+00  0.00000000E+00  1.60000000E+01  1.00800000E+00
  1.00800000E+00  0.00000000E+00  1.60000000E+01  1.00800000E+00  1.00800000E+00
  0.00000000E+00  1.60000000E+01  1.00800000E+00  1.00800000E+00  0.00000000E+00
  1.60000000E+01  1.00800000E+00  1.00800000E+00  0.00000000E+00  1.60000000E+01
  1.00800000E+00  1.00800000E+00  0.00000000E+00  1.60000000E+01  1.00800000E+00
  1.00800000E+00  0.00000000E+00  1.60000000E+01  1.00800000E+00  1.00800000E+00
  0.00000000E+00  1.60000000E+01  1.00800000E+00  1.00800000E+00  0.00000000E+00
  1.60000000E+01  1.00800000E+00  1.00800000E+00  0.00000000E+00  1.60000000E+01
  1.00800000E+00  1.00800000E+00  0.00000000E+00  1.60000000E+01  1.00800000E+00
  1.00800000E+00  0.00000000E+00  1.60000000E+01  1.00800000E+00  1.00800000E+00
  0.00000000E+00  1.60000000E+01  1.00800000E+00  1.00800000E+00  0.00000000E+00
  1.60000000E+01  1.00800000E+00  1.00800000E+00  0.00000000E+00  1.60000000E+01
  1.00800000E+00  1.00800000E+00  0.00000000E+00  1.60000000E+01  1.00800000E+00
  1.00800000E+00  0.00000000E+00  1.60000000E+01  1.00800000E+00  1.00800000E+00
  0.00000000E+00  1.60000000E+01  1.00800000E+00  1.00800000E+00  0.00000000E+00
  1.60000000E+01  1.00800000E+00  1.00800000E+00  0.00000000E+00  1.60000000E+01
  1.00800000E+00  1.00800000E+00  0.00000000E+00  1.60000000E+01  1.00800000E+00
  1.00800000E+00  0.00000000E+00  1.60000000E+01  1.00800000E+00  1.00800000E+00
  0.00000000E+00  1.60000000E+01  1.00800000E+00  1.00800000E+00  0.00000000E+00
  1.60000000E+01  1.00800000E+00  1.00800000E+00  0.00000000E+00  1.60000000E+01
  1.00800000E+00  1.00800000E+00  0.00000000E+00  1.60000000E+01  1.00800000E+00
  1.00800000E+00  0.00000000E+00  1.60000000E+01  1.00800000E+00  1.00800000E+00
  0.00000000E+00  1.60000000E+01  1.00800000E+00  1.00800000E+00  0.00000000E+00
  1.60000000E+01  1.00800000E+00  1.00800000E+00  0.00000000E+00  1.60000000E+01
  1.00800000E+00  1.00800000E+00  0.00000000E+00  1.60000000E+01  1.00800000E+00
  1.00800000E+00  0.00000000E+00  1.60000000E+01  1.00800000E+00  1.00800000E+00
  0.00000000E+00  1.60000000E+01  1.00800000E+00  1.00800000E+00  0.00000000E+00
  1.60000000E+01  1.00800000E+00  1.00800000E+00  0.00000000E+00  1.60000000E+01
  1.00800000E+00  1.00800000E+00  0.00000000E+00  1.60000000E+01  1.00800000E+00
  1.00800000E+00  0.00000000E+00  1.60000000E+01  1.00800000E+00  1.00800000E+00
  0.00000000E+00  1.60000000E+01  1.00800000E+00  1.00800000E+00  0.00000000E+00
  1.60000000E+01  1.00800000E+00  1.00800000E+00  0.00000000E+00  1.60000000E+01
  1.00800000E+00  1.00800000E+00  0.00000000E+00  1.60000000E+01  1.00800000E+00
  1.00800000E+00  0.00000000E+00  1.60000000E+01  1.00800000E+00  1.00800000E+00
  0.00000000E+00  1.60000000E+01  1.00800000E+00  1.00800000E+00  0.00000000E+00
  1.60000000E+01  1.00800000E+00  1.00800000E+00  0.00000000E+00  1.60000000E+01
  1.00800000E+00  1.00800000E+00  0.00000000E+00  1.60000000E+01  1.00800000E+00
  1.00800000E+00  0.00000000E+00  1.60000000E+01  1.00800000E+00  1.00800000E+00
  0.00000000E+00  1.60000000E+01  1.00800000E+00  1.00800000E+00  0.00000000E+00
  1.60000000E+01  1.00800000E+00  1.00800000E+00  0.00000000E+00  1.60000000E+01
  1.00800000E+00  1.00800000E+00  0.00000000E+00  1.60000000E+01  1.00800000E+00
  1.00800000E+00  0.00000000E+00  1.60000000E+01  1.00800000E+00  1.00800000E+00
  0.00000000E+00  1.60000000E+01  1.00800000E+00  1.00800000E+00  0.00000000E+00
  1.60000000E+01  1.00800000E+00  1.00800000E+00  0.00000000E+00  1.60000000E+01
  1.00800000E+00  1.00800000E+00  0.00000000E+00  1.60000000E+01  1.00800000E+00
  1.00800000E+00  0.00000000E+00  1.60000000E+01  1.00800000E+00  1.00800000E+00
  0.00000000E+00  1.60000000E+01  1.00800000E+00  1.00800000E+00  0.00000000E+00
  1.60000000E+01  1.00800000E+00  1.00800000E+00  0.00000000E+00  1.60000000E+01
  1.00800000E+00  1.00800000E+00  0.00000000E+00  1.60000000E+01  1.00800000E+00
  1.00800000E+00  0.00000000E+00  1.60000000E+01  1.00800000E+00  1.00800000E+00
  0.00000000E+00  1.60000000E+01  1.00800000E+00  1.00800000E+00  0.00000000E+00
  1.60000000E+01  1.00800000E+00  1.00800000E+00  0.00000000E+00  1.60000000E+01
  1.00800000E+00  1.00800000E+00  0.00000000E+00  1.60000000E+01  1.00800000E+00
  1.00800000E+00  0.00000000E+00  1.60000000E+01  1.00800000E+00  1.00800000E+00
  0.00000000E+00  1.60000000E+01  1.00800000E+00  1.00800000E+00  0.00000000E+00
  1.60000000E+01  1.00800000E+00  1.00800000E+00  0.00000000E+00  1.60000000E+01
  1.00800000E+00  1.00800000E+00  0.00000000E+00  1.60000000E+01  1.00800000E+00
  1.00800000E+00  0.00000000E+00  1.60000000E+01  1.00800000E+00  1.00800000E+00
  0.00000000E+00  1.60000000E+01  1.00800000E+00  1.00800000E+00  0.00000000E+00
  1.60000000E+01  1.00800000E+00  1.00800000E+00  0.00000000E+00  1.60000000E+01
  1.00800000E+00  1.00800000E+00  0.00000000E+00  1.60000000E+01  1.00800000E+00
  1.00800000E+00  0.00000000E+00  1.60000000E+01  1.00800000E+00  1.00800000E+00
  0.00000000E+00  1.60000000E+01  1.00800000E+00  1.00800000E+00  0.00000000E+00
  1.60000000E+01  1.00800000E+00  1.00800000E+00  0.00000000E+00  1.60000000E+01
  1.00800000E+00  1.00800000E+00  0.00000000E+00  1.60000000E+01  1.00800000E+00
  1.00800000E+00  0.00000000E+00  1.60000000E+01  1.00800000E+00  1.00800000E+00
  0.00000000E+00  1.60000000E+01  1.00800000E+00  1.00800000E+00  0.00000000E+00
  1.60000000E+01  1.00800000E+00  1.00800000E+00  0.00000000E+00  1.60000000E+01
  1.00800000E+00  1.00800000E+00  0.00000000E+00  1.60000000E+01  1.00800000E+00
  1.00800000E+00  0.00000000E+00  1.60000000E+01  1.00800000E+00  1.00800000E+00
  0.00000000E+00  1.60000000E+01  1.00800000E+00  1.00800000E+00  0.00000000E+00
  1.60000000E+01  1.00800000E+00  1.00800000E+00  0.00000000E+00  1.60000000E+01
  1.00800000E+00  1.00800000E+00  0.00000000E+00  1.60000000E+01  1.00800000E+00
  1.00800000E+00  0.00000000E+00  1.60000000E+01  1.00800000E+00  1.00800000E+00
  0.00000000E+00  1.60000000E+01  1.00800000E+00  1.00800000E+00  0.00000000E+00
  1.60000000E+01  1.00800000E+00  1.00800000E+00  0.00000000E+00  1.60000000E+01
  1.00800000E+00  1.00800000E+00  0.00000000E+00  1.60000000E+01  1.00800000E+00
  1.00800000E+00  0.00000000E+00  1.60000000E+01  1.00800000E+00  1.00800000E+00
  0.00000000E+00  1.60000000E+01  1.00800000E+00  1.00800000E+00  0.00000000E+00
  1.60000000E+01  1.00800000E+00  1.00800000E+00  0.00000000E+00  1.60000000E+01
  1.00800000E+00  1.00800000E+00  0.00000000E+00  1.60000000E+01  1.00800000E+00
  1.00800000E+00  0.00000000E+00  1.60000000E+01  1.00800000E+00  1.00800000E+00
  0.00000000E+00  1.60000000E+01  1.00800000E+00  1.00800000E+00  0.00000000E+00
  1.60000000E+01  1.00800000E+00  1.00800000E+00  0.00000000E+00  1.60000000E+01
  1.00800000E+00  1.00800000E+00  0.00000000E+00  1.60000000E+01  1.00800000E+00
  1.00800000E+00  0.00000000E+00  1.60000000E+01  1.00800000E+00  1.00800000E+00
  0.00000000E+00  1.60000000E+01  1.00800000E+00  1.00800000E+00  0.00000000E+00
  1.60000000E+01  1.00800000E+00  1.00800000E+00  0.00000000E+00  1.60000000E+01
  1.00800000E+00  1.00800000E+00  0.00000000E+00  1.60000000E+01  1.00800000E+00
  1.00800000E+00  0.00000000E+00  1.60000000E+01  1.00800000E+00  1.00800000E+00
  0.00000000E+00  1.60000000E+01  1.00800000E+00  1.00800000E+00  0.00000000E+00
  1.60000000E+01  1.00800000E+00  1.00800000E+00  0.00000000E+00  1.60000000E+01
  1.00800000E+00  1.00800000E+00  0.00000000E+00  1.60000000E+01  1.00800000E+00
  1.00800000E+00  0.00000000E+00  1.60000000E+01  1.00800000E+00  1.00800000E+00
  0.00000000E+00  1.60000000E+01  1.00800000E+00  1.00800000E+00  0.00000000E+00
  1.60000000E+01  1.00800000E+00  1.00800000E+00  0.00000000E+00  1.60000000E+01
  1.00800000E+00  1.00800000E+00  0.00000000E+00  1.60000000E+01  1.00800000E+00
  1.00800000E+00  0.00000000E+00  1.60000000E+01  1.00800000E+00  1.00800000E+00
  0.00000000E+00  1.60000000E+01  1.00800000E+00  1.00800000E+00  0.00000000E+00
  1.60000000E+01  1.00800000E+00  1.00800000E+00  0.00000000E+00  1.60000000E+01
  1.00800000E+00  1.00800000E+00  0.00000000E+00  1.60000000E+01  1.00800000E+00
  1.00800000E+00  0.00000000E+00  1.60000000E+01  1.00800000E+00  1.00800000E+00
  0.00000000E+00  1.60000000E+01  1.00800000E+00  1.00800000E+00  0.00000000E+00
  1.60000000E+01  1.00800000E+00  1.00800000E+00  0.00000000E+00  1.60000000E+01
  1.00800000E+00  1.00800000E+00  0.00000000E+00  1.60000000E+01  1.00800000E+00
  1.00800000E+00  0.00000000E+00  1.60000000E+01  1.00800000E+00  1.00800000E+00
  0.00000000E+00  1.60000000E+01  1.00800000E+00  1.00800000E+00  0.00000000E+00
  1.60000000E+01  1.00800000E+00  1.00800000E+00  0.00000000E+00  1.60000000E+01
  1.00800000E+00  1.00800000E+00  0.00000000E+00  1.60000000E+01  1.00800000E+00
  1.00800000E+00  0.00000000E+00  1.60000000E+01  1.00800000E+00  1.00800000E+00
  0.00000000E+00  1.60000000E+01  1.00800000E+00  1.00800000E+00  0.00000000E+00
  1.60000000E+01  1.00800000E+00  1.00800000E+00  0.00000000E+00  1.60000000E+01
  1.00800000E+00  1.00800000E+00  0.00000000E+00  1.60000000E+01  1.00800000E+00
  1.00800000E+00  0.00000000E+00  1.60000000E+01  1.00800000E+00  1.00800000E+00
  0.00000000E+00  1.60000000E+01  1.00800000E+00  1.00800000E+00  0.00000000E+00
  1.60000000E+01  1.00800000E+00  1.00800000E+00  0.00000000E+00  1.60000000E+01
  1.00800000E+00  1.00800000E+00  0.00000000E+00  1.60000000E+01  1.00800000E+00
  1.00800000E+00  0.00000000E+00  1.60000000E+01  1.00800000E+00  1.00800000E+00
  0.00000000E+00  1.60000000E+01  1.00800000E+00  1.00800000E+00  0.00000000E+00
  1.60000000E+01  1.00800000E+00  1.00800000E+00  0.00000000E+00  1.60000000E+01
  1.00800000E+00  1.00800000E+00  0.00000000E+00  1.60000000E+01  1.00800000E+00
  1.00800000E+00  0.00000000E+00  1.60000000E+01  1.00800000E+00  1.00800000E+00
  0.00000000E+00  1.60000000E+01  1.00800000E+00  1.00800000E+00  0.00000000E+00
  1.60000000E+01  1.00800000E+00  1.00800000E+00  0.00000000E+00  1.60000000E+01
  1.00800000E+00  1.00800000E+00  0.00000000E+00  1.60000000E+01  1.00800000E+00
  1.00800000E+00  0.00000000E+00  1.60000000E+01  1.00800000E+00  1.00800000E+00
  0.00000000E+00  1.60000000E+01  1.00800000E+00  1.00800000E+00  0.00000000E+00
  1.60000000E+01  1.00800000E+00  1.00800000E+00  0.00000000E+00  1.60000000E+01
  1.00800000E+00  1.00800000E+00  0.00000000E+00  1.60000000E+01  1.00800000E+00
  1.00800000E+00  0.00000000E+00  1.60000000E+01  1.00800000E+00  1.00800000E+00
  0.00000000E+00  1.60000000E+01  1.00800000E+00  1.00800000E+00  0.00000000E+00
  1.60000000E+01  1.00800000E+00  1.00800000E+00  0.00000000E+00  1.60000000E+01
  1.00800000E+00  1.00800000E+00  0.00000000E+00  1.60000000E+01  1.00800000E+00
  1.00800000E+00  0.00000000E+00  1.60000000E+01  1.00800000E+00  1.00800000E+00
  0.00000000E+00  1.60000000E+01  1.00800000E+00  1.00800000E+00  0.00000000E+00
  1.60000000E+01  1.00800000E+00  1.00800000E+00  0.00000000E+00  1.60000000E+01
  1.00800000E+00  1.00800000E+00  0.00000000E+00  1.60000000E+01  1.00800000E+00
  1.00800000E+00  0.00000000E+00  1.60000000E+01  1.00800000E+00  1.00800000E+00
  0.00000000E+00  1.60000000E+01  1.00800000E+00  1.00800000E+00  0.00000000E+00
  1.60000000E+01  1.00800000E+00  1.00800000E+00  0.00000000E+00  1.60000000E+01
  1.00800000E+00  1.00800000E+00  0.00000000E+00  1.60000000E+01  1.00800000E+00
  1.00800000E+00  0.00000000E+00  1.60000000E+01  1.00800000E+00  1.00800000E+00
  0.00000000E+00  1.60000000E+01  1.00800000E+00  1.00800000E+00  0.00000000E+00
  1.60000000E+01  1.00800000E+00  1.00800000E+00  0.00000000E+00  1.60000000E+01
  1.00800000E+00  1.00800000E+00  0.00000000E+00  1.60000000E+01  1.00800000E+00
  1.00800000E+00  0.00000000E+00  1.60000000E+01  1.00800000E+00  1.00800000E+00
  0.00000000E+00  1.60000000E+01  1.00800000E+00  1.00800000E+00  0.00000000E+00
  1.60000000E+01  1.00800000E+00  1.00800000E+00  0.00000000E+00  1.60000000E+01
  1.00800000E+00  1.00800000E+00  0.00000000E+00  1.60000000E+01  1.00800000E+00
  1.00800000E+00  0.00000000E+00  1.60000000E+01  1.00800000E+00  1.00800000E+00
  0.00000000E+00  1.60000000E+01  1.00800000E+00  1.00800000E+00  0.00000000E+00
  1.60000000E+01  1.00800000E+00  1.00800000E+00  0.00000000E+00  1.60000000E+01
  1.00800000E+00  1.00800000E+00  0.00000000E+00  1.60000000E+01  1.00800000E+00
  1.00800000E+00  0.00000000E+00  1.60000000E+01  1.00800000E+00  1.00800000E+00
  0.00000000E+00  1.60000000E+01  1.00800000E+00  1.00800000E+00  0.00000000E+00
  1.60000000E+01  1.00800000E+00  1.00800000E+00  0.00000000E+00  1.60000000E+01
  1.00800000E+00  1.00800000E+00  0.00000000E+00  1.60000000E+01  1.00800000E+00
  1.00800000E+00  0.00000000E+00  1.60000000E+01  1.00800000E+00  1.00800000E+00
  0.00000000E+00  1.60000000E+01  1.00800000E+00  1.00800000E+00  0.00000000E+00
  1.60000000E+01  1.00800000E+00  1.00800000E+00  0.00000000E+00  1.60000000E+01
  1.00800000E+00  1.00800000E+00  0.00000000E+00  1.60000000E+01  1.00800000E+00
  1.00800000E+00  0.00000000E+00  1.60000000E+01  1.00800000E+00  1.00800000E+00
  0.00000000E+00  1.60000000E+01  1.00800000E+00  1.00800000E+00  0.00000000E+00
  1.60000000E+01  1.00800000E+00  1.00800000E+00  0.00000000E+00  1.60000000E+01
  1.00800000E+00  1.00800000E+00  0.00000000E+00  1.60000000E+01  1.00800000E+00
  1.00800000E+00  0.00000000E+00  1.60000000E+01  1.00800000E+00  1.00800000E+00
  0.00000000E+00  1.60000000E+01  1.00800000E+00  1.00800000E+00  0.00000000E+00
  1.60000000E+01  1.00800000E+00  1.00800000E+00  0.00000000E+00  1.60000000E+01
  1.00800000E+00  1.00800000E+00  0.00000000E+00  1.60000000E+01  1.00800000E+00
  1.00800000E+00  0.00000000E+00  1.60000000E+01  1.00800000E+00  1.00800000E+00
  0.00000000E+00  1.60000000E+01  1.00800000E+00  1.00800000E+00  0.00000000E+00
  1.60000000E+01  1.00800000E+00  1.00800000E+00  0.00000000E+00  1.60000000E+01
  1.00800000E+00  1.00800000E+00  0.00000000E+00  1.60000000E+01  1.00800000E+00
  1.00800000E+00  0.00000000E+00  1.60000000E+01  1.00800000E+00  1.00800000E+00
  0.00000000E+00  1.60000000E+01  1.00800000E+00  1.00800000E+00  0.00000000E+00
  1.60000000E+01  1.00800000E+00  1.00800000E+00  0.00000000E+00  1.60000000E+01
  1.00800000E+00  1.00800000E+00  0.00000000E+00  1.60000000E+01  1.00800000E+00
  1.00800000E+00  0.00000000E+00  1.60000000E+01  1.00800000E+00  1.00800000E+00
  0.00000000E+00  1.60000000E+01  1.00800000E+00  1.00800000E+00  0.00000000E+00
  1.60000000E+01  1.00800000E+00  1.00800000E+00  0.00000000E+00  1.60000000E+01
  1.00800000E+00  1.00800000E+00  0.00000000E+00  1.60000000E+01  1.00800000E+00
  1.00800000E+00  0.00000000E+00  1.60000000E+01  1.00800000E+00  1.00800000E+00
  0.00000000E+00  1.60000000E+01  1.00800000E+00  1.00800000E+00  0.00000000E+00
  1.60000000E+01  1.00800000E+00  1.00800000E+00  0.00000000E+00  1.60000000E+01
  1.00800000E+00  1.00800000E+00  0.00000000E+00  1.60000000E+01  1.00800000E+00
  1.00800000E+00  0.00000000E+00  1.60000000E+01  1.00800000E+00  1.00800000E+00
  0.00000000E+00  1.60000000E+01  1.00800000E+00  1.00800000E+00  0.00000000E+00
  1.60000000E+01  1.00800000E+00  1.00800000E+00  0.00000000E+00  1.60000000E+01
  1.00800000E+00  1.00800000E+00  0.00000000E+00  1.60000000E+01  1.00800000E+00
  1.00800000E+00  0.00000000E+00  1.60000000E+01  1.00800000E+00  1.00800000E+00
  0.00000000E+00  1.60000000E+01  1.00800000E+00  1.00800000E+00  0.00000000E+00
  1.60000000E+01  1.00800000E+00  1.00800000E+00  0.00000000E+00  1.60000000E+01
  1.00800000E+00  1.00800000E+00  0.00000000E+00  1.60000000E+01  1.00800000E+00
  1.00800000E+00  0.00000000E+00  1.60000000E+01  1.00800000E+00  1.00800000E+00
  0.00000000E+00  1.60000000E+01  1.00800000E+00  1.00800000E+00  0.00000000E+00
  1.60000000E+01  1.00800000E+00  1.00800000E+00  0.00000000E+00  1.60000000E+01
  1.00800000E+00  1.00800000E+00  0.00000000E+00  1.60000000E+01  1.00800000E+00
  1.00800000E+00  0.00000000E+00  1.60000000E+01  1.00800000E+00  1.00800000E+00
  0.00000000E+00  1.60000000E+01  1.00800000E+00  1.00800000E+00  0.00000000E+00
  1.60000000E+01  1.00800000E+00  1.00800000E+00  0.00000000E+00  1.60000000E+01
  1.00800000E+00  1.00800000E+00  0.00000000E+00  1.60000000E+01  1.00800000E+00
  1.00800000E+00  0.00000000E+00  1.60000000E+01  1.00800000E+00  1.00800000E+00
  0.00000000E+00  1.60000000E+01  1.00800000E+00  1.00800000E+00  0.00000000E+00
  1.60000000E+01  1.00800000E+00  1.00800000E+00  0.00000000E+00  1.60000000E+01
  1.00800000E+00  1.00800000E+00  0.00000000E+00  1.60000000E+01  1.00800000E+00
  1.00800000E+00  0.00000000E+00  1.60000000E+01  1.00800000E+00  1.00800000E+00
  0.00000000E+00  1.60000000E+01  1.00800000E+00  1.00800000E+00  0.00000000E+00
  1.60000000E+01  1.00800000E+00  1.00800000E+00  0.00000000E+00  1.60000000E+01
  1.00800000E+00  1.00800000E+00  0.00000000E+00  1.60000000E+01  1.00800000E+00
  1.00800000E+00  0.00000000E+00  1.60000000E+01  1.00800000E+00  1.00800000E+00
  0.00000000E+00  1.60000000E+01  1.00800000E+00  1.00800000E+00  0.00000000E+00
  1.60000000E+01  1.00800000E+00  1.00800000E+00  0.00000000E+00  1.60000000E+01
  1.00800000E+00  1.00800000E+00  0.00000000E+00  1.60000000E+01  1.00800000E+00
  1.00800000E+00  0.00000000E+00  1.60000000E+01  1.00800000E+00  1.00800000E+00
  0.00000000E+00  1.60000000E+01  1.00800000E+00  1.00800000E+00  0.00000000E+00
  1.60000000E+01  1.00800000E+00  1.00800000E+00  0.00000000E+00  1.60000000E+01
  1.00800000E+00  1.00800000E+00  0.00000000E+00  1.60000000E+01  1.00800000E+00
  1.00800000E+00  0.00000000E+00  1.60000000E+01  1.00800000E+00  1.00800000E+00
  0.00000000E+00  1.60000000E+01  1.00800000E+00  1.00800000E+00  0.00000000E+00
  1.60000000E+01  1.00800000E+00  1.00800000E+00  0.00000000E+00  1.60000000E+01
  1.00800000E+00  1.00800000E+00  0.00000000E+00  1.60000000E+01  1.00800000E+00
  1.00800000E+00  0.00000000E+00  1.60000000E+01  1.00800000E+00  1.00800000E+00
  0.00000000E+00  1.60000000E+01  1.00800000E+00  1.00800000E+00  0.00000000E+00
  1.60000000E+01  1.00800000E+00  1.00800000E+00  0.00000000E+00  1.60000000E+01
  1.00800000E+00  1.00800000E+00  0.00000000E+00  1.60000000E+01  1.00800000E+00
  1.00800000E+00  0.00000000E+00  1.60000000E+01  1.00800000E+00  1.00800000E+00
  0.00000000E+00  1.60000000E+01  1.00800000E+00  1.00800000E+00  0.00000000E+00
  1.60000000E+01  1.00800000E+00  1.00800000E+00  0.00000000E+00  1.60000000E+01
  1.00800000E+00  1.00800000E+00  0.00000000E+00  1.60000000E+01  1.00800000E+00
  1.00800000E+00  0.00000000E+00  1.60000000E+01  1.00800000E+00  1.00800000E+00
  0.00000000E+00  1.60000000E+01  1.00800000E+00  1.00800000E+00  0.00000000E+00
  1.60000000E+01  1.00800000E+00  1.00800000E+00  0.00000000E+00  1.60000000E+01
  1.00800000E+00  1.00800000E+00  0.00000000E+00  1.60000000E+01  1.00800000E+00
  1.00800000E+00  0.00000000E+00  1.60000000E+01  1.00800000E+00  1.00800000E+00
  0.00000000E+00  1.60000000E+01  1.00800000E+00  1.00800000E+00  0.00000000E+00
  1.60000000E+01  1.00800000E+00  1.00800000E+00  0.00000000E+00  1.60000000E+01
  1.00800000E+00  1.00800000E+00  0.00000000E+00  1.60000000E+01  1.00800000E+00
  1.00800000E+00  0.00000000E+00  1.60000000E+01  1.00800000E+00  1.00800000E+00
  0.00000000E+00  1.60000000E+01  1.00800000E+00  1.00800000E+00  0.00000000E+00
  1.60000000E+01  1.00800000E+00  1.00800000E+00  0.00000000E+00  1.60000000E+01
  1.00800000E+00  1.00800000E+00  0.00000000E+00  1.60000000E+01  1.00800000E+00
  1.00800000E+00  0.00000000E+00  1.60000000E+01  1.00800000E+00  1.00800000E+00
  0.00000000E+00  1.60000000E+01  1.00800000E+00  1.00800000E+00  0.00000000E+00
  1.60000000E+01  1.00800000E+00  1.00800000E+00  0.00000000E+00  1.60000000E+01
  1.00800000E+00  1.00800000E+00  0.00000000E+00  1.60000000E+01  1.00800000E+00
  1.00800000E+00  0.00000000E+00  1.60000000E+01  1.00800000E+00  1.00800000E+00
  0.00000000E+00  1.60000000E+01  1.00800000E+00  1.00800000E+00  0.00000000E+00
  1.60000000E+01  1.00800000E+00  1.00800000E+00  0.00000000E+00  1.60000000E+01
  1.00800000E+00  1.00800000E+00  0.00000000E+00  1.60000000E+01  1.00800000E+00
  1.00800000E+00  0.00000000E+00  1.60000000E+01  1.00800000E+00  1.00800000E+00
  0.00000000E+00  1.60000000E+01  1.00800000E+00  1.00800000E+00  0.00000000E+00
  1.60000000E+01  1.00800000E+00  1.00800000E+00  0.00000000E+00  1.60000000E+01
  1.00800000E+00  1.00800000E+00  0.00000000E+00  1.60000000E+01  1.00800000E+00
  1.00800000E+00  0.00000000E+00  1.60000000E+01  1.00800000E+00  1.00800000E+00
  0.00000000E+00  1.60000000E+01  1.00800000E+00  1.00800000E+00  0.00000000E+00
  1.60000000E+01  1.00800000E+00  1.00800000E+00  0.00000000E+00  1.60000000E+01
  1.00800000E+00  1.00800000E+00  0.00000000E+00  1.60000000E+01  1.00800000E+00
  1.00800000E+00  0.00000000E+00  1.60000000E+01  1.00800000E+00  1.00800000E+00
  0.00000000E+00  1.60000000E+01  1.00800000E+00  1.00800000E+00  0.00000000E+00
  1.60000000E+01  1.00800000E+00  1.00800000E+00  0.00000000E+00  1.60000000E+01
  1.00800000E+00  1.00800000E+00  0.00000000E+00  1.60000000E+01  1.00800000E+00
  1.00800000E+00  0.00000000E+00  1.60000000E+01  1.00800000E+00  1.00800000E+00
  0.00000000E+00  1.60000000E+01  1.00800000E+00  1.00800000E+00  0.00000000E+00
  1.60000000E+01  1.00800000E+00  1.00800000E+00  0.00000000E+00  1.60000000E+01
  1.00800000E+00  1.00800000E+00  0.00000000E+00  1.60000000E+01  1.00800000E+00
  1.00800000E+00  0.00000000E+00  1.60000000E+01  1.00800000E+00  1.00800000E+00
  0.00000000E+00  1.60000000E+01  1.00800000E+00  1.00800000E+00  0.00000000E+00
  1.60000000E+01  1.00800000E+00  1.00800000E+00  0.00000000E+00  1.60000000E+01
  1.00800000E+00  1.00800000E+00  0.00000000E+00  1.60000000E+01  1.00800000E+00
  1.00800000E+00  0.00000000E+00  1.60000000E+01  1.00800000E+00  1.00800000E+00
  0.00000000E+00  1.60000000E+01  1.00800000E+00  1.00800000E+00  0.00000000E+00
  1.60000000E+01  1.00800000E+00  1.00800000E+00  0.00000000E+00  1.60000000E+01
  1.00800000E+00  1.00800000E+00  0.00000000E+00  1.60000000E+01  1.00800000E+00
  1.00800000E+00  0.00000000E+00  1.60000000E+01  1.00800000E+00  1.00800000E+00
  0.00000000E+00  1.60000000E+01  1.00800000E+00  1.00800000E+00  0.00000000E+00
  1.60000000E+01  1.00800000E+00  1.00800000E+00  0.00000000E+00  1.60000000E+01
  1.00800000E+00  1.00800000E+00  0.00000000E+00  1.60000000E+01  1.00800000E+00
  1.00800000E+00  0.00000000E+00  1.60000000E+01  1.00800000E+00  1.00800000E+00
  0.00000000E+00  1.60000000E+01  1.00800000E+00  1.00800000E+00  0.00000000E+00
  1.60000000E+01  1.00800000E+00  1.00800000E+00  0.00000000E+00  1.60000000E+01
  1.00800000E+00  1.00800000E+00  0.00000000E+00  1.60000000E+01  1.00800000E+00
  1.00800000E+00  0.00000000E+00  1.60000000E+01  1.00800000E+00  1.00800000E+00
  0.00000000E+00  1.60000000E+01  1.00800000E+00  1.00800000E+00  0.00000000E+00
  1.60000000E+01  1.00800000E+00  1.00800000E+00  0.00000000E+00  1.60000000E+01
  1.00800000E+00  1.00800000E+00  0.00000000E+00  1.60000000E+01  1.00800000E+00
  1.00800000E+00  0.00000000E+00  1.60000000E+01  1.00800000E+00  1.00800000E+00
  0.00000000E+00  1.60000000E+01  1.00800000E+00  1.00800000E+00  0.00000000E+00
  1.60000000E+01  1.00800000E+00  1.00800000E+00  0.00000000E+00  1.60000000E+01
  1.00800000E+00  1.00800000E+00  0.00000000E+00  1.60000000E+01  1.00800000E+00
  1.00800000E+00  0.00000000E+00  1.60000000E+01  1.00800000E+00  1.00800000E+00
  0.00000000E+00  1.60000000E+01  1.00800000E+00  1.00800000E+00  0.00000000E+00
  1.60000000E+01  1.00800000E+00  1.00800000E+00  0.00000000E+00  1.60000000E+01
  1.00800000E+00  1.00800000E+00  0.00000000E+00  1.60000000E+01  1.00800000E+00
  1.00800000E+00  0.00000000E+00  1.60000000E+01  1.00800000E+00  1.00800000E+00
  0.00000000E+00  1.60000000E+01  1.00800000E+00  1.00800000E+00  0.00000000E+00
  1.60000000E+01  1.00800000E+00  1.00800000E+00  0.00000000E+00  1.60000000E+01
  1.00800000E+00  1.00800000E+00  0.00000000E+00  1.60000000E+01  1.00800000E+00
  1.00800000E+00  0.00000000E+00  1.60000000E+01  1.00800000E+00  1.00800000E+00
  0.00000000E+00  1.60000000E+01  1.00800000E+00  1.00800000E+00  0.00000000E+00
  1.60000000E+01  1.00800000E+00  1.00800000E+00  0.00000000E+00  1.60000000E+01
  1.00800000E+00  1.00800000E+00  0.00000000E+00  1.60000000E+01  1.00800000E+00
  1.00800000E+00  0.00000000E+00  1.60000000E+01  1.00800000E+00  1.00800000E+00
  0.00000000E+00  1.60000000E+01  1.00800000E+00  1.00800000E+00  0.00000000E+00
  1.60000000E+01  1.00800000E+00  1.00800000E+00  0.00000000E+00  1.60000000E+01
  1.00800000E+00  1.00800000E+00  0.00000000E+00  1.60000000E+01  1.00800000E+00
  1.00800000E+00  0.00000000E+00  1.60000000E+01  1.00800000E+00  1.00800000E+00
  0.00000000E+00  1.60000000E+01  1.00800000E+00  1.00800000E+00  0.00000000E+00
  1.60000000E+01  1.00800000E+00  1.00800000E+00  0.00000000E+00  1.60000000E+01
  1.00800000E+00  1.00800000E+00  0.00000000E+00  1.60000000E+01  1.00800000E+00
  1.00800000E+00  0.00000000E+00  1.60000000E+01  1.00800000E+00  1.00800000E+00
  0.00000000E+00  1.60000000E+01  1.00800000E+00  1.00800000E+00  0.00000000E+00
  1.60000000E+01  1.00800000E+00  1.00800000E+00  0.00000000E+00  1.60000000E+01
  1.00800000E+00  1.00800000E+00  0.00000000E+00  1.60000000E+01  1.00800000E+00
  1.00800000E+00  0.00000000E+00  1.60000000E+01  1.00800000E+00  1.00800000E+00
  0.00000000E+00  1.60000000E+01  1.00800000E+00  1.00800000E+00  0.00000000E+00
  1.60000000E+01  1.00800000E+00  1.00800000E+00  0.00000000E+00  1.60000000E+01
  1.00800000E+00  1.00800000E+00  0.00000000E+00  1.60000000E+01  1.00800000E+00
  1.00800000E+00  0.00000000E+00  1.60000000E+01  1.00800000E+00  1.00800000E+00
  0.00000000E+00  1.60000000E+01  1.00800000E+00  1.00800000E+00  0.00000000E+00
  1.60000000E+01  1.00800000E+00  1.00800000E+00  0.00000000E+00  1.60000000E+01
  1.00800000E+00  1.00800000E+00  0.00000000E+00  1.60000000E+01  1.00800000E+00
  1.00800000E+00  0.00000000E+00  1.60000000E+01  1.00800000E+00  1.00800000E+00
  0.00000000E+00  1.60000000E+01  1.00800000E+00  1.00800000E+00  0.00000000E+00
  1.60000000E+01  1.00800000E+00  1.00800000E+00  0.00000000E+00  1.60000000E+01
  1.00800000E+00  1.00800000E+00  0.00000000E+00  1.60000000E+01  1.00800000E+00
  1.00800000E+00  0.00000000E+00  1.60000000E+01  1.00800000E+00  1.00800000E+00
  0.00000000E+00  1.60000000E+01  1.00800000E+00  1.00800000E+00  0.00000000E+00
  1.60000000E+01  1.00800000E+00  1.00800000E+00  0.00000000E+00  1.60000000E+01
  1.00800000E+00  1.00800000E+00  0.00000000E+00  1.60000000E+01  1.00800000E+00
  1.00800000E+00  0.00000000E+00  1.60000000E+01  1.00800000E+00  1.00800000E+00
  0.00000000E+00  1.60000000E+01  1.00800000E+00  1.00800000E+00  0.00000000E+00
  1.60000000E+01  1.00800000E+00  1.00800000E+00  0.00000000E+00  1.60000000E+01
  1.00800000E+00  1.00800000E+00  0.00000000E+00  1.60000000E+01  1.00800000E+00
  1.00800000E+00  0.00000000E+00  1.60000000E+01  1.00800000E+00  1.00800000E+00
  0.00000000E+00  1.60000000E+01  1.00800000E+00  1.00800000E+00  0.00000000E+00
  1.60000000E+01  1.00800000E+00  1.00800000E+00  0.00000000E+00  1.60000000E+01
  1.00800000E+00  1.00800000E+00  0.00000000E+00  1.60000000E+01  1.00800000E+00
  1.00800000E+00  0.00000000E+00  1.60000000E+01  1.00800000E+00  1.00800000E+00
  0.00000000E+00  1.60000000E+01  1.00800000E+00  1.00800000E+00  0.00000000E+00
  1.60000000E+01  1.00800000E+00  1.00800000E+00  0.00000000E+00  1.60000000E+01
  1.00800000E+00  1.00800000E+00  0.00000000E+00  1.60000000E+01  1.00800000E+00
  1.00800000E+00  0.00000000E+00  1.60000000E+01  1.00800000E+00  1.00800000E+00
  0.00000000E+00  1.60000000E+01  1.00800000E+00  1.00800000E+00  0.00000000E+00
  1.60000000E+01  1.00800000E+00  1.00800000E+00  0.00000000E+00  1.60000000E+01
  1.00800000E+00  1.00800000E+00  0.00000000E+00  1.60000000E+01  1.00800000E+00
  1.00800000E+00  0.00000000E+00  1.60000000E+01  1.00800000E+00  1.00800000E+00
  0.00000000E+00  1.60000000E+01  1.00800000E+00  1.00800000E+00  0.00000000E+00
  1.60000000E+01  1.00800000E+00  1.00800000E+00  0.00000000E+00  1.60000000E+01
  1.00800000E+00  1.00800000E+00  0.00000000E+00  1.60000000E+01  1.00800000E+00
  1.00800000E+00  0.00000000E+00  1.60000000E+01  1.00800000E+00  1.00800000E+00
  0.00000000E+00  1.60000000E+01  1.00800000E+00  1.00800000E+00  0.00000000E+00
  1.60000000E+01  1.00800000E+00  1.00800000E+00  0.00000000E+00  1.60000000E+01
  1.00800000E+00  1.00800000E+00  0.00000000E+00  1.60000000E+01  1.00800000E+00
  1.00800000E+00  0.00000000E+00  1.60000000E+01  1.00800000E+00  1.00800000E+00
  0.00000000E+00  1.60000000E+01  1.00800000E+00  1.00800000E+00  0.00000000E+00
  1.60000000E+01  1.00800000E+00  1.00800000E+00  0.00000000E+00  1.60000000E+01
  1.00800000E+00  1.00800000E+00  0.00000000E+00  1.60000000E+01  1.00800000E+00
  1.00800000E+00  0.00000000E+00  1.60000000E+01  1.00800000E+00  1.00800000E+00
  0.00000000E+00  1.60000000E+01  1.00800000E+00  1.00800000E+00  0.00000000E+00
  1.60000000E+01  1.00800000E+00  1.00800000E+00  0.00000000E+00  1.60000000E+01
  1.00800000E+00  1.00800000E+00  0.00000000E+00  1.60000000E+01  1.00800000E+00
  1.00800000E+00  0.00000000E+00  1.60000000E+01  1.00800000E+00  1.00800000E+00
  0.00000000E+00  1.60000000E+01  1.00800000E+00  1.00800000E+00  0.00000000E+00
  1.60000000E+01  1.00800000E+00  1.00800000E+00  0.00000000E+00  1.60000000E+01
  1.00800000E+00  1.00800000E+00  0.00000000E+00  1.60000000E+01  1.00800000E+00
  1.00800000E+00  0.00000000E+00  1.60000000E+01  1.00800000E+00  1.00800000E+00
  0.00000000E+00  1.60000000E+01  1.00800000E+00  1.00800000E+00  0.00000000E+00
  1.60000000E+01  1.00800000E+00  1.00800000E+00  0.00000000E+00  1.60000000E+01
  1.00800000E+00  1.00800000E+00  0.00000000E+00  1.60000000E+01  1.00800000E+00
  1.00800000E+00  0.00000000E+00  1.60000000E+01  1.00800000E+00  1.00800000E+00
  0.00000000E+00  1.60000000E+01  1.00800000E+00  1.00800000E+00  0.00000000E+00
  1.60000000E+01  1.00800000E+00  1.00800000E+00  0.00000000E+00  1.60000000E+01
  1.00800000E+00  1.00800000E+00  0.00000000E+00  1.60000000E+01  1.00800000E+00
  1.00800000E+00  0.00000000E+00  1.60000000E+01  1.00800000E+00  1.00800000E+00
  0.00000000E+00  1.60000000E+01  1.00800000E+00  1.00800000E+00  0.00000000E+00
  1.60000000E+01  1.00800000E+00  1.00800000E+00  0.00000000E+00  1.60000000E+01
  1.00800000E+00  1.00800000E+00  0.00000000E+00  1.60000000E+01  1.00800000E+00
  1.00800000E+00  0.00000000E+00  1.60000000E+01  1.00800000E+00  1.00800000E+00
  0.00000000E+00  1.60000000E+01  1.00800000E+00  1.00800000E+00  0.00000000E+00
  1.60000000E+01  1.00800000E+00  1.00800000E+00  0.00000000E+00  1.60000000E+01
  1.00800000E+00  1.00800000E+00  0.00000000E+00  1.60000000E+01  1.00800000E+00
  1.00800000E+00  0.00000000E+00  1.60000000E+01  1.00800000E+00  1.00800000E+00
  0.00000000E+00  1.60000000E+01  1.00800000E+00  1.00800000E+00  0.00000000E+00
  1.60000000E+01  1.00800000E+00  1.00800000E+00  0.00000000E+00  1.60000000E+01
  1.00800000E+00  1.00800000E+00  0.00000000E+00  1.60000000E+01  1.00800000E+00
  1.00800000E+00  0.00000000E+00  1.60000000E+01  1.00800000E+00  1.00800000E+00
  0.00000000E+00  1.60000000E+01  1.00800000E+00  1.00800000E+00  0.00000000E+00
  1.60000000E+01  1.00800000E+00  1.00800000E+00  0.00000000E+00  1.60000000E+01
  1.00800000E+00  1.00800000E+00  0.00000000E+00  1.60000000E+01  1.00800000E+00
  1.00800000E+00  0.00000000E+00  1.60000000E+01  1.00800000E+00  1.00800000E+00
  0.00000000E+00  1.60000000E+01  1.00800000E+00  1.00800000E+00  0.00000000E+00
  1.60000000E+01  1.00800000E+00  1.00800000E+00  0.00000000E+00  1.60000000E+01
  1.00800000E+00  1.00800000E+00  0.00000000E+00  1.60000000E+01  1.00800000E+00
  1.00800000E+00  0.00000000E+00  1.60000000E+01  1.00800000E+00  1.00800000E+00
  0.00000000E+00  1.60000000E+01  1.00800000E+00  1.00800000E+00  0.00000000E+00
  1.60000000E+01  1.00800000E+00  1.00800000E+00  0.00000000E+00  1.60000000E+01
  1.00800000E+00  1.00800000E+00  0.00000000E+00  1.60000000E+01  1.00800000E+00
  1.00800000E+00  0.00000000E+00  1.60000000E+01  1.00800000E+00  1.00800000E+00
  0.00000000E+00  1.60000000E+01  1.00800000E+00  1.00800000E+00  0.00000000E+00
  1.60000000E+01  1.00800000E+00  1.00800000E+00  0.00000000E+00  1.60000000E+01
  1.00800000E+00  1.00800000E+00  0.00000000E+00  1.60000000E+01  1.00800000E+00
  1.00800000E+00  0.00000000E+00  1.60000000E+01  1.00800000E+00  1.00800000E+00
  0.00000000E+00  1.60000000E+01  1.00800000E+00  1.00800000E+00  0.00000000E+00
  1.60000000E+01  1.00800000E+00  1.00800000E+00  0.00000000E+00  1.60000000E+01
  1.00800000E+00  1.00800000E+00  0.00000000E+00  1.60000000E+01  1.00800000E+00
  1.00800000E+00  0.00000000E+00  1.60000000E+01  1.00800000E+00  1.00800000E+00
  0.00000000E+00  1.60000000E+01  1.00800000E+00  1.00800000E+00  0.00000000E+00
  1.60000000E+01  1.00800000E+00  1.00800000E+00  0.00000000E+00  1.60000000E+01
  1.00800000E+00  1.00800000E+00  0.00000000E+00  1.60000000E+01  1.00800000E+00
  1.00800000E+00  0.00000000E+00  1.60000000E+01  1.00800000E+00  1.00800000E+00
  0.00000000E+00  1.60000000E+01  1.00800000E+00  1.00800000E+00  0.00000000E+00
  1.60000000E+01  1.00800000E+00  1.00800000E+00  0.00000000E+00  1.60000000E+01
  1.00800000E+00  1.00800000E+00  0.00000000E+00  1.60000000E+01  1.00800000E+00
  1.00800000E+00  0.00000000E+00  1.60000000E+01  1.00800000E+00  1.00800000E+00
  0.00000000E+00  1.60000000E+01  1.00800000E+00  1.00800000E+00  0.00000000E+00
  1.60000000E+01  1.00800000E+00  1.00800000E+00  0.00000000E+00  1.60000000E+01
  1.00800000E+00  1.00800000E+00  0.00000000E+00  1.60000000E+01  1.00800000E+00
  1.00800000E+00  0.00000000E+00  1.60000000E+01  1.00800000E+00  1.00800000E+00
  0.00000000E+00  1.60000000E+01  1.00800000E+00  1.00800000E+00  0.00000000E+00
  1.60000000E+01  1.00800000E+00  1.00800000E+00  0.00000000E+00  1.60000000E+01
  1.00800000E+00  1.00800000E+00  0.00000000E+00  1.60000000E+01  1.00800000E+00
  1.00800000E+00  0.00000000E+00  1.60000000E+01  1.00800000E+00  1.00800000E+00
  0.00000000E+00  1.60000000E+01  1.00800000E+00  1.00800000E+00  0.00000000E+00
  1.60000000E+01  1.00800000E+00  1.00800000E+00  0.00000000E+00  1.60000000E+01
  1.00800000E+00  1.00800000E+00  0.00000000E+00  1.60000000E+01  1.00800000E+00
  1.00800000E+00  0.00000000E+00  1.60000000E+01  1.00800000E+00  1.00800000E+00
  0.00000000E+00  1.60000000E+01  1.00800000E+00  1.00800000E+00  0.00000000E+00
  1.60000000E+01  1.00800000E+00  1.00800000E+00  0.00000000E+00  1.60000000E+01
  1.00800000E+00  1.00800000E+00  0.00000000E+00  1.60000000E+01  1.00800000E+00
  1.00800000E+00  0.00000000E+00  1.60000000E+01  1.00800000E+00  1.00800000E+00
  0.00000000E+00  1.60000000E+01  1.00800000E+00  1.00800000E+00  0.00000000E+00
  1.60000000E+01  1.00800000E+00  1.00800000E+00  0.00000000E+00  1.60000000E+01
  1.00800000E+00  1.00800000E+00  0.00000000E+00  1.60000000E+01  1.00800000E+00
  1.00800000E+00  0.00000000E+00  1.60000000E+01  1.00800000E+00  1.00800000E+00
  0.00000000E+00  1.60000000E+01  1.00800000E+00  1.00800000E+00  0.00000000E+00
  1.60000000E+01  1.00800000E+00  1.00800000E+00  0.00000000E+00  1.60000000E+01
  1.00800000E+00  1.00800000E+00  0.00000000E+00  1.60000000E+01  1.00800000E+00
  1.00800000E+00  0.00000000E+00  1.60000000E+01  1.00800000E+00  1.00800000E+00
  0.00000000E+00  1.60000000E+01  1.00800000E+00  1.00800000E+00  0.00000000E+00
  1.60000000E+01  1.00800000E+00  1.00800000E+00  0.00000000E+00  1.60000000E+01
  1.00800000E+00  1.00800000E+00  0.00000000E+00  1.60000000E+01  1.00800000E+00
  1.00800000E+00  0.00000000E+00  1.60000000E+01  1.00800000E+00  1.00800000E+00
  0.00000000E+00  1.60000000E+01  1.00800000E+00  1.00800000E+00  0.00000000E+00
  1.60000000E+01  1.00800000E+00  1.00800000E+00  0.00000000E+00  1.60000000E+01
  1.00800000E+00  1.00800000E+00  0.00000000E+00  1.60000000E+01  1.00800000E+00
  1.00800000E+00  0.00000000E+00  1.60000000E+01  1.00800000E+00  1.00800000E+00
  0.00000000E+00  1.60000000E+01  1.00800000E+00  1.00800000E+00  0.00000000E+00
  1.60000000E+01  1.00800000E+00  1.00800000E+00  0.00000000E+00  1.60000000E+01
  1.00800000E+00  1.00800000E+00  0.00000000E+00  1.60000000E+01  1.00800000E+00
  1.00800000E+00  0.00000000E+00  1.60000000E+01  1.00800000E+00  1.00800000E+00
  0.00000000E+00  1.60000000E+01  1.00800000E+00  1.00800000E+00  0.00000000E+00
  1.60000000E+01  1.00800000E+00  1.00800000E+00  0.00000000E+00  1.60000000E+01
  1.00800000E+00  1.00800000E+00  0.00000000E+00  1.60000000E+01  1.00800000E+00
  1.00800000E+00  0.00000000E+00  1.60000000E+01  1.00800000E+00  1.00800000E+00
  0.00000000E+00  1.60000000E+01  1.00800000E+00  1.00800000E+00  0.00000000E+00
  1.60000000E+01  1.00800000E+00  1.00800000E+00  0.00000000E+00  1.60000000E+01
  1.00800000E+00  1.00800000E+00  0.00000000E+00  1.60000000E+01  1.00800000E+00
  1.00800000E+00  0.00000000E+00  1.60000000E+01  1.00800000E+00  1.00800000E+00
  0.00000000E+00  1.60000000E+01  1.00800000E+00  1.00800000E+00  0.00000000E+00
  1.60000000E+01  1.00800000E+00  1.00800000E+00  0.00000000E+00  1.60000000E+01
  1.00800000E+00  1.00800000E+00  0.00000000E+00  1.60000000E+01  1.00800000E+00
  1.00800000E+00  0.00000000E+00  1.60000000E+01  1.00800000E+00  1.00800000E+00
  0.00000000E+00  1.60000000E+01  1.00800000E+00  1.00800000E+00  0.00000000E+00
  1.60000000E+01  1.00800000E+00  1.00800000E+00  0.00000000E+00  1.60000000E+01
  1.00800000E+00  1.00800000E+00  0.00000000E+00  1.60000000E+01  1.00800000E+00
  1.00800000E+00  0.00000000E+00  1.60000000E+01  1.00800000E+00  1.00800000E+00
  0.00000000E+00  1.60000000E+01  1.00800000E+00  1.00800000E+00  0.00000000E+00
  1.60000000E+01  1.00800000E+00  1.00800000E+00  0.00000000E+00  1.60000000E+01
  1.00800000E+00  1.00800000E+00  0.00000000E+00  1.60000000E+01  1.00800000E+00
  1.00800000E+00  0.00000000E+00  1.60000000E+01  1.00800000E+00  1.00800000E+00
  0.00000000E+00  1.60000000E+01  1.00800000E+00  1.00800000E+00  0.00000000E+00
  1.60000000E+01  1.00800000E+00  1.00800000E+00  0.00000000E+00  1.60000000E+01
  1.00800000E+00  1.00800000E+00  0.00000000E+00  1.60000000E+01  1.00800000E+00
  1.00800000E+00  0.00000000E+00  1.60000000E+01  1.00800000E+00  1.00800000E+00
  0.00000000E+00  1.60000000E+01  1.00800000E+00  1.00800000E+00  0.00000000E+00
  1.60000000E+01  1.00800000E+00  1.00800000E+00  0.00000000E+00  1.60000000E+01
  1.00800000E+00  1.00800000E+00  0.00000000E+00  1.60000000E+01  1.00800000E+00
  1.00800000E+00  0.00000000E+00  1.60000000E+01  1.00800000E+00  1.00800000E+00
  0.00000000E+00  1.60000000E+01  1.00800000E+00  1.00800000E+00  0.00000000E+00
  1.60000000E+01  1.00800000E+00  1.00800000E+00  0.00000000E+00  1.60000000E+01
  1.00800000E+00  1.00800000E+00  0.00000000E+00  1.60000000E+01  1.00800000E+00
  1.00800000E+00  0.00000000E+00  1.60000000E+01  1.00800000E+00  1.00800000E+00
  0.00000000E+00  1.60000000E+01  1.00800000E+00  1.00800000E+00  0.00000000E+00
  1.60000000E+01  1.00800000E+00  1.00800000E+00  0.00000000E+00  1.60000000E+01
  1.00800000E+00  1.00800000E+00  0.00000000E+00  1.60000000E+01  1.00800000E+00
  1.00800000E+00  0.00000000E+00  1.60000000E+01  1.00800000E+00  1.00800000E+00
  0.00000000E+00  1.60000000E+01  1.00800000E+00  1.00800000E+00  0.00000000E+00
  1.60000000E+01  1.00800000E+00  1.00800000E+00  0.00000000E+00  1.60000000E+01
  1.00800000E+00  1.00800000E+00  0.00000000E+00  1.60000000E+01  1.00800000E+00
  1.00800000E+00  0.00000000E+00  1.60000000E+01  1.00800000E+00  1.00800000E+00
  0.00000000E+00  1.60000000E+01  1.00800000E+00  1.00800000E+00  0.00000000E+00
  1.60000000E+01  1.00800000E+00  1.00800000E+00  0.00000000E+00  1.60000000E+01
  1.00800000E+00  1.00800000E+00  0.00000000E+00  1.60000000E+01  1.00800000E+00
  1.00800000E+00  0.00000000E+00  1.60000000E+01  1.00800000E+00  1.00800000E+00
  0.00000000E+00  1.60000000E+01  1.00800000E+00  1.00800000E+00  0.00000000E+00
  1.60000000E+01  1.00800000E+00  1.00800000E+00  0.00000000E+00  1.60000000E+01
  1.00800000E+00  1.00800000E+00  0.00000000E+00  1.60000000E+01  1.00800000E+00
  1.00800000E+00  0.00000000E+00  1.60000000E+01  1.00800000E+00  1.00800000E+00
  0.00000000E+00  1.60000000E+01  1.00800000E+00  1.00800000E+00  0.00000000E+00
  1.60000000E+01  1.00800000E+00  1.00800000E+00  0.00000000E+00  1.60000000E+01
  1.00800000E+00  1.00800000E+00  0.00000000E+00  1.60000000E+01  1.00800000E+00
  1.00800000E+00  0.00000000E+00  1.60000000E+01  1.00800000E+00  1.00800000E+00
  0.00000000E+00  1.60000000E+01  1.00800000E+00  1.00800000E+00  0.00000000E+00
  1.60000000E+01  1.00800000E+00  1.00800000E+00  0.00000000E+00  1.60000000E+01
  1.00800000E+00  1.00800000E+00  0.00000000E+00  1.60000000E+01  1.00800000E+00
  1.00800000E+00  0.00000000E+00  1.60000000E+01  1.00800000E+00  1.00800000E+00
  0.00000000E+00  1.60000000E+01  1.00800000E+00  1.00800000E+00  0.00000000E+00
  1.60000000E+01  1.00800000E+00  1.00800000E+00  0.00000000E+00  1.60000000E+01
  1.00800000E+00  1.00800000E+00  0.00000000E+00  1.60000000E+01  1.00800000E+00
  1.00800000E+00  0.00000000E+00  1.60000000E+01  1.00800000E+00  1.00800000E+00
  0.00000000E+00  1.60000000E+01  1.00800000E+00  1.00800000E+00  0.00000000E+00
  1.60000000E+01  1.00800000E+00  1.00800000E+00  0.00000000E+00  1.60000000E+01
  1.00800000E+00  1.00800000E+00  0.00000000E+00  1.60000000E+01  1.00800000E+00
  1.00800000E+00  0.00000000E+00  1.60000000E+01  1.00800000E+00  1.00800000E+00
  0.00000000E+00  1.60000000E+01  1.00800000E+00  1.00800000E+00  0.00000000E+00
  1.60000000E+01  1.00800000E+00  1.00800000E+00  0.00000000E+00  1.60000000E+01
  1.00800000E+00  1.00800000E+00  0.00000000E+00  1.60000000E+01  1.00800000E+00
  1.00800000E+00  0.00000000E+00  1.60000000E+01  1.00800000E+00  1.00800000E+00
  0.00000000E+00  1.60000000E+01  1.00800000E+00  1.00800000E+00  0.00000000E+00
  1.60000000E+01  1.00800000E+00  1.00800000E+00  0.00000000E+00  1.60000000E+01
  1.00800000E+00  1.00800000E+00  0.00000000E+00  1.60000000E+01  1.00800000E+00
  1.00800000E+00  0.00000000E+00  1.60000000E+01  1.00800000E+00  1.00800000E+00
  0.00000000E+00  1.60000000E+01  1.00800000E+00  1.00800000E+00  0.00000000E+00
  1.60000000E+01  1.00800000E+00  1.00800000E+00  0.00000000E+00  1.60000000E+01
  1.00800000E+00  1.00800000E+00  0.00000000E+00  1.60000000E+01  1.00800000E+00
  1.00800000E+00  0.00000000E+00  1.60000000E+01  1.00800000E+00  1.00800000E+00
  0.00000000E+00  1.60000000E+01  1.00800000E+00  1.00800000E+00  0.00000000E+00
  1.60000000E+01  1.00800000E+00  1.00800000E+00  0.00000000E+00  1.60000000E+01
  1.00800000E+00  1.00800000E+00  0.00000000E+00  1.60000000E+01  1.00800000E+00
  1.00800000E+00  0.00000000E+00  1.60000000E+01  1.00800000E+00  1.00800000E+00
  0.00000000E+00  1.60000000E+01  1.00800000E+00  1.00800000E+00  0.00000000E+00
  1.60000000E+01  1.00800000E+00  1.00800000E+00  0.00000000E+00  1.60000000E+01
  1.00800000E+00  1.00800000E+00  0.00000000E+00  1.60000000E+01  1.00800000E+00
  1.00800000E+00  0.00000000E+00  1.60000000E+01  1.00800000E+00  1.00800000E+00
  0.00000000E+00  1.60000000E+01  1.00800000E+00  1.00800000E+00  0.00000000E+00
  1.60000000E+01  1.00800000E+00  1.00800000E+00  0.00000000E+00  1.60000000E+01
  1.00800000E+00  1.00800000E+00  0.00000000E+00  1.60000000E+01  1.00800000E+00
  1.00800000E+00  0.00000000E+00  1.60000000E+01  1.00800000E+00  1.00800000E+00
  0.00000000E+00  1.60000000E+01  1.00800000E+00  1.00800000E+00  0.00000000E+00
  1.60000000E+01  1.00800000E+00  1.00800000E+00  0.00000000E+00  1.60000000E+01
  1.00800000E+00  1.00800000E+00  0.00000000E+00  1.60000000E+01  1.00800000E+00
  1.00800000E+00  0.00000000E+00  1.60000000E+01  1.00800000E+00  1.00800000E+00
  0.00000000E+00  1.60000000E+01  1.00800000E+00  1.00800000E+00  0.00000000E+00
  1.60000000E+01  1.00800000E+00  1.00800000E+00  0.00000000E+00  1.60000000E+01
  1.00800000E+00  1.00800000E+00  0.00000000E+00  1.60000000E+01  1.00800000E+00
  1.00800000E+00  0.00000000E+00  1.60000000E+01  1.00800000E+00  1.00800000E+00
  0.00000000E+00  1.60000000E+01  1.00800000E+00  1.00800000E+00  0.00000000E+00
  1.60000000E+01  1.00800000E+00  1.00800000E+00  0.00000000E+00  1.60000000E+01
  1.00800000E+00  1.00800000E+00  0.00000000E+00  1.60000000E+01  1.00800000E+00
  1.00800000E+00  0.00000000E+00  1.60000000E+01  1.00800000E+00  1.00800000E+00
  0.00000000E+00  1.60000000E+01  1.00800000E+00  1.00800000E+00  0.00000000E+00
  1.60000000E+01  1.00800000E+00  1.00800000E+00  0.00000000E+00  1.60000000E+01
  1.00800000E+00  1.00800000E+00  0.00000000E+00  1.60000000E+01  1.00800000E+00
  1.00800000E+00  0.00000000E+00  1.60000000E+01  1.00800000E+00  1.00800000E+00
  0.00000000E+00  1.60000000E+01  1.00800000E+00  1.00800000E+00  0.00000000E+00
  1.60000000E+01  1.00800000E+00  1.00800000E+00  0.00000000E+00  1.60000000E+01
  1.00800000E+00  1.00800000E+00  0.00000000E+00  1.60000000E+01  1.00800000E+00
  1.00800000E+00  0.00000000E+00  1.60000000E+01  1.00800000E+00  1.00800000E+00
  0.00000000E+00  1.60000000E+01  1.00800000E+00  1.00800000E+00  0.00000000E+00
  1.60000000E+01  1.00800000E+00  1.00800000E+00  0.00000000E+00  1.60000000E+01
  1.00800000E+00  1.00800000E+00  0.00000000E+00  1.60000000E+01  1.00800000E+00
  1.00800000E+00  0.00000000E+00  1.60000000E+01  1.00800000E+00  1.00800000E+00
  0.00000000E+00  1.60000000E+01  1.00800000E+00  1.00800000E+00  0.00000000E+00
  1.60000000E+01  1.00800000E+00  1.00800000E+00  0.00000000E+00  1.60000000E+01
  1.00800000E+00  1.00800000E+00  0.00000000E+00  1.60000000E+01  1.00800000E+00
  1.00800000E+00  0.00000000E+00  1.60000000E+01  1.00800000E+00  1.00800000E+00
  0.00000000E+00  1.60000000E+01  1.00800000E+00  1.00800000E+00  0.00000000E+00
  1.60000000E+01  1.00800000E+00  1.00800000E+00  0.00000000E+00  1.60000000E+01
  1.00800000E+00  1.00800000E+00  0.00000000E+00  1.60000000E+01  1.00800000E+00
  1.00800000E+00  0.00000000E+00  1.60000000E+01  1.00800000E+00  1.00800000E+00
  0.00000000E+00  1.60000000E+01  1.00800000E+00  1.00800000E+00  0.00000000E+00
  1.60000000E+01  1.00800000E+00  1.00800000E+00  0.00000000E+00  1.60000000E+01
  1.00800000E+00  1.00800000E+00  0.00000000E+00  1.60000000E+01  1.00800000E+00
  1.00800000E+00  0.00000000E+00  1.60000000E+01  1.00800000E+00  1.00800000E+00
  0.00000000E+00  1.60000000E+01  1.00800000E+00  1.00800000E+00  0.00000000E+00
  1.60000000E+01  1.00800000E+00  1.00800000E+00  0.00000000E+00  1.60000000E+01
  1.00800000E+00  1.00800000E+00  0.00000000E+00  1.60000000E+01  1.00800000E+00
  1.00800000E+00  0.00000000E+00  1.60000000E+01  1.00800000E+00  1.00800000E+00
  0.00000000E+00  1.60000000E+01  1.00800000E+00  1.00800000E+00  0.00000000E+00
  1.60000000E+01  1.00800000E+00  1.00800000E+00  0.00000000E+00  1.60000000E+01
  1.00800000E+00  1.00800000E+00  0.00000000E+00  1.60000000E+01  1.00800000E+00
  1.00800000E+00  0.00000000E+00  1.60000000E+01  1.00800000E+00  1.00800000E+00
  0.00000000E+00  1.60000000E+01  1.00800000E+00  1.00800000E+00  0.00000000E+00
  1.60000000E+01  1.00800000E+00  1.00800000E+00  0.00000000E+00  1.60000000E+01
  1.00800000E+00  1.00800000E+00  0.00000000E+00  1.60000000E+01  1.00800000E+00
  1.00800000E+00  0.00000000E+00  1.60000000E+01  1.00800000E+00  1.00800000E+00
  0.00000000E+00  1.60000000E+01  1.00800000E+00  1.00800000E+00  0.00000000E+00
  1.60000000E+01  1.00800000E+00  1.00800000E+00  0.00000000E+00  1.60000000E+01
  1.00800000E+00  1.00800000E+00  0.00000000E+00  1.60000000E+01  1.00800000E+00
  1.00800000E+00  0.00000000E+00  1.60000000E+01  1.00800000E+00  1.00800000E+00
  0.00000000E+00  1.60000000E+01  1.00800000E+00  1.00800000E+00  0.00000000E+00
  1.60000000E+01  1.00800000E+00  1.00800000E+00  0.00000000E+00  1.60000000E+01
  1.00800000E+00  1.00800000E+00  0.00000000E+00  1.60000000E+01  1.00800000E+00
  1.00800000E+00  0.00000000E+00  1.60000000E+01  1.00800000E+00  1.00800000E+00
  0.00000000E+00  1.60000000E+01  1.00800000E+00  1.00800000E+00  0.00000000E+00
  1.60000000E+01  1.00800000E+00  1.00800000E+00  0.00000000E+00  1.60000000E+01
  1.00800000E+00  1.00800000E+00  0.00000000E+00  1.60000000E+01  1.00800000E+00
  1.00800000E+00  0.00000000E+00  1.60000000E+01  1.00800000E+00  1.00800000E+00
  0.00000000E+00  1.60000000E+01  1.00800000E+00  1.00800000E+00  0.00000000E+00
  1.60000000E+01  1.00800000E+00  1.00800000E+00  0.00000000E+00  1.60000000E+01
  1.00800000E+00  1.00800000E+00  0.00000000E+00  1.60000000E+01  1.00800000E+00
  1.00800000E+00  0.00000000E+00  1.60000000E+01  1.00800000E+00  1.00800000E+00
  0.00000000E+00  1.60000000E+01  1.00800000E+00  1.00800000E+00  0.00000000E+00
  1.60000000E+01  1.00800000E+00  1.00800000E+00  0.00000000E+00  1.60000000E+01
  1.00800000E+00  1.00800000E+00  0.00000000E+00  1.60000000E+01  1.00800000E+00
  1.00800000E+00  0.00000000E+00  1.60000000E+01  1.00800000E+00  1.00800000E+00
  0.00000000E+00  1.60000000E+01  1.00800000E+00  1.00800000E+00  0.00000000E+00
  1.60000000E+01  1.00800000E+00  1.00800000E+00  0.00000000E+00  1.60000000E+01
  1.00800000E+00  1.00800000E+00  0.00000000E+00  1.60000000E+01  1.00800000E+00
  1.00800000E+00  0.00000000E+00  1.60000000E+01  1.00800000E+00  1.00800000E+00
  0.00000000E+00  1.60000000E+01  1.00800000E+00  1.00800000E+00  0.00000000E+00
  1.60000000E+01  1.00800000E+00  1.00800000E+00  0.00000000E+00  1.60000000E+01
  1.00800000E+00  1.00800000E+00  0.00000000E+00  1.60000000E+01  1.00800000E+00
  1.00800000E+00  0.00000000E+00  1.60000000E+01  1.00800000E+00  1.00800000E+00
  0.00000000E+00  1.60000000E+01  1.00800000E+00  1.00800000E+00  0.00000000E+00
  1.60000000E+01  1.00800000E+00  1.00800000E+00  0.00000000E+00  1.60000000E+01
  1.00800000E+00  1.00800000E+00  0.00000000E+00  1.60000000E+01  1.00800000E+00
  1.00800000E+00  0.00000000E+00  1.60000000E+01  1.00800000E+00  1.00800000E+00
  0.00000000E+00  1.60000000E+01  1.00800000E+00  1.00800000E+00  0.00000000E+00
  1.60000000E+01  1.00800000E+00  1.00800000E+00  0.00000000E+00  1.60000000E+01
  1.00800000E+00  1.00800000E+00  0.00000000E+00  1.60000000E+01  1.00800000E+00
  1.00800000E+00  0.00000000E+00  1.60000000E+01  1.00800000E+00  1.00800000E+00
  0.00000000E+00  1.60000000E+01  1.00800000E+00  1.00800000E+00  0.00000000E+00
  1.60000000E+01  1.00800000E+00  1.00800000E+00  0.00000000E+00  1.60000000E+01
  1.00800000E+00  1.00800000E+00  0.00000000E+00  1.60000000E+01  1.00800000E+00
  1.00800000E+00  0.00000000E+00  1.60000000E+01  1.00800000E+00  1.00800000E+00
  0.00000000E+00  1.60000000E+01  1.00800000E+00  1.00800000E+00  0.00000000E+00
  1.60000000E+01  1.00800000E+00  1.00800000E+00  0.00000000E+00  1.60000000E+01
  1.00800000E+00  1.00800000E+00  0.00000000E+00  1.60000000E+01  1.00800000E+00
  1.00800000E+00  0.00000000E+00  1.60000000E+01  1.00800000E+00  1.00800000E+00
  0.00000000E+00  1.60000000E+01  1.00800000E+00  1.00800000E+00  0.00000000E+00
  1.60000000E+01  1.00800000E+00  1.00800000E+00  0.00000000E+00  1.60000000E+01
  1.00800000E+00  1.00800000E+00  0.00000000E+00  1.60000000E+01  1.00800000E+00
  1.00800000E+00  0.00000000E+00  1.60000000E+01  1.00800000E+00  1.00800000E+00
  0.00000000E+00  1.60000000E+01  1.00800000E+00  1.00800000E+00  0.00000000E+00
  1.60000000E+01  1.00800000E+00  1.00800000E+00  0.00000000E+00  1.60000000E+01
  1.00800000E+00  1.00800000E+00  0.00000000E+00  1.60000000E+01  1.00800000E+00
  1.00800000E+00  0.00000000E+00  1.60000000E+01  1.00800000E+00  1.00800000E+00
  0.00000000E+00  1.60000000E+01  1.00800000E+00  1.00800000E+00  0.00000000E+00
  1.60000000E+01  1.00800000E+00  1.00800000E+00  0.00000000E+00  1.60000000E+01
  1.00800000E+00  1.00800000E+00  0.00000000E+00  1.60000000E+01  1.00800000E+00
  1.00800000E+00  0.00000000E+00  1.60000000E+01  1.00800000E+00  1.00800000E+00
  0.00000000E+00  1.60000000E+01  1.00800000E+00  1.00800000E+00  0.00000000E+00
  1.60000000E+01  1.00800000E+00  1.00800000E+00  0.00000000E+00  1.60000000E+01
  1.00800000E+00  1.00800000E+00  0.00000000E+00  1.60000000E+01  1.00800000E+00
  1.00800000E+00  0.00000000E+00  1.60000000E+01  1.00800000E+00  1.00800000E+00
  0.00000000E+00  1.60000000E+01  1.00800000E+00  1.00800000E+00  0.00000000E+00
  1.60000000E+01  1.00800000E+00  1.00800000E+00  0.00000000E+00  1.60000000E+01
  1.00800000E+00  1.00800000E+00  0.00000000E+00  1.60000000E+01  1.00800000E+00
  1.00800000E+00  0.00000000E+00  1.60000000E+01  1.00800000E+00  1.00800000E+00
  0.00000000E+00  1.60000000E+01  1.00800000E+00  1.00800000E+00  0.00000000E+00
  1.60000000E+01  1.00800000E+00  1.00800000E+00  0.00000000E+00  1.60000000E+01
  1.00800000E+00  1.00800000E+00  0.00000000E+00  1.60000000E+01  1.00800000E+00
  1.00800000E+00  0.00000000E+00  1.60000000E+01  1.00800000E+00  1.00800000E+00
  0.00000000E+00  1.60000000E+01  1.00800000E+00  1.00800000E+00  0.00000000E+00
  1.60000000E+01  1.00800000E+00  1.00800000E+00  0.00000000E+00  1.60000000E+01
  1.00800000E+00  1.00800000E+00  0.00000000E+00  1.60000000E+01  1.00800000E+00
  1.00800000E+00  0.00000000E+00  1.60000000E+01  1.00800000E+00  1.00800000E+00
  0.00000000E+00  1.60000000E+01  1.00800000E+00  1.00800000E+00  0.00000000E+00
  1.60000000E+01  1.00800000E+00  1.00800000E+00  0.00000000E+00  1.60000000E+01
  1.00800000E+00  1.00800000E+00  0.00000000E+00  1.60000000E+01  1.00800000E+00
  1.00800000E+00  0.00000000E+00  1.60000000E+01  1.00800000E+00  1.00800000E+00
  0.00000000E+00  1.60000000E+01  1.00800000E+00  1.00800000E+00  0.00000000E+00
  1.60000000E+01  1.00800000E+00  1.00800000E+00  0.00000000E+00  1.60000000E+01
  1.00800000E+00  1.00800000E+00  0.00000000E+00  1.60000000E+01  1.00800000E+00
  1.00800000E+00  0.00000000E+00  1.60000000E+01  1.00800000E+00  1.00800000E+00
  0.00000000E+00  1.60000000E+01  1.00800000E+00  1.00800000E+00  0.00000000E+00
  1.60000000E+01  1.00800000E+00  1.00800000E+00  0.00000000E+00  1.60000000E+01
  1.00800000E+00  1.00800000E+00  0.00000000E+00  1.60000000E+01  1.00800000E+00
  1.00800000E+00  0.00000000E+00  1.60000000E+01  1.00800000E+00  1.00800000E+00
  0.00000000E+00  1.60000000E+01  1.00800000E+00  1.00800000E+00  0.00000000E+00
  1.60000000E+01  1.00800000E+00  1.00800000E+00  0.00000000E+00  1.60000000E+01
  1.00800000E+00  1.00800000E+00  0.00000000E+00  1.60000000E+01  1.00800000E+00
  1.00800000E+00  0.00000000E+00  1.60000000E+01  1.00800000E+00  1.00800000E+00
  0.00000000E+00  1.60000000E+01  1.00800000E+00  1.00800000E+00  0.00000000E+00
  1.60000000E+01  1.00800000E+00  1.00800000E+00  0.00000000E+00  1.60000000E+01
  1.00800000E+00  1.00800000E+00  0.00000000E+00  1.60000000E+01  1.00800000E+00
  1.00800000E+00  0.00000000E+00  1.60000000E+01  1.00800000E+00  1.00800000E+00
  0.00000000E+00  1.60000000E+01  1.00800000E+00  1.00800000E+00  0.00000000E+00
  1.60000000E+01  1.00800000E+00  1.00800000E+00  0.00000000E+00  1.60000000E+01
  1.00800000E+00  1.00800000E+00  0.00000000E+00  1.60000000E+01  1.00800000E+00
  1.00800000E+00  0.00000000E+00  1.60000000E+01  1.00800000E+00  1.00800000E+00
  0.00000000E+00  1.60000000E+01  1.00800000E+00  1.00800000E+00  0.00000000E+00
  1.60000000E+01  1.00800000E+00  1.00800000E+00  0.00000000E+00  1.60000000E+01
  1.00800000E+00  1.00800000E+00  0.00000000E+00  1.60000000E+01  1.00800000E+00
  1.00800000E+00  0.00000000E+00  1.60000000E+01  1.00800000E+00  1.00800000E+00
  0.00000000E+00  1.60000000E+01  1.00800000E+00  1.00800000E+00  0.00000000E+00
  1.60000000E+01  1.00800000E+00  1.00800000E+00  0.00000000E+00  1.60000000E+01
  1.00800000E+00  1.00800000E+00  0.00000000E+00  1.60000000E+01  1.00800000E+00
  1.00800000E+00  0.00000000E+00  1.60000000E+01  1.00800000E+00  1.00800000E+00
  0.00000000E+00  1.60000000E+01  1.00800000E+00  1.00800000E+00  0.00000000E+00
  1.60000000E+01  1.00800000E+00  1.00800000E+00  0.00000000E+00  1.60000000E+01
  1.00800000E+00  1.00800000E+00  0.00000000E+00  1.60000000E+01  1.00800000E+00
  1.00800000E+00  0.00000000E+00  1.60000000E+01  1.00800000E+00  1.00800000E+00
  0.00000000E+00  1.60000000E+01  1.00800000E+00  1.00800000E+00  0.00000000E+00
  1.60000000E+01  1.00800000E+00  1.00800000E+00  0.00000000E+00  1.60000000E+01
  1.00800000E+00  1.00800000E+00  0.00000000E+00  1.60000000E+01  1.00800000E+00
  1.00800000E+00  0.00000000E+00  1.60000000E+01  1.00800000E+00  1.00800000E+00
  0.00000000E+00  1.60000000E+01  1.00800000E+00  1.00800000E+00  0.00000000E+00
  1.60000000E+01  1.00800000E+00  1.00800000E+00  0.00000000E+00  1.60000000E+01
  1.00800000E+00  1.00800000E+00  0.00000000E+00  1.60000000E+01  1.00800000E+00
  1.00800000E+00  0.00000000E+00  1.60000000E+01  1.00800000E+00  1.00800000E+00
  0.00000000E+00  1.60000000E+01  1.00800000E+00  1.00800000E+00  0.00000000E+00
  1.60000000E+01  1.00800000E+00  1.00800000E+00  0.00000000E+00  1.60000000E+01
  1.00800000E+00  1.00800000E+00  0.00000000E+00  1.60000000E+01  1.00800000E+00
  1.00800000E+00  0.00000000E+00  1.60000000E+01  1.00800000E+00  1.00800000E+00
  0.00000000E+00  1.60000000E+01  1.00800000E+00  1.00800000E+00  0.00000000E+00
  1.60000000E+01  1.00800000E+00  1.00800000E+00  0.00000000E+00  1.60000000E+01
  1.00800000E+00  1.00800000E+00  0.00000000E+00  1.60000000E+01  1.00800000E+00
  1.00800000E+00  0.00000000E+00  1.60000000E+01  1.00800000E+00  1.00800000E+00
  0.00000000E+00  1.60000000E+01  1.00800000E+00  1.00800000E+00  0.00000000E+00
  1.60000000E+01  1.00800000E+00  1.00800000E+00  0.00000000E+00  1.60000000E+01
  1.00800000E+00  1.00800000E+00  0.00000000E+00  1.60000000E+01  1.00800000E+00
  1.00800000E+00  0.00000000E+00  1.60000000E+01  1.00800000E+00  1.00800000E+00
  0.00000000E+00  1.60000000E+01  1.00800000E+00  1.00800000E+00  0.00000000E+00
  1.60000000E+01  1.00800000E+00  1.00800000E+00  0.00000000E+00  1.60000000E+01
  1.00800000E+00  1.00800000E+00  0.00000000E+00  1.60000000E+01  1.00800000E+00
  1.00800000E+00  0.00000000E+00  1.60000000E+01  1.00800000E+00  1.00800000E+00
  0.00000000E+00  1.60000000E+01  1.00800000E+00  1.00800000E+00  0.00000000E+00
  1.60000000E+01  1.00800000E+00  1.00800000E+00  0.00000000E+00  1.60000000E+01
  1.00800000E+00  1.00800000E+00  0.00000000E+00  1.60000000E+01  1.00800000E+00
  1.00800000E+00  0.00000000E+00  1.60000000E+01  1.00800000E+00  1.00800000E+00
  0.00000000E+00  1.60000000E+01  1.00800000E+00  1.00800000E+00  0.00000000E+00
  1.60000000E+01  1.00800000E+00  1.00800000E+00  0.00000000E+00  1.60000000E+01
  1.00800000E+00  1.00800000E+00  0.00000000E+00  1.60000000E+01  1.00800000E+00
  1.00800000E+00  0.00000000E+00  1.60000000E+01  1.00800000E+00  1.00800000E+00
  0.00000000E+00  1.60000000E+01  1.00800000E+00  1.00800000E+00  0.00000000E+00
  1.60000000E+01  1.00800000E+00  1.00800000E+00  0.00000000E+00  1.60000000E+01
  1.00800000E+00  1.00800000E+00  0.00000000E+00  1.60000000E+01  1.00800000E+00
  1.00800000E+00  0.00000000E+00  1.60000000E+01  1.00800000E+00  1.00800000E+00
  0.00000000E+00  1.60000000E+01  1.00800000E+00  1.00800000E+00  0.00000000E+00
  1.60000000E+01  1.00800000E+00  1.00800000E+00  0.00000000E+00  1.60000000E+01
  1.00800000E+00  1.00800000E+00  0.00000000E+00  1.60000000E+01  1.00800000E+00
  1.00800000E+00  0.00000000E+00  1.60000000E+01  1.00800000E+00  1.00800000E+00
  0.00000000E+00  1.60000000E+01  1.00800000E+00  1.00800000E+00  0.00000000E+00
  1.60000000E+01  1.00800000E+00  1.00800000E+00  0.00000000E+00  1.60000000E+01
  1.00800000E+00  1.00800000E+00  0.00000000E+00  1.60000000E+01  1.00800000E+00
  1.00800000E+00  0.00000000E+00  1.60000000E+01  1.00800000E+00  1.00800000E+00
  0.00000000E+00  1.60000000E+01  1.00800000E+00  1.00800000E+00  0.00000000E+00
  1.60000000E+01  1.00800000E+00  1.00800000E+00  0.00000000E+00  1.60000000E+01
  1.00800000E+00  1.00800000E+00  0.00000000E+00  1.60000000E+01  1.00800000E+00
  1.00800000E+00  0.00000000E+00  1.60000000E+01  1.00800000E+00  1.00800000E+00
  0.00000000E+00  1.60000000E+01  1.00800000E+00  1.00800000E+00  0.00000000E+00
  1.60000000E+01  1.00800000E+00  1.00800000E+00  0.00000000E+00  1.60000000E+01
  1.00800000E+00  1.00800000E+00  0.00000000E+00  1.60000000E+01  1.00800000E+00
  1.00800000E+00  0.00000000E+00  1.60000000E+01  1.00800000E+00  1.00800000E+00
  0.00000000E+00  1.60000000E+01  1.00800000E+00  1.00800000E+00  0.00000000E+00
  1.60000000E+01  1.00800000E+00  1.00800000E+00  0.00000000E+00  1.60000000E+01
  1.00800000E+00  1.00800000E+00  0.00000000E+00  1.60000000E+01  1.00800000E+00
  1.00800000E+00  0.00000000E+00  1.60000000E+01  1.00800000E+00  1.00800000E+00
  0.00000000E+00  1.60000000E+01  1.00800000E+00  1.00800000E+00  0.00000000E+00
  1.60000000E+01  1.00800000E+00  1.00800000E+00  0.00000000E+00  1.60000000E+01
  1.00800000E+00  1.00800000E+00  0.00000000E+00  1.60000000E+01  1.00800000E+00
  1.00800000E+00  0.00000000E+00  1.60000000E+01  1.00800000E+00  1.00800000E+00
  0.00000000E+00  1.60000000E+01  1.00800000E+00  1.00800000E+00  0.00000000E+00
  1.60000000E+01  1.00800000E+00  1.00800000E+00  0.00000000E+00  1.60000000E+01
  1.00800000E+00  1.00800000E+00  0.00000000E+00  1.60000000E+01  1.00800000E+00
  1.00800000E+00  0.00000000E+00  1.60000000E+01  1.00800000E+00  1.00800000E+00
  0.00000000E+00  1.60000000E+01  1.00800000E+00  1.00800000E+00  0.00000000E+00
  1.60000000E+01  1.00800000E+00  1.00800000E+00  0.00000000E+00  1.60000000E+01
  1.00800000E+00  1.00800000E+00  0.00000000E+00  1.60000000E+01  1.00800000E+00
  1.00800000E+00  0.00000000E+00  1.60000000E+01  1.00800000E+00  1.00800000E+00
  0.00000000E+00  1.60000000E+01  1.00800000E+00  1.00800000E+00  0.00000000E+00
  1.60000000E+01  1.00800000E+00  1.00800000E+00  0.00000000E+00  1.60000000E+01
  1.00800000E+00  1.00800000E+00  0.00000000E+00  1.60000000E+01  1.00800000E+00
  1.00800000E+00  0.00000000E+00  1.60000000E+01  1.00800000E+00  1.00800000E+00
  0.00000000E+00  1.60000000E+01  1.00800000E+00  1.00800000E+00  0.00000000E+00
  1.60000000E+01  1.00800000E+00  1.00800000E+00  0.00000000E+00  1.60000000E+01
  1.00800000E+00  1.00800000E+00  0.00000000E+00  1.60000000E+01  1.00800000E+00
  1.00800000E+00  0.00000000E+00  1.60000000E+01  1.00800000E+00  1.00800000E+00
  0.00000000E+00  1.60000000E+01  1.00800000E+00  1.00800000E+00  0.00000000E+00
  1.60000000E+01  1.00800000E+00  1.00800000E+00  0.00000000E+00  1.60000000E+01
  1.00800000E+00  1.00800000E+00  0.00000000E+00  1.60000000E+01  1.00800000E+00
  1.00800000E+00  0.00000000E+00  1.60000000E+01  1.00800000E+00  1.00800000E+00
  0.00000000E+00  1.60000000E+01  1.00800000E+00  1.00800000E+00  0.00000000E+00
  1.60000000E+01  1.00800000E+00  1.00800000E+00  0.00000000E+00  1.60000000E+01
  1.00800000E+00  1.00800000E+00  0.00000000E+00  1.60000000E+01  1.00800000E+00
  1.00800000E+00  0.00000000E+00  1.60000000E+01  1.00800000E+00  1.00800000E+00
  0.00000000E+00  1.60000000E+01  1.00800000E+00  1.00800000E+00  0.00000000E+00
  1.60000000E+01  1.00800000E+00  1.00800000E+00  0.00000000E+00  1.60000000E+01
  1.00800000E+00  1.00800000E+00  0.00000000E+00  1.60000000E+01  1.00800000E+00
  1.00800000E+00  0.00000000E+00  1.60000000E+01  1.00800000E+00  1.00800000E+00
  0.00000000E+00  1.60000000E+01  1.00800000E+00  1.00800000E+00  0.00000000E+00
  1.60000000E+01  1.00800000E+00  1.00800000E+00  0.00000000E+00  1.60000000E+01
  1.00800000E+00  1.00800000E+00  0.00000000E+00  1.60000000E+01  1.00800000E+00
  1.00800000E+00  0.00000000E+00  1.60000000E+01  1.00800000E+00  1.00800000E+00
  0.00000000E+00  1.60000000E+01  1.00800000E+00  1.00800000E+00  0.00000000E+00
  1.60000000E+01  1.00800000E+00  1.00800000E+00  0.00000000E+00  1.60000000E+01
  1.00800000E+00  1.00800000E+00  0.00000000E+00  1.60000000E+01  1.00800000E+00
  1.00800000E+00  0.00000000E+00  1.60000000E+01  1.00800000E+00  1.00800000E+00
  0.00000000E+00  1.60000000E+01  1.00800000E+00  1.00800000E+00  0.00000000E+00
  1.60000000E+01  1.00800000E+00  1.00800000E+00  0.00000000E+00  1.60000000E+01
  1.00800000E+00  1.00800000E+00  0.00000000E+00  1.60000000E+01  1.00800000E+00
  1.00800000E+00  0.00000000E+00  1.60000000E+01  1.00800000E+00  1.00800000E+00
  0.00000000E+00  1.60000000E+01  1.00800000E+00  1.00800000E+00  0.00000000E+00
  1.60000000E+01  1.00800000E+00  1.00800000E+00  0.00000000E+00  1.60000000E+01
  1.00800000E+00  1.00800000E+00  0.00000000E+00  1.60000000E+01  1.00800000E+00
  1.00800000E+00  0.00000000E+00  1.60000000E+01  1.00800000E+00  1.00800000E+00
  0.00000000E+00  1.60000000E+01  1.00800000E+00  1.00800000E+00  0.00000000E+00
  1.60000000E+01  1.00800000E+00  1.00800000E+00  0.00000000E+00  1.60000000E+01
  1.00800000E+00  1.00800000E+00  0.00000000E+00  1.60000000E+01  1.00800000E+00
  1.00800000E+00  0.00000000E+00  1.60000000E+01  1.00800000E+00  1.00800000E+00
  0.00000000E+00  1.60000000E+01  1.00800000E+00  1.00800000E+00  0.00000000E+00
  1.60000000E+01  1.00800000E+00  1.00800000E+00  0.00000000E+00  1.60000000E+01
  1.00800000E+00  1.00800000E+00  0.00000000E+00  1.60000000E+01  1.00800000E+00
  1.00800000E+00  0.00000000E+00  1.60000000E+01  1.00800000E+00  1.00800000E+00
  0.00000000E+00  1.60000000E+01  1.00800000E+00  1.00800000E+00  0.00000000E+00
  1.60000000E+01  1.00800000E+00  1.00800000E+00  0.00000000E+00  1.60000000E+01
  1.00800000E+00  1.00800000E+00  0.00000000E+00  1.60000000E+01  1.00800000E+00
  1.00800000E+00  0.00000000E+00  1.60000000E+01  1.00800000E+00  1.00800000E+00
  0.00000000E+00  1.60000000E+01  1.00800000E+00  1.00800000E+00  0.00000000E+00
  1.60000000E+01  1.00800000E+00  1.00800000E+00  0.00000000E+00  1.60000000E+01
  1.00800000E+00  1.00800000E+00  0.00000000E+00  1.60000000E+01  1.00800000E+00
  1.00800000E+00  0.00000000E+00  1.60000000E+01  1.00800000E+00  1.00800000E+00
  0.00000000E+00  1.60000000E+01  1.00800000E+00  1.00800000E+00  0.00000000E+00
  1.60000000E+01  1.00800000E+00  1.00800000E+00  0.00000000E+00  1.60000000E+01
  1.00800000E+00  1.00800000E+00  0.00000000E+00  1.60000000E+01  1.00800000E+00
  1.00800000E+00  0.00000000E+00  1.60000000E+01  1.00800000E+00  1.00800000E+00
  0.00000000E+00  1.60000000E+01  1.00800000E+00  1.00800000E+00  0.00000000E+00
  1.60000000E+01  1.00800000E+00  1.00800000E+00  0.00000000E+00  1.60000000E+01
  1.00800000E+00  1.00800000E+00  0.00000000E+00  1.60000000E+01  1.00800000E+00
  1.00800000E+00  0.00000000E+00  1.60000000E+01  1.00800000E+00  1.00800000E+00
  0.00000000E+00  1.60000000E+01  1.00800000E+00  1.00800000E+00  0.00000000E+00
  1.60000000E+01  1.00800000E+00  1.00800000E+00  0.00000000E+00  1.60000000E+01
  1.00800000E+00  1.00800000E+00  0.00000000E+00  1.60000000E+01  1.00800000E+00
  1.00800000E+00  0.00000000E+00  1.60000000E+01  1.00800000E+00  1.00800000E+00
  0.00000000E+00  1.60000000E+01  1.00800000E+00  1.00800000E+00  0.00000000E+00
  1.60000000E+01  1.00800000E+00  1.00800000E+00  0.00000000E+00  1.60000000E+01
  1.00800000E+00  1.00800000E+00  0.00000000E+00  1.60000000E+01  1.00800000E+00
  1.00800000E+00  0.00000000E+00  1.60000000E+01  1.00800000E+00  1.00800000E+00
  0.00000000E+00  1.60000000E+01  1.00800000E+00  1.00800000E+00  0.00000000E+00
  1.60000000E+01  1.00800000E+00  1.00800000E+00  0.00000000E+00  1.60000000E+01
  1.00800000E+00  1.00800000E+00  0.00000000E+00  1.60000000E+01  1.00800000E+00
  1.00800000E+00  0.00000000E+00  1.60000000E+01  1.00800000E+00  1.00800000E+00
  0.00000000E+00  1.60000000E+01  1.00800000E+00  1.00800000E+00  0.00000000E+00
  1.60000000E+01  1.00800000E+00  1.00800000E+00  0.00000000E+00  1.60000000E+01
  1.00800000E+00  1.00800000E+00  0.00000000E+00  1.60000000E+01  1.00800000E+00
  1.00800000E+00  0.00000000E+00  1.60000000E+01  1.00800000E+00  1.00800000E+00
  0.00000000E+00  1.60000000E+01  1.00800000E+00  1.00800000E+00  0.00000000E+00
  1.60000000E+01  1.00800000E+00  1.00800000E+00  0.00000000E+00  1.60000000E+01
  1.00800000E+00  1.00800000E+00  0.00000000E+00  1.60000000E+01  1.00800000E+00
  1.00800000E+00  0.00000000E+00  1.60000000E+01  1.00800000E+00  1.00800000E+00
  0.00000000E+00  1.60000000E+01  1.00800000E+00  1.00800000E+00  0.00000000E+00
  1.60000000E+01  1.00800000E+00  1.00800000E+00  0.00000000E+00  1.60000000E+01
  1.00800000E+00  1.00800000E+00  0.00000000E+00  1.60000000E+01  1.00800000E+00
  1.00800000E+00  0.00000000E+00  1.60000000E+01  1.00800000E+00  1.00800000E+00
  0.00000000E+00  1.60000000E+01  1.00800000E+00  1.00800000E+00  0.00000000E+00
  1.60000000E+01  1.00800000E+00  1.00800000E+00  0.00000000E+00  1.60000000E+01
  1.00800000E+00  1.00800000E+00  0.00000000E+00  1.60000000E+01  1.00800000E+00
  1.00800000E+00  0.00000000E+00  1.60000000E+01  1.00800000E+00  1.00800000E+00
  0.00000000E+00  1.60000000E+01  1.00800000E+00  1.00800000E+00  0.00000000E+00
  1.60000000E+01  1.00800000E+00  1.00800000E+00  0.00000000E+00  1.60000000E+01
  1.00800000E+00  1.00800000E+00  0.00000000E+00  1.60000000E+01  1.00800000E+00
  1.00800000E+00  0.00000000E+00  1.60000000E+01  1.00800000E+00  1.00800000E+00
  0.00000000E+00  1.60000000E+01  1.00800000E+00  1.00800000E+00  0.00000000E+00
  1.60000000E+01  1.00800000E+00  1.00800000E+00  0.00000000E+00  1.60000000E+01
  1.00800000E+00  1.00800000E+00  0.00000000E+00  1.60000000E+01  1.00800000E+00
  1.00800000E+00  0.00000000E+00  1.60000000E+01  1.00800000E+00  1.00800000E+00
  0.00000000E+00  1.60000000E+01  1.00800000E+00  1.00800000E+00  0.00000000E+00
  1.60000000E+01  1.00800000E+00  1.00800000E+00  0.00000000E+00  1.60000000E+01
  1.00800000E+00  1.00800000E+00  0.00000000E+00  1.60000000E+01  1.00800000E+00
  1.00800000E+00  0.00000000E+00  1.60000000E+01  1.00800000E+00  1.00800000E+00
  0.00000000E+00  1.60000000E+01  1.00800000E+00  1.00800000E+00  0.00000000E+00
  1.60000000E+01  1.00800000E+00  1.00800000E+00  0.00000000E+00  1.60000000E+01
  1.00800000E+00  1.00800000E+00  0.00000000E+00  1.60000000E+01  1.00800000E+00
  1.00800000E+00  0.00000000E+00  1.60000000E+01  1.00800000E+00  1.00800000E+00
  0.00000000E+00  1.60000000E+01  1.00800000E+00  1.00800000E+00  0.00000000E+00
  1.60000000E+01  1.00800000E+00  1.00800000E+00  0.00000000E+00  1.60000000E+01
  1.00800000E+00  1.00800000E+00  0.00000000E+00  1.60000000E+01  1.00800000E+00
  1.00800000E+00  0.00000000E+00  1.60000000E+01  1.00800000E+00  1.00800000E+00
  0.00000000E+00  1.60000000E+01  1.00800000E+00  1.00800000E+00  0.00000000E+00
  1.60000000E+01  1.00800000E+00  1.00800000E+00  0.00000000E+00  1.60000000E+01
  1.00800000E+00  1.00800000E+00  0.00000000E+00  1.60000000E+01  1.00800000E+00
  1.00800000E+00  0.00000000E+00  1.60000000E+01  1.00800000E+00  1.00800000E+00
  0.00000000E+00  1.60000000E+01  1.00800000E+00  1.00800000E+00  0.00000000E+00
  1.60000000E+01  1.00800000E+00  1.00800000E+00  0.00000000E+00  1.60000000E+01
  1.00800000E+00  1.00800000E+00  0.00000000E+00  1.60000000E+01  1.00800000E+00
  1.00800000E+00  0.00000000E+00  1.60000000E+01  1.00800000E+00  1.00800000E+00
  0.00000000E+00  1.60000000E+01  1.00800000E+00  1.00800000E+00  0.00000000E+00
  1.60000000E+01  1.00800000E+00  1.00800000E+00  0.00000000E+00  1.60000000E+01
  1.00800000E+00  1.00800000E+00  0.00000000E+00  1.60000000E+01  1.00800000E+00
  1.00800000E+00  0.00000000E+00  1.60000000E+01  1.00800000E+00  1.00800000E+00
  0.00000000E+00  1.60000000E+01  1.00800000E+00  1.00800000E+00  0.00000000E+00
  1.60000000E+01  1.00800000E+00  1.00800000E+00  0.00000000E+00  1.60000000E+01
  1.00800000E+00  1.00800000E+00  0.00000000E+00  1.60000000E+01  1.00800000E+00
  1.00800000E+00  0.00000000E+00  1.60000000E+01  1.00800000E+00  1.00800000E+00
  0.00000000E+00  1.60000000E+01  1.00800000E+00  1.00800000E+00  0.00000000E+00
  1.60000000E+01  1.00800000E+00  1.00800000E+00  0.00000000E+00  1.60000000E+01
  1.00800000E+00  1.00800000E+00  0.00000000E+00  1.60000000E+01  1.00800000E+00
  1.00800000E+00  0.00000000E+00  1.60000000E+01  1.00800000E+00  1.00800000E+00
  0.00000000E+00  1.60000000E+01  1.00800000E+00  1.00800000E+00  0.00000000E+00
  1.60000000E+01  1.00800000E+00  1.00800000E+00  0.00000000E+00  1.60000000E+01
  1.00800000E+00  1.00800000E+00  0.00000000E+00  1.60000000E+01  1.00800000E+00
  1.00800000E+00  0.00000000E+00  1.60000000E+01  1.00800000E+00  1.00800000E+00
  0.00000000E+00  1.60000000E+01  1.00800000E+00  1.00800000E+00  0.00000000E+00
  1.60000000E+01  1.00800000E+00  1.00800000E+00  0.00000000E+00  1.60000000E+01
  1.00800000E+00  1.00800000E+00  0.00000000E+00  1.60000000E+01  1.00800000E+00
  1.00800000E+00  0.00000000E+00  1.60000000E+01  1.00800000E+00  1.00800000E+00
  0.00000000E+00  1.60000000E+01  1.00800000E+00  1.00800000E+00  0.00000000E+00
  1.60000000E+01  1.00800000E+00  1.00800000E+00  0.00000000E+00  1.60000000E+01
  1.00800000E+00  1.00800000E+00  0.00000000E+00  1.60000000E+01  1.00800000E+00
  1.00800000E+00  0.00000000E+00  1.60000000E+01  1.00800000E+00  1.00800000E+00
  0.00000000E+00  1.60000000E+01  1.00800000E+00  1.00800000E+00  0.00000000E+00
  1.60000000E+01  1.00800000E+00  1.00800000E+00  0.00000000E+00  1.60000000E+01
  1.00800000E+00  1.00800000E+00  0.00000000E+00  1.60000000E+01  1.00800000E+00
  1.00800000E+00  0.00000000E+00  1.60000000E+01  1.00800000E+00  1.00800000E+00
  0.00000000E+00  1.60000000E+01  1.00800000E+00  1.00800000E+00  0.00000000E+00
  1.60000000E+01  1.00800000E+00  1.00800000E+00  0.00000000E+00  1.60000000E+01
  1.00800000E+00  1.00800000E+00  0.00000000E+00  1.60000000E+01  1.00800000E+00
  1.00800000E+00  0.00000000E+00  1.60000000E+01  1.00800000E+00  1.00800000E+00
  0.00000000E+00  1.60000000E+01  1.00800000E+00  1.00800000E+00  0.00000000E+00
  1.60000000E+01  1.00800000E+00  1.00800000E+00  0.00000000E+00  1.60000000E+01
  1.00800000E+00  1.00800000E+00  0.00000000E+00  1.60000000E+01  1.00800000E+00
  1.00800000E+00  0.00000000E+00  1.60000000E+01  1.00800000E+00  1.00800000E+00
  0.00000000E+00  1.60000000E+01  1.00800000E+00  1.00800000E+00  0.00000000E+00
  1.60000000E+01  1.00800000E+00  1.00800000E+00  0.00000000E+00  1.60000000E+01
  1.00800000E+00  1.00800000E+00  0.00000000E+00  1.60000000E+01  1.00800000E+00
  1.00800000E+00  0.00000000E+00  1.60000000E+01  1.00800000E+00  1.00800000E+00
  0.00000000E+00  1.60000000E+01  1.00800000E+00  1.00800000E+00  0.00000000E+00
  1.60000000E+01  1.00800000E+00  1.00800000E+00  0.00000000E+00  1.60000000E+01
  1.00800000E+00  1.00800000E+00  0.00000000E+00  1.60000000E+01  1.00800000E+00
  1.00800000E+00  0.00000000E+00  1.60000000E+01  1.00800000E+00  1.00800000E+00
  0.00000000E+00  1.60000000E+01  1.00800000E+00  1.00800000E+00  0.00000000E+00
  1.60000000E+01  1.00800000E+00  1.00800000E+00  0.00000000E+00  1.60000000E+01
  1.00800000E+00  1.00800000E+00  0.00000000E+00  1.60000000E+01  1.00800000E+00
  1.00800000E+00  0.00000000E+00  1.60000000E+01  1.00800000E+00  1.00800000E+00
  0.00000000E+00  1.60000000E+01  1.00800000E+00  1.00800000E+00  0.00000000E+00
  1.60000000E+01  1.00800000E+00  1.00800000E+00  0.00000000E+00  1.60000000E+01
  1.00800000E+00  1.00800000E+00  0.00000000E+00  1.60000000E+01  1.00800000E+00
  1.00800000E+00  0.00000000E+00  1.60000000E+01  1.00800000E+00  1.00800000E+00
  0.00000000E+00  1.60000000E+01  1.00800000E+00  1.00800000E+00  0.00000000E+00
  1.60000000E+01  1.00800000E+00  1.00800000E+00  0.00000000E+00  1.60000000E+01
  1.00800000E+00  1.00800000E+00  0.00000000E+00  1.60000000E+01  1.00800000E+00
  1.00800000E+00  0.00000000E+00  1.60000000E+01  1.00800000E+00  1.00800000E+00
  0.00000000E+00  1.60000000E+01  1.00800000E+00  1.00800000E+00  0.00000000E+00
  1.60000000E+01  1.00800000E+00  1.00800000E+00  0.00000000E+00  1.60000000E+01
  1.00800000E+00  1.00800000E+00  0.00000000E+00  1.60000000E+01  1.00800000E+00
  1.00800000E+00  0.00000000E+00  1.60000000E+01  1.00800000E+00  1.00800000E+00
  0.00000000E+00  1.60000000E+01  1.00800000E+00  1.00800000E+00  0.00000000E+00
  1.60000000E+01  1.00800000E+00  1.00800000E+00  0.00000000E+00  1.60000000E+01
  1.00800000E+00  1.00800000E+00  0.00000000E+00  1.60000000E+01  1.00800000E+00
  1.00800000E+00  0.00000000E+00  1.60000000E+01  1.00800000E+00  1.00800000E+00
  0.00000000E+00  1.60000000E+01  1.00800000E+00  1.00800000E+00  0.00000000E+00
  1.60000000E+01  1.00800000E+00  1.00800000E+00  0.00000000E+00  1.60000000E+01
  1.00800000E+00  1.00800000E+00  0.00000000E+00  1.60000000E+01  1.00800000E+00
  1.00800000E+00  0.00000000E+00  1.60000000E+01  1.00800000E+00  1.00800000E+00
  0.00000000E+00  1.60000000E+01  1.00800000E+00  1.00800000E+00  0.00000000E+00
  1.60000000E+01  1.00800000E+00  1.00800000E+00  0.00000000E+00  1.60000000E+01
  1.00800000E+00  1.00800000E+00  0.00000000E+00  1.60000000E+01  1.00800000E+00
  1.00800000E+00  0.00000000E+00  1.60000000E+01  1.00800000E+00  1.00800000E+00
  0.00000000E+00  1.60000000E+01  1.00800000E+00  1.00800000E+00  0.00000000E+00
  1.60000000E+01  1.00800000E+00  1.00800000E+00  0.00000000E+00  1.60000000E+01
  1.00800000E+00  1.00800000E+00  0.00000000E+00  1.60000000E+01  1.00800000E+00
  1.00800000E+00  0.00000000E+00  1.60000000E+01  1.00800000E+00  1.00800000E+00
  0.00000000E+00  1.60000000E+01  1.00800000E+00  1.00800000E+00  0.00000000E+00
  1.60000000E+01  1.00800000E+00  1.00800000E+00  0.00000000E+00  1.60000000E+01
  1.00800000E+00  1.00800000E+00  0.00000000E+00  1.60000000E+01  1.00800000E+00
  1.00800000E+00  0.00000000E+00  1.60000000E+01  1.00800000E+00  1.00800000E+00
  0.00000000E+00  1.60000000E+01  1.00800000E+00  1.00800000E+00  0.00000000E+00
  1.60000000E+01  1.00800000E+00  1.00800000E+00  0.00000000E+00  1.60000000E+01
  1.00800000E+00  1.00800000E+00  0.00000000E+00  1.60000000E+01  1.00800000E+00
  1.00800000E+00  0.00000000E+00  1.60000000E+01  1.00800000E+00  1.00800000E+00
  0.00000000E+00  1.60000000E+01  1.00800000E+00  1.00800000E+00  0.00000000E+00
  1.60000000E+01  1.00800000E+00  1.00800000E+00  0.00000000E+00  1.60000000E+01
  1.00800000E+00  1.00800000E+00  0.00000000E+00  1.60000000E+01  1.00800000E+00
  1.00800000E+00  0.00000000E+00  1.60000000E+01  1.00800000E+00  1.00800000E+00
  0.00000000E+00  1.60000000E+01  1.00800000E+00  1.00800000E+00  0.00000000E+00
  1.60000000E+01  1.00800000E+00  1.00800000E+00  0.00000000E+00  1.60000000E+01
  1.00800000E+00  1.00800000E+00  0.00000000E+00  1.60000000E+01  1.00800000E+00
  1.00800000E+00  0.00000000E+00  1.60000000E+01  1.00800000E+00  1.00800000E+00
  0.00000000E+00  1.60000000E+01  1.00800000E+00  1.00800000E+00  0.00000000E+00
  1.60000000E+01  1.00800000E+00  1.00800000E+00  0.00000000E+00  1.60000000E+01
  1.00800000E+00  1.00800000E+00  0.00000000E+00  1.60000000E+01  1.00800000E+00
  1.00800000E+00  0.00000000E+00  1.60000000E+01  1.00800000E+00  1.00800000E+00
  0.00000000E+00  1.60000000E+01  1.00800000E+00  1.00800000E+00  0.00000000E+00
  1.60000000E+01  1.00800000E+00  1.00800000E+00  0.00000000E+00  1.60000000E+01
  1.00800000E+00  1.00800000E+00  0.00000000E+00  1.60000000E+01  1.00800000E+00
  1.00800000E+00  0.00000000E+00  1.60000000E+01  1.00800000E+00  1.00800000E+00
  0.00000000E+00  1.60000000E+01  1.00800000E+00  1.00800000E+00  0.00000000E+00
  1.60000000E+01  1.00800000E+00  1.00800000E+00  0.00000000E+00  1.60000000E+01
  1.00800000E+00  1.00800000E+00  0.00000000E+00  1.60000000E+01  1.00800000E+00
  1.00800000E+00  0.00000000E+00  1.60000000E+01  1.00800000E+00  1.00800000E+00
  0.00000000E+00  1.60000000E+01  1.00800000E+00  1.00800000E+00  0.00000000E+00
  1.60000000E+01  1.00800000E+00  1.00800000E+00  0.00000000E+00  1.60000000E+01
  1.00800000E+00  1.00800000E+00  0.00000000E+00  1.60000000E+01  1.00800000E+00
  1.00800000E+00  0.00000000E+00  1.60000000E+01  1.00800000E+00  1.00800000E+00
  0.00000000E+00  1.60000000E+01  1.00800000E+00  1.00800000E+00  0.00000000E+00
  1.60000000E+01  1.00800000E+00  1.00800000E+00  0.00000000E+00  1.60000000E+01
  1.00800000E+00  1.00800000E+00  0.00000000E+00  1.60000000E+01  1.00800000E+00
  1.00800000E+00  0.00000000E+00  1.60000000E+01  1.00800000E+00  1.00800000E+00
  0.00000000E+00  1.60000000E+01  1.00800000E+00  1.00800000E+00  0.00000000E+00
  1.60000000E+01  1.00800000E+00  1.00800000E+00  0.00000000E+00  1.60000000E+01
  1.00800000E+00  1.00800000E+00  0.00000000E+00  1.60000000E+01  1.00800000E+00
  1.00800000E+00  0.00000000E+00  1.60000000E+01  1.00800000E+00  1.00800000E+00
  0.00000000E+00  1.60000000E+01  1.00800000E+00  1.00800000E+00  0.00000000E+00
  1.60000000E+01  1.00800000E+00  1.00800000E+00  0.00000000E+00  1.60000000E+01
  1.00800000E+00  1.00800000E+00  0.00000000E+00  1.60000000E+01  1.00800000E+00
  1.00800000E+00  0.00000000E+00  1.60000000E+01  1.00800000E+00  1.00800000E+00
  0.00000000E+00  1.60000000E+01  1.00800000E+00  1.00800000E+00  0.00000000E+00
  1.60000000E+01  1.00800000E+00  1.00800000E+00  0.00000000E+00  1.60000000E+01
  1.00800000E+00  1.00800000E+00  0.00000000E+00  1.60000000E+01  1.00800000E+00
  1.00800000E+00  0.00000000E+00  1.60000000E+01  1.00800000E+00  1.00800000E+00
  0.00000000E+00  1.60000000E+01  1.00800000E+00  1.00800000E+00  0.00000000E+00
  1.60000000E+01  1.00800000E+00  1.00800000E+00  0.00000000E+00  1.60000000E+01
  1.00800000E+00  1.00800000E+00  0.00000000E+00  1.60000000E+01  1.00800000E+00
  1.00800000E+00  0.00000000E+00  1.60000000E+01  1.00800000E+00  1.00800000E+00
  0.00000000E+00  1.60000000E+01  1.00800000E+00  1.00800000E+00  0.00000000E+00
  1.60000000E+01  1.00800000E+00  1.00800000E+00  0.00000000E+00  1.60000000E+01
  1.00800000E+00  1.00800000E+00  0.00000000E+00  1.60000000E+01  1.00800000E+00
  1.00800000E+00  0.00000000E+00  1.60000000E+01  1.00800000E+00  1.00800000E+00
  0.00000000E+00  1.60000000E+01  1.00800000E+00  1.00800000E+00  0.00000000E+00
  1.60000000E+01  1.00800000E+00  1.00800000E+00  0.00000000E+00  1.60000000E+01
  1.00800000E+00  1.00800000E+00  0.00000000E+00  1.60000000E+01  1.00800000E+00
  1.00800000E+00  0.00000000E+00  1.60000000E+01  1.00800000E+00  1.00800000E+00
  0.00000000E+00  1.60000000E+01  1.00800000E+00  1.00800000E+00  0.00000000E+00
  1.60000000E+01  1.00800000E+00  1.00800000E+00  0.00000000E+00  1.60000000E+01
  1.00800000E+00  1.00800000E+00  0.00000000E+00  1.60000000E+01  1.00800000E+00
  1.00800000E+00  0.00000000E+00  1.60000000E+01  1.00800000E+00  1.00800000E+00
  0.00000000E+00  1.60000000E+01  1.00800000E+00  1.00800000E+00  0.00000000E+00
  1.60000000E+01  1.00800000E+00  1.00800000E+00  0.00000000E+00  1.60000000E+01
  1.00800000E+00  1.00800000E+00  0.00000000E+00  1.60000000E+01  1.00800000E+00
  1.00800000E+00  0.00000000E+00  1.60000000E+01  1.00800000E+00  1.00800000E+00
  0.00000000E+00  1.60000000E+01  1.00800000E+00  1.00800000E+00  0.00000000E+00
  1.60000000E+01  1.00800000E+00  1.00800000E+00  0.00000000E+00  1.60000000E+01
  1.00800000E+00  1.00800000E+00  0.00000000E+00  1.60000000E+01  1.00800000E+00
  1.00800000E+00  0.00000000E+00  1.60000000E+01  1.00800000E+00  1.00800000E+00
  0.00000000E+00  1.60000000E+01  1.00800000E+00  1.00800000E+00  0.00000000E+00
  1.60000000E+01  1.00800000E+00  1.00800000E+00  0.00000000E+00  1.60000000E+01
  1.00800000E+00  1.00800000E+00  0.00000000E+00  1.60000000E+01  1.00800000E+00
  1.00800000E+00  0.00000000E+00  1.60000000E+01  1.00800000E+00  1.00800000E+00
  0.00000000E+00  1.60000000E+01  1.00800000E+00  1.00800000E+00  0.00000000E+00
  1.60000000E+01  1.00800000E+00  1.00800000E+00  0.00000000E+00  1.60000000E+01
  1.00800000E+00  1.00800000E+00  0.00000000E+00  1.60000000E+01  1.00800000E+00
  1.00800000E+00  0.00000000E+00  1.60000000E+01  1.00800000E+00  1.00800000E+00
  0.00000000E+00  1.60000000E+01  1.00800000E+00  1.00800000E+00  0.00000000E+00
  1.60000000E+01  1.00800000E+00  1.00800000E+00  0.00000000E+00  1.60000000E+01
  1.00800000E+00  1.00800000E+00  0.00000000E+00  1.60000000E+01  1.00800000E+00
  1.00800000E+00  0.00000000E+00  1.60000000E+01  1.00800000E+00  1.00800000E+00
  0.00000000E+00  1.60000000E+01  1.00800000E+00  1.00800000E+00  0.00000000E+00
  1.60000000E+01  1.00800000E+00  1.00800000E+00  0.00000000E+00  1.60000000E+01
  1.00800000E+00  1.00800000E+00  0.00000000E+00  1.60000000E+01  1.00800000E+00
  1.00800000E+00  0.00000000E+00  1.60000000E+01  1.00800000E+00  1.00800000E+00
  0.00000000E+00  1.60000000E+01  1.00800000E+00  1.00800000E+00  0.00000000E+00
  1.60000000E+01  1.00800000E+00  1.00800000E+00  0.00000000E+00  1.60000000E+01
  1.00800000E+00  1.00800000E+00  0.00000000E+00  1.60000000E+01  1.00800000E+00
  1.00800000E+00  0.00000000E+00  1.60000000E+01  1.00800000E+00  1.00800000E+00
  0.00000000E+00  1.60000000E+01  1.00800000E+00  1.00800000E+00  0.00000000E+00
  1.60000000E+01  1.00800000E+00  1.00800000E+00  0.00000000E+00  1.60000000E+01
  1.00800000E+00  1.00800000E+00  0.00000000E+00  1.60000000E+01  1.00800000E+00
  1.00800000E+00  0.00000000E+00  1.60000000E+01  1.00800000E+00  1.00800000E+00
  0.00000000E+00  1.60000000E+01  1.00800000E+00  1.00800000E+00  0.00000000E+00
  1.60000000E+01  1.00800000E+00  1.00800000E+00  0.00000000E+00  1.60000000E+01
  1.00800000E+00  1.00800000E+00  0.00000000E+00  1.60000000E+01  1.00800000E+00
  1.00800000E+00  0.00000000E+00  1.60000000E+01  1.00800000E+00  1.00800000E+00
  0.00000000E+00  1.60000000E+01  1.00800000E+00  1.00800000E+00  0.00000000E+00
  1.60000000E+01  1.00800000E+00  1.00800000E+00  0.00000000E+00  1.60000000E+01
  1.00800000E+00  1.00800000E+00  0.00000000E+00  1.60000000E+01  1.00800000E+00
  1.00800000E+00  0.00000000E+00  1.60000000E+01  1.00800000E+00  1.00800000E+00
  0.00000000E+00  1.60000000E+01  1.00800000E+00  1.00800000E+00  0.00000000E+00
  1.60000000E+01  1.00800000E+00  1.00800000E+00  0.00000000E+00  1.60000000E+01
  1.00800000E+00  1.00800000E+00  0.00000000E+00  1.60000000E+01  1.00800000E+00
  1.00800000E+00  0.00000000E+00  1.60000000E+01  1.00800000E+00  1.00800000E+00
  0.00000000E+00  1.60000000E+01  1.00800000E+00  1.00800000E+00  0.00000000E+00
  1.60000000E+01  1.00800000E+00  1.00800000E+00  0.00000000E+00  1.60000000E+01
  1.00800000E+00  1.00800000E+00  0.00000000E+00  1.60000000E+01  1.00800000E+00
  1.00800000E+00  0.00000000E+00  1.60000000E+01  1.00800000E+00  1.00800000E+00
  0.00000000E+00  1.60000000E+01  1.00800000E+00  1.00800000E+00  0.00000000E+00
  1.60000000E+01  1.00800000E+00  1.00800000E+00  0.00000000E+00  1.60000000E+01
  1.00800000E+00  1.00800000E+00  0.00000000E+00  1.60000000E+01  1.00800000E+00
  1.00800000E+00  0.00000000E+00  1.60000000E+01  1.00800000E+00  1.00800000E+00
  0.00000000E+00  1.60000000E+01  1.00800000E+00  1.00800000E+00  0.00000000E+00
  1.60000000E+01  1.00800000E+00  1.00800000E+00  0.00000000E+00  1.60000000E+01
  1.00800000E+00  1.00800000E+00  0.00000000E+00  1.60000000E+01  1.00800000E+00
  1.00800000E+00  0.00000000E+00  1.60000000E+01  1.00800000E+00  1.00800000E+00
  0.00000000E+00  1.60000000E+01  1.00800000E+00  1.00800000E+00  0.00000000E+00
  1.60000000E+01  1.00800000E+00  1.00800000E+00  0.00000000E+00  1.60000000E+01
  1.00800000E+00  1.00800000E+00  0.00000000E+00  1.60000000E+01  1.00800000E+00
  1.00800000E+00  0.00000000E+00  1.60000000E+01  1.00800000E+00  1.00800000E+00
  0.00000000E+00  1.60000000E+01  1.00800000E+00  1.00800000E+00  0.00000000E+00
  1.60000000E+01  1.00800000E+00  1.00800000E+00  0.00000000E+00  1.60000000E+01
  1.00800000E+00  1.00800000E+00  0.00000000E+00  1.60000000E+01  1.00800000E+00
  1.00800000E+00  0.00000000E+00  1.60000000E+01  1.00800000E+00  1.00800000E+00
  0.00000000E+00  1.60000000E+01  1.00800000E+00  1.00800000E+00  0.00000000E+00
  1.60000000E+01  1.00800000E+00  1.00800000E+00  0.00000000E+00  1.60000000E+01
  1.00800000E+00  1.00800000E+00  0.00000000E+00  1.60000000E+01  1.00800000E+00
  1.00800000E+00  0.00000000E+00  1.60000000E+01  1.00800000E+00  1.00800000E+00
  0.00000000E+00  1.60000000E+01  1.00800000E+00  1.00800000E+00  0.00000000E+00
  1.60000000E+01  1.00800000E+00  1.00800000E+00  0.00000000E+00  1.60000000E+01
  1.00800000E+00  1.00800000E+00  0.00000000E+00  1.60000000E+01  1.00800000E+00
  1.00800000E+00  0.00000000E+00  1.60000000E+01  1.00800000E+00  1.00800000E+00
  0.00000000E+00  1.60000000E+01  1.00800000E+00  1.00800000E+00  0.00000000E+00
  1.60000000E+01  1.00800000E+00  1.00800000E+00  0.00000000E+00  1.60000000E+01
  1.00800000E+00  1.00800000E+00  0.00000000E+00  1.60000000E+01  1.00800000E+00
  1.00800000E+00  0.00000000E+00  1.60000000E+01  1.00800000E+00  1.00800000E+00
  0.00000000E+00  1.60000000E+01  1.00800000E+00  1.00800000E+00  0.00000000E+00
  1.60000000E+01  1.00800000E+00  1.00800000E+00  0.00000000E+00  1.60000000E+01
  1.00800000E+00  1.00800000E+00  0.00000000E+00  1.60000000E+01  1.00800000E+00
  1.00800000E+00  0.00000000E+00  1.60000000E+01  1.00800000E+00  1.00800000E+00
  0.00000000E+00  1.60000000E+01  1.00800000E+00  1.00800000E+00  0.00000000E+00
  1.60000000E+01  1.00800000E+00  1.00800000E+00  0.00000000E+00  1.60000000E+01
  1.00800000E+00  1.00800000E+00  0.00000000E+00  1.60000000E+01  1.00800000E+00
  1.00800000E+00  0.00000000E+00  1.60000000E+01  1.00800000E+00  1.00800000E+00
  0.00000000E+00  1.60000000E+01  1.00800000E+00  1.00800000E+00  0.00000000E+00
  1.60000000E+01  1.00800000E+00  1.00800000E+00  0.00000000E+00  1.60000000E+01
  1.00800000E+00  1.00800000E+00  0.00000000E+00  1.60000000E+01  1.00800000E+00
  1.00800000E+00  0.00000000E+00  1.60000000E+01  1.00800000E+00  1.00800000E+00
  0.00000000E+00  1.60000000E+01  1.00800000E+00  1.00800000E+00  0.00000000E+00
  1.60000000E+01  1.00800000E+00  1.00800000E+00  0.00000000E+00  1.60000000E+01
  1.00800000E+00  1.00800000E+00  0.00000000E+00  1.60000000E+01  1.00800000E+00
  1.00800000E+00  0.00000000E+00  1.60000000E+01  1.00800000E+00  1.00800000E+00
  0.00000000E+00  1.60000000E+01  1.00800000E+00  1.00800000E+00  0.00000000E+00
  1.60000000E+01  1.00800000E+00  1.00800000E+00  0.00000000E+00  1.60000000E+01
  1.00800000E+00  1.00800000E+00  0.00000000E+00  1.60000000E+01  1.00800000E+00
  1.00800000E+00  0.00000000E+00  1.60000000E+01  1.00800000E+00  1.00800000E+00
  0.00000000E+00  1.60000000E+01  1.00800000E+00  1.00800000E+00  0.00000000E+00
  1.60000000E+01  1.00800000E+00  1.00800000E+00  0.00000000E+00  1.60000000E+01
  1.00800000E+00  1.00800000E+00  0.00000000E+00  1.60000000E+01  1.00800000E+00
  1.00800000E+00  0.00000000E+00  1.60000000E+01  1.00800000E+00  1.00800000E+00
  0.00000000E+00  1.60000000E+01  1.00800000E+00  1.00800000E+00  0.00000000E+00
  1.60000000E+01  1.00800000E+00  1.00800000E+00  0.00000000E+00  1.60000000E+01
  1.00800000E+00  1.00800000E+00  0.00000000E+00  1.60000000E+01  1.00800000E+00
  1.00800000E+00  0.00000000E+00  1.60000000E+01  1.00800000E+00  1.00800000E+00
  0.00000000E+00  1.60000000E+01  1.00800000E+00  1.00800000E+00  0.00000000E+00
  1.60000000E+01  1.00800000E+00  1.00800000E+00  0.00000000E+00  1.60000000E+01
  1.00800000E+00  1.00800000E+00  0.00000000E+00  1.60000000E+01  1.00800000E+00
  1.00800000E+00  0.00000000E+00  1.60000000E+01  1.00800000E+00  1.00800000E+00
  0.00000000E+00  1.60000000E+01  1.00800000E+00  1.00800000E+00  0.00000000E+00
  1.60000000E+01  1.00800000E+00  1.00800000E+00  0.00000000E+00  1.60000000E+01
  1.00800000E+00  1.00800000E+00  0.00000000E+00  1.60000000E+01  1.00800000E+00
  1.00800000E+00  0.00000000E+00  1.60000000E+01  1.00800000E+00  1.00800000E+00
  0.00000000E+00  1.60000000E+01  1.00800000E+00  1.00800000E+00  0.00000000E+00
  1.60000000E+01  1.00800000E+00  1.00800000E+00  0.00000000E+00  1.60000000E+01
  1.00800000E+00  1.00800000E+00  0.00000000E+00  1.60000000E+01  1.00800000E+00
  1.00800000E+00  0.00000000E+00  1.60000000E+01  1.00800000E+00  1.00800000E+00
  0.00000000E+00  1.60000000E+01  1.00800000E+00  1.00800000E+00  0.00000000E+00
  1.60000000E+01  1.00800000E+00  1.00800000E+00  0.00000000E+00  1.60000000E+01
  1.00800000E+00  1.00800000E+00  0.00000000E+00  1.60000000E+01  1.00800000E+00
  1.00800000E+00  0.00000000E+00  1.60000000E+01  1.00800000E+00  1.00800000E+00
  0.00000000E+00  1.60000000E+01  1.00800000E+00  1.00800000E+00  0.00000000E+00
  1.60000000E+01  1.00800000E+00  1.00800000E+00  0.00000000E+00  1.60000000E+01
  1.00800000E+00  1.00800000E+00  0.00000000E+00  1.60000000E+01  1.00800000E+00
  1.00800000E+00  0.00000000E+00  1.60000000E+01  1.00800000E+00  1.00800000E+00
  0.00000000E+00  1.60000000E+01  1.00800000E+00  1.00800000E+00  0.00000000E+00
  1.60000000E+01  1.00800000E+00  1.00800000E+00  0.00000000E+00  1.60000000E+01
  1.00800000E+00  1.00800000E+00  0.00000000E+00  1.60000000E+01  1.00800000E+00
  1.00800000E+00  0.00000000E+00  1.60000000E+01  1.00800000E+00  1.00800000E+00
  0.00000000E+00  1.60000000E+01  1.00800000E+00  1.00800000E+00  0.00000000E+00
  1.60000000E+01  1.00800000E+00  1.00800000E+00  0.00000000E+00  1.60000000E+01
  1.00800000E+00  1.00800000E+00  0.00000000E+00  1.60000000E+01  1.00800000E+00
  1.00800000E+00  0.00000000E+00  1.60000000E+01  1.00800000E+00  1.00800000E+00
  0.00000000E+00  1.60000000E+01  1.00800000E+00  1.00800000E+00  0.00000000E+00
  1.60000000E+01  1.00800000E+00  1.00800000E+00  0.00000000E+00  1.60000000E+01
  1.00800000E+00  1.00800000E+00  0.00000000E+00  1.60000000E+01  1.00800000E+00
  1.00800000E+00  0.00000000E+00  1.60000000E+01  1.00800000E+00  1.00800000E+00
  0.00000000E+00  1.60000000E+01  1.00800000E+00  1.00800000E+00  0.00000000E+00
  1.60000000E+01  1.00800000E+00  1.00800000E+00  0.00000000E+00  1.60000000E+01
  1.00800000E+00  1.00800000E+00  0.00000000E+00  1.60000000E+01  1.00800000E+00
  1.00800000E+00  0.00000000E+00  1.60000000E+01  1.00800000E+00  1.00800000E+00
  0.00000000E+00  1.60000000E+01  1.00800000E+00  1.00800000E+00  0.00000000E+00
  1.60000000E+01  1.00800000E+00  1.00800000E+00  0.00000000E+00  1.60000000E+01
  1.00800000E+00  1.00800000E+00  0.00000000E+00  1.60000000E+01  1.00800000E+00
  1.00800000E+00  0.00000000E+00  1.60000000E+01  1.00800000E+00  1.00800000E+00
  0.00000000E+00  1.60000000E+01  1.00800000E+00  1.00800000E+00  0.00000000E+00
  1.60000000E+01  1.00800000E+00  1.00800000E+00  0.00000000E+00  1.60000000E+01
  1.00800000E+00  1.00800000E+00  0.00000000E+00  1.60000000E+01  1.00800000E+00
  1.00800000E+00  0.00000000E+00  1.60000000E+01  1.00800000E+00  1.00800000E+00
  0.00000000E+00  1.60000000E+01  1.00800000E+00  1.00800000E+00  0.00000000E+00
  1.60000000E+01  1.00800000E+00  1.00800000E+00  0.00000000E+00  1.60000000E+01
  1.00800000E+00  1.00800000E+00  0.00000000E+00  1.60000000E+01  1.00800000E+00
  1.00800000E+00  0.00000000E+00  1.60000000E+01  1.00800000E+00  1.00800000E+00
  0.00000000E+00  1.60000000E+01  1.00800000E+00  1.00800000E+00  0.00000000E+00
  1.60000000E+01  1.00800000E+00  1.00800000E+00  0.00000000E+00  1.60000000E+01
  1.00800000E+00  1.00800000E+00  0.00000000E+00  1.60000000E+01  1.00800000E+00
  1.00800000E+00  0.00000000E+00  1.60000000E+01  1.00800000E+00  1.00800000E+00
  0.00000000E+00  1.60000000E+01  1.00800000E+00  1.00800000E+00  0.00000000E+00
  1.60000000E+01  1.00800000E+00  1.00800000E+00  0.00000000E+00  1.60000000E+01
  1.00800000E+00  1.00800000E+00  0.00000000E+00  1.60000000E+01  1.00800000E+00
  1.00800000E+00  0.00000000E+00  1.60000000E+01  1.00800000E+00  1.00800000E+00
  0.00000000E+00  1.60000000E+01  1.00800000E+00  1.00800000E+00  0.00000000E+00
  1.60000000E+01  1.00800000E+00  1.00800000E+00  0.00000000E+00  1.60000000E+01
  1.00800000E+00  1.00800000E+00  0.00000000E+00  1.60000000E+01  1.00800000E+00
  1.00800000E+00  0.00000000E+00  1.60000000E+01  1.00800000E+00  1.00800000E+00
  0.00000000E+00  1.60000000E+01  1.00800000E+00  1.00800000E+00  0.00000000E+00
  1.60000000E+01  1.00800000E+00  1.00800000E+00  0.00000000E+00  1.60000000E+01
  1.00800000E+00  1.00800000E+00  0.00000000E+00  1.60000000E+01  1.00800000E+00
  1.00800000E+00  0.00000000E+00  1.60000000E+01  1.00800000E+00  1.00800000E+00
  0.00000000E+00  1.60000000E+01  1.00800000E+00  1.00800000E+00  0.00000000E+00
  1.60000000E+01  1.00800000E+00  1.00800000E+00  0.00000000E+00  1.60000000E+01
  1.00800000E+00  1.00800000E+00  0.00000000E+00  1.60000000E+01  1.00800000E+00
  1.00800000E+00  0.00000000E+00  1.60000000E+01  1.00800000E+00  1.00800000E+00
  0.00000000E+00  1.60000000E+01  1.00800000E+00  1.00800000E+00  0.00000000E+00
  1.60000000E+01  1.00800000E+00  1.00800000E+00  0.00000000E+00  1.60000000E+01
  1.00800000E+00  1.00800000E+00  0.00000000E+00  1.60000000E+01  1.00800000E+00
  1.00800000E+00  0.00000000E+00  1.60000000E+01  1.00800000E+00  1.00800000E+00
  0.00000000E+00  1.60000000E+01  1.00800000E+00  1.00800000E+00  0.00000000E+00
  1.60000000E+01  1.00800000E+00  1.00800000E+00  0.00000000E+00  1.60000000E+01
  1.00800000E+00  1.00800000E+00  0.00000000E+00  1.60000000E+01  1.00800000E+00
  1.00800000E+00  0.00000000E+00  1.60000000E+01  1.00800000E+00  1.00800000E+00
  0.00000000E+00  1.60000000E+01  1.00800000E+00  1.00800000E+00  0.00000000E+00
  1.60000000E+01  1.00800000E+00  1.00800000E+00  0.00000000E+00  1.60000000E+01
  1.00800000E+00  1.00800000E+00  0.00000000E+00  1.60000000E+01  1.00800000E+00
  1.00800000E+00  0.00000000E+00  1.60000000E+01  1.00800000E+00  1.00800000E+00
  0.00000000E+00  1.60000000E+01  1.00800000E+00  1.00800000E+00  0.00000000E+00
  1.60000000E+01  1.00800000E+00  1.00800000E+00  0.00000000E+00  1.60000000E+01
  1.00800000E+00  1.00800000E+00  0.00000000E+00  1.60000000E+01  1.00800000E+00
  1.00800000E+00  0.00000000E+00  1.60000000E+01  1.00800000E+00  1.00800000E+00
  0.00000000E+00  1.60000000E+01  1.00800000E+00  1.00800000E+00  0.00000000E+00
  1.60000000E+01  1.00800000E+00  1.00800000E+00  0.00000000E+00  1.60000000E+01
  1.00800000E+00  1.00800000E+00  0.00000000E+00  1.60000000E+01  1.00800000E+00
  1.00800000E+00  0.00000000E+00  1.60000000E+01  1.00800000E+00  1.00800000E+00
  0.00000000E+00  1.60000000E+01  1.00800000E+00  1.00800000E+00  0.00000000E+00
  1.60000000E+01  1.00800000E+00  1.00800000E+00  0.00000000E+00  1.60000000E+01
  1.00800000E+00  1.00800000E+00  0.00000000E+00  1.60000000E+01  1.00800000E+00
  1.00800000E+00  0.00000000E+00  1.60000000E+01  1.00800000E+00  1.00800000E+00
  0.00000000E+00  1.60000000E+01  1.00800000E+00  1.00800000E+00  0.00000000E+00
  1.60000000E+01  1.00800000E+00  1.00800000E+00  0.00000000E+00  1.60000000E+01
  1.00800000E+00  1.00800000E+00  0.00000000E+00  1.60000000E+01  1.00800000E+00
  1.00800000E+00  0.00000000E+00  1.60000000E+01  1.00800000E+00  1.00800000E+00
  0.00000000E+00  1.60000000E+01  1.00800000E+00  1.00800000E+00  0.00000000E+00
  1.60000000E+01  1.00800000E+00  1.00800000E+00  0.00000000E+00  1.60000000E+01
  1.00800000E+00  1.00800000E+00  0.00000000E+00  1.60000000E+01  1.00800000E+00
  1.00800000E+00  0.00000000E+00  1.60000000E+01  1.00800000E+00  1.00800000E+00
  0.00000000E+00  1.60000000E+01  1.00800000E+00  1.00800000E+00  0.00000000E+00
  1.60000000E+01  1.00800000E+00  1.00800000E+00  0.00000000E+00  1.60000000E+01
  1.00800000E+00  1.00800000E+00  0.00000000E+00  1.60000000E+01  1.00800000E+00
  1.00800000E+00  0.00000000E+00  1.60000000E+01  1.00800000E+00  1.00800000E+00
  0.00000000E+00  1.60000000E+01  1.00800000E+00  1.00800000E+00  0.00000000E+00
  1.60000000E+01  1.00800000E+00  1.00800000E+00  0.00000000E+00  1.60000000E+01
  1.00800000E+00  1.00800000E+00  0.00000000E+00  1.60000000E+01  1.00800000E+00
  1.00800000E+00  0.00000000E+00  1.60000000E+01  1.00800000E+00  1.00800000E+00
  0.00000000E+00  1.60000000E+01  1.00800000E+00  1.00800000E+00  0.00000000E+00
  1.60000000E+01  1.00800000E+00  1.00800000E+00  0.00000000E+00  1.60000000E+01
  1.00800000E+00  1.00800000E+00  0.00000000E+00  1.60000000E+01  1.00800000E+00
  1.00800000E+00  0.00000000E+00  1.60000000E+01  1.00800000E+00  1.00800000E+00
  0.00000000E+00  1.60000000E+01  1.00800000E+00  1.00800000E+00  0.00000000E+00
  1.60000000E+01  1.00800000E+00  1.00800000E+00  0.00000000E+00  1.60000000E+01
  1.00800000E+00  1.00800000E+00  0.00000000E+00  1.60000000E+01  1.00800000E+00
  1.00800000E+00  0.00000000E+00  1.60000000E+01  1.00800000E+00  1.00800000E+00
  0.00000000E+00  1.60000000E+01  1.00800000E+00  1.00800000E+00  0.00000000E+00
  1.60000000E+01  1.00800000E+00  1.00800000E+00  0.00000000E+00  1.60000000E+01
  1.00800000E+00  1.00800000E+00  0.00000000E+00  1.60000000E+01  1.00800000E+00
  1.00800000E+00  0.00000000E+00  1.60000000E+01  1.00800000E+00  1.00800000E+00
  0.00000000E+00  1.60000000E+01  1.00800000E+00  1.00800000E+00  0.00000000E+00
  1.60000000E+01  1.00800000E+00  1.00800000E+00  0.00000000E+00  1.60000000E+01
  1.00800000E+00  1.00800000E+00  0.00000000E+00  1.60000000E+01  1.00800000E+00
  1.00800000E+00  0.00000000E+00  1.60000000E+01  1.00800000E+00  1.00800000E+00
  0.00000000E+00  1.60000000E+01  1.00800000E+00  1.00800000E+00  0.00000000E+00
  1.60000000E+01  1.00800000E+00  1.00800000E+00  0.00000000E+00  1.60000000E+01
  1.00800000E+00  1.00800000E+00  0.00000000E+00  1.60000000E+01  1.00800000E+00
  1.00800000E+00  0.00000000E+00  1.60000000E+01  1.00800000E+00  1.00800000E+00
  0.00000000E+00  1.60000000E+01  1.00800000E+00  1.00800000E+00  0.00000000E+00
  1.60000000E+01  1.00800000E+00  1.00800000E+00  0.00000000E+00  1.60000000E+01
  1.00800000E+00  1.00800000E+00  0.00000000E+00  1.60000000E+01  1.00800000E+00
  1.00800000E+00  0.00000000E+00  1.60000000E+01  1.00800000E+00  1.00800000E+00
  0.00000000E+00  1.60000000E+01  1.00800000E+00  1.00800000E+00  0.00000000E+00
  1.60000000E+01  1.00800000E+00  1.00800000E+00  0.00000000E+00  1.60000000E+01
  1.00800000E+00  1.00800000E+00  0.00000000E+00  1.60000000E+01  1.00800000E+00
  1.00800000E+00  0.00000000E+00  1.60000000E+01  1.00800000E+00  1.00800000E+00
  0.00000000E+00  1.60000000E+01  1.00800000E+00  1.00800000E+00  0.00000000E+00
  1.60000000E+01  1.00800000E+00  1.00800000E+00  0.00000000E+00  1.60000000E+01
  1.00800000E+00  1.00800000E+00  0.00000000E+00  1.60000000E+01  1.00800000E+00
  1.00800000E+00  0.00000000E+00  1.60000000E+01  1.00800000E+00  1.00800000E+00
  0.00000000E+00  1.60000000E+01  1.00800000E+00  1.00800000E+00  0.00000000E+00
  1.60000000E+01  1.00800000E+00  1.00800000E+00  0.00000000E+00  1.60000000E+01
  1.00800000E+00  1.00800000E+00  0.00000000E+00  1.60000000E+01  1.00800000E+00
  1.00800000E+00  0.00000000E+00  1.60000000E+01  1.00800000E+00  1.00800000E+00
  0.00000000E+00  1.60000000E+01  1.00800000E+00  1.00800000E+00  0.00000000E+00
  1.60000000E+01  1.00800000E+00  1.00800000E+00  0.00000000E+00  1.60000000E+01
  1.00800000E+00  1.00800000E+00  0.00000000E+00  1.60000000E+01  1.00800000E+00
  1.00800000E+00  0.00000000E+00  1.60000000E+01  1.00800000E+00  1.00800000E+00
  0.00000000E+00  1.60000000E+01  1.00800000E+00  1.00800000E+00  0.00000000E+00
  1.60000000E+01  1.00800000E+00  1.00800000E+00  0.00000000E+00  1.60000000E+01
  1.00800000E+00  1.00800000E+00  0.00000000E+00  1.60000000E+01  1.00800000E+00
  1.00800000E+00  0.00000000E+00  1.60000000E+01  1.00800000E+00  1.00800000E+00
  0.00000000E+00  1.60000000E+01  1.00800000E+00  1.00800000E+00  0.00000000E+00
  1.60000000E+01  1.00800000E+00  1.00800000E+00  0.00000000E+00  1.60000000E+01
  1.00800000E+00  1.00800000E+00  0.00000000E+00  1.60000000E+01  1.00800000E+00
  1.00800000E+00  0.00000000E+00  1.60000000E+01  1.00800000E+00  1.00800000E+00
  0.00000000E+00  1.60000000E+01  1.00800000E+00  1.00800000E+00  0.00000000E+00
  1.60000000E+01  1.00800000E+00  1.00800000E+00  0.00000000E+00  1.60000000E+01
  1.00800000E+00  1.00800000E+00  0.00000000E+00  1.60000000E+01  1.00800000E+00
  1.00800000E+00  0.00000000E+00  1.60000000E+01  1.00800000E+00  1.00800000E+00
  0.00000000E+00  1.60000000E+01  1.00800000E+00  1.00800000E+00  0.00000000E+00
  1.60000000E+01  1.00800000E+00  1.00800000E+00  0.00000000E+00  1.60000000E+01
  1.00800000E+00  1.00800000E+00  0.00000000E+00  1.60000000E+01  1.00800000E+00
  1.00800000E+00  0.00000000E+00  1.60000000E+01  1.00800000E+00  1.00800000E+00
  0.00000000E+00  1.60000000E+01  1.00800000E+00  1.00800000E+00  0.00000000E+00
  1.60000000E+01  1.00800000E+00  1.00800000E+00  0.00000000E+00  1.60000000E+01
  1.00800000E+00  1.00800000E+00  0.00000000E+00  1.60000000E+01  1.00800000E+00
  1.00800000E+00  0.00000000E+00  1.60000000E+01  1.00800000E+00  1.00800000E+00
  0.00000000E+00  1.60000000E+01  1.00800000E+00  1.00800000E+00  0.00000000E+00
  1.60000000E+01  1.00800000E+00  1.00800000E+00  0.00000000E+00  1.60000000E+01
  1.00800000E+00  1.00800000E+00  0.00000000E+00  1.60000000E+01  1.00800000E+00
  1.00800000E+00  0.00000000E+00  1.60000000E+01  1.00800000E+00  1.00800000E+00
  0.00000000E+00  1.60000000E+01  1.00800000E+00  1.00800000E+00  0.00000000E+00
  1.60000000E+01  1.00800000E+00  1.00800000E+00  0.00000000E+00  1.60000000E+01
  1.00800000E+00  1.00800000E+00  0.00000000E+00  1.60000000E+01  1.00800000E+00
  1.00800000E+00  0.00000000E+00  1.60000000E+01  1.00800000E+00  1.00800000E+00
  0.00000000E+00  1.60000000E+01  1.00800000E+00  1.00800000E+00  0.00000000E+00
  1.60000000E+01  1.00800000E+00  1.00800000E+00  0.00000000E+00  1.60000000E+01
  1.00800000E+00  1.00800000E+00  0.00000000E+00  1.60000000E+01  1.00800000E+00
  1.00800000E+00  0.00000000E+00  1.60000000E+01  1.00800000E+00  1.00800000E+00
  0.00000000E+00  1.60000000E+01  1.00800000E+00  1.00800000E+00  0.00000000E+00
  1.60000000E+01  1.00800000E+00  1.00800000E+00  0.00000000E+00  1.60000000E+01
  1.00800000E+00  1.00800000E+00  0.00000000E+00  1.60000000E+01  1.00800000E+00
  1.00800000E+00  0.00000000E+00  1.60000000E+01  1.00800000E+00  1.00800000E+00
  0.00000000E+00  1.60000000E+01  1.00800000E+00  1.00800000E+00  0.00000000E+00
  1.60000000E+01  1.00800000E+00  1.00800000E+00  0.00000000E+00  1.60000000E+01
  1.00800000E+00  1.00800000E+00  0.00000000E+00  1.60000000E+01  1.00800000E+00
  1.00800000E+00  0.00000000E+00  1.60000000E+01  1.00800000E+00  1.00800000E+00
  0.00000000E+00  1.60000000E+01  1.00800000E+00  1.00800000E+00  0.00000000E+00
  1.60000000E+01  1.00800000E+00  1.00800000E+00  0.00000000E+00  1.60000000E+01
  1.00800000E+00  1.00800000E+00  0.00000000E+00  1.60000000E+01  1.00800000E+00
  1.00800000E+00  0.00000000E+00  1.60000000E+01  1.00800000E+00  1.00800000E+00
  0.00000000E+00  1.60000000E+01  1.00800000E+00  1.00800000E+00  0.00000000E+00
  1.60000000E+01  1.00800000E+00  1.00800000E+00  0.00000000E+00  1.60000000E+01
  1.00800000E+00  1.00800000E+00  0.00000000E+00  1.60000000E+01  1.00800000E+00
  1.00800000E+00  0.00000000E+00  1.60000000E+01  1.00800000E+00  1.00800000E+00
  0.00000000E+00  1.60000000E+01  1.00800000E+00  1.00800000E+00  0.00000000E+00
  1.60000000E+01  1.00800000E+00  1.00800000E+00  0.00000000E+00  1.60000000E+01
  1.00800000E+00  1.00800000E+00  0.00000000E+00  1.60000000E+01  1.00800000E+00
  1.00800000E+00  0.00000000E+00  1.60000000E+01  1.00800000E+00  1.00800000E+00
  0.00000000E+00  1.60000000E+01  1.00800000E+00  1.00800000E+00  0.00000000E+00
  1.60000000E+01  1.00800000E+00  1.00800000E+00  0.00000000E+00  1.60000000E+01
  1.00800000E+00  1.00800000E+00  0.00000000E+00  1.60000000E+01  1.00800000E+00
  1.00800000E+00  0.00000000E+00  1.60000000E+01  1.00800000E+00  1.00800000E+00
  0.00000000E+00  1.60000000E+01  1.00800000E+00  1.00800000E+00  0.00000000E+00
  1.60000000E+01  1.00800000E+00  1.00800000E+00  0.00000000E+00  1.60000000E+01
  1.00800000E+00  1.00800000E+00  0.00000000E+00  1.60000000E+01  1.00800000E+00
  1.00800000E+00  0.00000000E+00  1.60000000E+01  1.00800000E+00  1.00800000E+00
  0.00000000E+00  1.60000000E+01  1.00800000E+00  1.00800000E+00  0.00000000E+00
  1.60000000E+01  1.00800000E+00  1.00800000E+00  0.00000000E+00  1.60000000E+01
  1.00800000E+00  1.00800000E+00  0.00000000E+00  1.60000000E+01  1.00800000E+00
  1.00800000E+00  0.00000000E+00  1.60000000E+01  1.00800000E+00  1.00800000E+00
  0.00000000E+00  1.60000000E+01  1.00800000E+00  1.00800000E+00  0.00000000E+00
  1.60000000E+01  1.00800000E+00  1.00800000E+00  0.00000000E+00  1.60000000E+01
  1.00800000E+00  1.00800000E+00  0.00000000E+00  1.60000000E+01  1.00800000E+00
  1.00800000E+00  0.00000000E+00  1.60000000E+01  1.00800000E+00  1.00800000E+00
  0.00000000E+00  1.60000000E+01  1.00800000E+00  1.00800000E+00  0.00000000E+00
  1.60000000E+01  1.00800000E+00  1.00800000E+00  0.00000000E+00  1.60000000E+01
  1.00800000E+00  1.00800000E+00  0.00000000E+00  1.60000000E+01  1.00800000E+00
  1.00800000E+00  0.00000000E+00  1.60000000E+01  1.00800000E+00  1.00800000E+00
  0.00000000E+00  1.60000000E+01  1.00800000E+00  1.00800000E+00  0.00000000E+00
  1.60000000E+01  1.00800000E+00  1.00800000E+00  0.00000000E+00  1.60000000E+01
  1.00800000E+00  1.00800000E+00  0.00000000E+00  1.60000000E+01  1.00800000E+00
  1.00800000E+00  0.00000000E+00  1.60000000E+01  1.00800000E+00  1.00800000E+00
  0.00000000E+00  1.60000000E+01  1.00800000E+00  1.00800000E+00  0.00000000E+00
  1.60000000E+01  1.00800000E+00  1.00800000E+00  0.00000000E+00  1.60000000E+01
  1.00800000E+00  1.00800000E+00  0.00000000E+00  1.60000000E+01  1.00800000E+00
  1.00800000E+00  0.00000000E+00  1.60000000E+01  1.00800000E+00  1.00800000E+00
  0.00000000E+00  1.60000000E+01  1.00800000E+00  1.00800000E+00  0.00000000E+00
  1.60000000E+01  1.00800000E+00  1.00800000E+00  0.00000000E+00  1.60000000E+01
  1.00800000E+00  1.00800000E+00  0.00000000E+00  1.60000000E+01  1.00800000E+00
  1.00800000E+00  0.00000000E+00  1.60000000E+01  1.00800000E+00  1.00800000E+00
  0.00000000E+00  1.60000000E+01  1.00800000E+00  1.00800000E+00  0.00000000E+00
  1.60000000E+01  1.00800000E+00  1.00800000E+00  0.00000000E+00  1.60000000E+01
  1.00800000E+00  1.00800000E+00  0.00000000E+00  1.60000000E+01  1.00800000E+00
  1.00800000E+00  0.00000000E+00  1.60000000E+01  1.00800000E+00  1.00800000E+00
  0.00000000E+00  1.60000000E+01  1.00800000E+00  1.00800000E+00  0.00000000E+00
  1.60000000E+01  1.00800000E+00  1.00800000E+00  0.00000000E+00  1.60000000E+01
  1.00800000E+00  1.00800000E+00  0.00000000E+00  1.60000000E+01  1.00800000E+00
  1.00800000E+00  0.00000000E+00  1.60000000E+01  1.00800000E+00  1.00800000E+00
  0.00000000E+00  1.60000000E+01  1.00800000E+00  1.00800000E+00  0.00000000E+00
  1.60000000E+01  1.00800000E+00  1.00800000E+00  0.00000000E+00  1.60000000E+01
  1.00800000E+00  1.00800000E+00  0.00000000E+00  1.60000000E+01  1.00800000E+00
  1.00800000E+00  0.00000000E+00  1.60000000E+01  1.00800000E+00  1.00800000E+00
  0.00000000E+00  1.60000000E+01  1.00800000E+00  1.00800000E+00  0.00000000E+00
  1.60000000E+01  1.00800000E+00  1.00800000E+00  0.00000000E+00  1.60000000E+01
  1.00800000E+00  1.00800000E+00  0.00000000E+00  1.60000000E+01  1.00800000E+00
  1.00800000E+00  0.00000000E+00  1.60000000E+01  1.00800000E+00  1.00800000E+00
  0.00000000E+00  1.60000000E+01  1.00800000E+00  1.00800000E+00  0.00000000E+00
  1.60000000E+01  1.00800000E+00  1.00800000E+00  0.00000000E+00  1.60000000E+01
  1.00800000E+00  1.00800000E+00  0.00000000E+00  1.60000000E+01  1.00800000E+00
  1.00800000E+00  0.00000000E+00  1.60000000E+01  1.00800000E+00  1.00800000E+00
  0.00000000E+00  1.60000000E+01  1.00800000E+00  1.00800000E+00  0.00000000E+00
  1.60000000E+01  1.00800000E+00  1.00800000E+00  0.00000000E+00  1.60000000E+01
  1.00800000E+00  1.00800000E+00  0.00000000E+00  1.60000000E+01  1.00800000E+00
  1.00800000E+00  0.00000000E+00  1.60000000E+01  1.00800000E+00  1.00800000E+00
  0.00000000E+00  1.60000000E+01  1.00800000E+00  1.00800000E+00  0.00000000E+00
  1.60000000E+01  1.00800000E+00  1.00800000E+00  0.00000000E+00  1.60000000E+01
  1.00800000E+00  1.00800000E+00  0.00000000E+00  1.60000000E+01  1.00800000E+00
  1.00800000E+00  0.00000000E+00  1.60000000E+01  1.00800000E+00  1.00800000E+00
  0.00000000E+00  1.60000000E+01  1.00800000E+00  1.00800000E+00  0.00000000E+00
  1.60000000E+01  1.00800000E+00  1.00800000E+00  0.00000000E+00  1.60000000E+01
  1.00800000E+00  1.00800000E+00  0.00000000E+00  1.60000000E+01  1.00800000E+00
  1.00800000E+00  0.00000000E+00  1.60000000E+01  1.00800000E+00  1.00800000E+00
  0.00000000E+00  1.60000000E+01  1.00800000E+00  1.00800000E+00  0.00000000E+00
  1.60000000E+01  1.00800000E+00  1.00800000E+00  0.00000000E+00  1.60000000E+01
  1.00800000E+00  1.00800000E+00  0.00000000E+00  1.60000000E+01  1.00800000E+00
  1.00800000E+00  0.00000000E+00  1.60000000E+01  1.00800000E+00  1.00800000E+00
  0.00000000E+00  1.60000000E+01  1.00800000E+00  1.00800000E+00  0.00000000E+00
  1.60000000E+01  1.00800000E+00  1.00800000E+00  0.00000000E+00  1.60000000E+01
  1.00800000E+00  1.00800000E+00  0.00000000E+00  1.60000000E+01  1.00800000E+00
  1.00800000E+00  0.00000000E+00  1.60000000E+01  1.00800000E+00  1.00800000E+00
  0.00000000E+00  1.60000000E+01  1.00800000E+00  1.00800000E+00  0.00000000E+00
  1.60000000E+01  1.00800000E+00  1.00800000E+00  0.00000000E+00  1.60000000E+01
  1.00800000E+00  1.00800000E+00  0.00000000E+00  1.60000000E+01  1.00800000E+00
  1.00800000E+00  0.00000000E+00  1.60000000E+01  1.00800000E+00  1.00800000E+00
  0.00000000E+00  1.60000000E+01  1.00800000E+00  1.00800000E+00  0.00000000E+00
  1.60000000E+01  1.00800000E+00  1.00800000E+00  0.00000000E+00  1.60000000E+01
  1.00800000E+00  1.00800000E+00  0.00000000E+00  1.60000000E+01  1.00800000E+00
  1.00800000E+00  0.00000000E+00  1.60000000E+01  1.00800000E+00  1.00800000E+00
  0.00000000E+00  1.60000000E+01  1.00800000E+00  1.00800000E+00  0.00000000E+00
  1.60000000E+01  1.00800000E+00  1.00800000E+00  0.00000000E+00  1.60000000E+01
  1.00800000E+00  1.00800000E+00  0.00000000E+00  1.60000000E+01  1.00800000E+00
  1.00800000E+00  0.00000000E+00  1.60000000E+01  1.00800000E+00  1.00800000E+00
  0.00000000E+00  1.60000000E+01  1.00800000E+00  1.00800000E+00  0.00000000E+00
  1.60000000E+01  1.00800000E+00  1.00800000E+00  0.00000000E+00  1.60000000E+01
  1.00800000E+00  1.00800000E+00  0.00000000E+00  1.60000000E+01  1.00800000E+00
  1.00800000E+00  0.00000000E+00  1.60000000E+01  1.00800000E+00  1.00800000E+00
  0.00000000E+00  1.60000000E+01  1.00800000E+00  1.00800000E+00  0.00000000E+00
  1.60000000E+01  1.00800000E+00  1.00800000E+00  0.00000000E+00  1.60000000E+01
  1.00800000E+00  1.00800000E+00  0.00000000E+00  1.60000000E+01  1.00800000E+00
  1.00800000E+00  0.00000000E+00  1.60000000E+01  1.00800000E+00  1.00800000E+00
  0.00000000E+00  1.60000000E+01  1.00800000E+00  1.00800000E+00  0.00000000E+00
  1.60000000E+01  1.00800000E+00  1.00800000E+00  0.00000000E+00  1.60000000E+01
  1.00800000E+00  1.00800000E+00  0.00000000E+00  1.60000000E+01  1.00800000E+00
  1.00800000E+00  0.00000000E+00  1.60000000E+01  1.00800000E+00  1.00800000E+00
  0.00000000E+00  1.60000000E+01  1.00800000E+00  1.00800000E+00  0.00000000E+00
  1.60000000E+01  1.00800000E+00  1.00800000E+00  0.00000000E+00  1.60000000E+01
  1.00800000E+00  1.00800000E+00  0.00000000E+00  1.60000000E+01  1.00800000E+00
  1.00800000E+00  0.00000000E+00  1.60000000E+01  1.00800000E+00  1.00800000E+00
  0.00000000E+00  1.60000000E+01  1.00800000E+00  1.00800000E+00  0.00000000E+00
  1.60000000E+01  1.00800000E+00  1.00800000E+00  0.00000000E+00  1.60000000E+01
  1.00800000E+00  1.00800000E+00  0.00000000E+00  1.60000000E+01  1.00800000E+00
  1.00800000E+00  0.00000000E+00  1.60000000E+01  1.00800000E+00  1.00800000E+00
  0.00000000E+00  1.60000000E+01  1.00800000E+00  1.00800000E+00  0.00000000E+00
  1.60000000E+01  1.00800000E+00  1.00800000E+00  0.00000000E+00  1.60000000E+01
  1.00800000E+00  1.00800000E+00  0.00000000E+00  1.60000000E+01  1.00800000E+00
  1.00800000E+00  0.00000000E+00  1.60000000E+01  1.00800000E+00  1.00800000E+00
  0.00000000E+00  1.60000000E+01  1.00800000E+00  1.00800000E+00  0.00000000E+00
  1.60000000E+01  1.00800000E+00  1.00800000E+00  0.00000000E+00  1.60000000E+01
  1.00800000E+00  1.00800000E+00  0.00000000E+00  1.60000000E+01  1.00800000E+00
  1.00800000E+00  0.00000000E+00  1.60000000E+01  1.00800000E+00  1.00800000E+00
  0.00000000E+00  1.60000000E+01  1.00800000E+00  1.00800000E+00  0.00000000E+00
  1.60000000E+01  1.00800000E+00  1.00800000E+00  0.00000000E+00  1.60000000E+01
  1.00800000E+00  1.00800000E+00  0.00000000E+00  1.60000000E+01  1.00800000E+00
  1.00800000E+00  0.00000000E+00  1.60000000E+01  1.00800000E+00  1.00800000E+00
  0.00000000E+00  1.60000000E+01  1.00800000E+00  1.00800000E+00  0.00000000E+00
  1.60000000E+01  1.00800000E+00  1.00800000E+00  0.00000000E+00  1.60000000E+01
  1.00800000E+00  1.00800000E+00  0.00000000E+00  1.60000000E+01  1.00800000E+00
  1.00800000E+00  0.00000000E+00  1.60000000E+01  1.00800000E+00  1.00800000E+00
  0.00000000E+00  1.60000000E+01  1.00800000E+00  1.00800000E+00  0.00000000E+00
  1.60000000E+01  1.00800000E+00  1.00800000E+00  0.00000000E+00  1.60000000E+01
  1.00800000E+00  1.00800000E+00  0.00000000E+00  1.60000000E+01  1.00800000E+00
  1.00800000E+00  0.00000000E+00  1.60000000E+01  1.00800000E+00  1.00800000E+00
  0.00000000E+00  1.60000000E+01  1.00800000E+00  1.00800000E+00  0.00000000E+00
  1.60000000E+01  1.00800000E+00  1.00800000E+00  0.00000000E+00  1.60000000E+01
  1.00800000E+00  1.00800000E+00  0.00000000E+00  1.60000000E+01  1.00800000E+00
  1.00800000E+00  0.00000000E+00  1.60000000E+01  1.00800000E+00  1.00800000E+00
  0.00000000E+00  1.60000000E+01  1.00800000E+00  1.00800000E+00  0.00000000E+00
  1.60000000E+01  1.00800000E+00  1.00800000E+00  0.00000000E+00  1.60000000E+01
  1.00800000E+00  1.00800000E+00  0.00000000E+00  1.60000000E+01  1.00800000E+00
  1.00800000E+00  0.00000000E+00  1.60000000E+01  1.00800000E+00  1.00800000E+00
  0.00000000E+00  1.60000000E+01  1.00800000E+00  1.00800000E+00  0.00000000E+00
  1.60000000E+01  1.00800000E+00  1.00800000E+00  0.00000000E+00  1.60000000E+01
  1.00800000E+00  1.00800000E+00  0.00000000E+00  1.60000000E+01  1.00800000E+00
  1.00800000E+00  0.00000000E+00  1.60000000E+01  1.00800000E+00  1.00800000E+00
  0.00000000E+00  1.60000000E+01  1.00800000E+00  1.00800000E+00  0.00000000E+00
  1.60000000E+01  1.00800000E+00  1.00800000E+00  0.00000000E+00  1.60000000E+01
  1.00800000E+00  1.00800000E+00  0.00000000E+00  1.60000000E+01  1.00800000E+00
  1.00800000E+00  0.00000000E+00  1.60000000E+01  1.00800000E+00  1.00800000E+00
  0.00000000E+00  1.60000000E+01  1.00800000E+00  1.00800000E+00  0.00000000E+00
  1.60000000E+01  1.00800000E+00  1.00800000E+00  0.00000000E+00  1.60000000E+01
  1.00800000E+00  1.00800000E+00  0.00000000E+00  1.60000000E+01  1.00800000E+00
  1.00800000E+00  0.00000000E+00  1.60000000E+01  1.00800000E+00  1.00800000E+00
  0.00000000E+00  1.60000000E+01  1.00800000E+00  1.00800000E+00  0.00000000E+00
  1.60000000E+01  1.00800000E+00  1.00800000E+00  0.00000000E+00  1.60000000E+01
  1.00800000E+00  1.00800000E+00  0.00000000E+00  1.60000000E+01  1.00800000E+00
  1.00800000E+00  0.00000000E+00  1.60000000E+01  1.00800000E+00  1.00800000E+00
  0.00000000E+00  1.60000000E+01  1.00800000E+00  1.00800000E+00  0.00000000E+00
  1.60000000E+01  1.00800000E+00  1.00800000E+00  0.00000000E+00  1.60000000E+01
  1.00800000E+00  1.00800000E+00  0.00000000E+00  1.60000000E+01  1.00800000E+00
  1.00800000E+00  0.00000000E+00  1.60000000E+01  1.00800000E+00  1.00800000E+00
  0.00000000E+00  1.60000000E+01  1.00800000E+00  1.00800000E+00  0.00000000E+00
  1.60000000E+01  1.00800000E+00  1.00800000E+00  0.00000000E+00  1.60000000E+01
  1.00800000E+00  1.00800000E+00  0.00000000E+00  1.60000000E+01  1.00800000E+00
  1.00800000E+00  0.00000000E+00  1.60000000E+01  1.00800000E+00  1.00800000E+00
  0.00000000E+00  1.60000000E+01  1.00800000E+00  1.00800000E+00  0.00000000E+00
  1.60000000E+01  1.00800000E+00  1.00800000E+00  0.00000000E+00  1.60000000E+01
  1.00800000E+00  1.00800000E+00  0.00000000E+00  1.60000000E+01  1.00800000E+00
  1.00800000E+00  0.00000000E+00  1.60000000E+01  1.00800000E+00  1.00800000E+00
  0.00000000E+00  1.60000000E+01  1.00800000E+00  1.00800000E+00  0.00000000E+00
  1.60000000E+01  1.00800000E+00  1.00800000E+00  0.00000000E+00  1.60000000E+01
  1.00800000E+00  1.00800000E+00  0.00000000E+00  1.60000000E+01  1.00800000E+00
  1.00800000E+00  0.00000000E+00  1.60000000E+01  1.00800000E+00  1.00800000E+00
  0.00000000E+00  1.60000000E+01  1.00800000E+00  1.00800000E+00  0.00000000E+00
  1.60000000E+01  1.00800000E+00  1.00800000E+00  0.00000000E+00  1.60000000E+01
  1.00800000E+00  1.00800000E+00  0.00000000E+00  1.60000000E+01  1.00800000E+00
  1.00800000E+00  0.00000000E+00  1.60000000E+01  1.00800000E+00  1.00800000E+00
  0.00000000E+00  1.60000000E+01  1.00800000E+00  1.00800000E+00  0.00000000E+00
  1.60000000E+01  1.00800000E+00  1.00800000E+00  0.00000000E+00  1.60000000E+01
  1.00800000E+00  1.00800000E+00  0.00000000E+00  1.60000000E+01  1.00800000E+00
  1.00800000E+00  0.00000000E+00  1.60000000E+01  1.00800000E+00  1.00800000E+00
  0.00000000E+00  1.60000000E+01  1.00800000E+00  1.00800000E+00  0.00000000E+00
  1.60000000E+01  1.00800000E+00  1.00800000E+00  0.00000000E+00  1.60000000E+01
  1.00800000E+00  1.00800000E+00  0.00000000E+00  1.60000000E+01  1.00800000E+00
  1.00800000E+00  0.00000000E+00  1.60000000E+01  1.00800000E+00  1.00800000E+00
  0.00000000E+00  1.60000000E+01  1.00800000E+00  1.00800000E+00  0.00000000E+00
  1.60000000E+01  1.00800000E+00  1.00800000E+00  0.00000000E+00  1.60000000E+01
  1.00800000E+00  1.00800000E+00  0.00000000E+00  1.60000000E+01  1.00800000E+00
  1.00800000E+00  0.00000000E+00  1.60000000E+01  1.00800000E+00  1.00800000E+00
  0.00000000E+00  1.60000000E+01  1.00800000E+00  1.00800000E+00  0.00000000E+00
  1.60000000E+01  1.00800000E+00  1.00800000E+00  0.00000000E+00  1.60000000E+01
  1.00800000E+00  1.00800000E+00  0.00000000E+00  1.60000000E+01  1.00800000E+00
  1.00800000E+00  0.00000000E+00  1.60000000E+01  1.00800000E+00  1.00800000E+00
  0.00000000E+00  1.60000000E+01  1.00800000E+00  1.00800000E+00  0.00000000E+00
  1.60000000E+01  1.00800000E+00  1.00800000E+00  0.00000000E+00  1.60000000E+01
  1.00800000E+00  1.00800000E+00  0.00000000E+00  1.60000000E+01  1.00800000E+00
  1.00800000E+00  0.00000000E+00  1.60000000E+01  1.00800000E+00  1.00800000E+00
  0.00000000E+00  1.60000000E+01  1.00800000E+00  1.00800000E+00  0.00000000E+00
  1.60000000E+01  1.00800000E+00  1.00800000E+00  0.00000000E+00  1.60000000E+01
  1.00800000E+00  1.00800000E+00  0.00000000E+00  1.60000000E+01  1.00800000E+00
  1.00800000E+00  0.00000000E+00  1.60000000E+01  1.00800000E+00  1.00800000E+00
  0.00000000E+00  1.60000000E+01  1.00800000E+00  1.00800000E+00  0.00000000E+00
  1.60000000E+01  1.00800000E+00  1.00800000E+00  0.00000000E+00  1.60000000E+01
  1.00800000E+00  1.00800000E+00  0.00000000E+00  1.60000000E+01  1.00800000E+00
  1.00800000E+00  0.00000000E+00  1.60000000E+01  1.00800000E+00  1.00800000E+00
  0.00000000E+00  1.60000000E+01  1.00800000E+00  1.00800000E+00  0.00000000E+00
  1.60000000E+01  1.00800000E+00  1.00800000E+00  0.00000000E+00  1.60000000E+01
  1.00800000E+00  1.00800000E+00  0.00000000E+00  1.60000000E+01  1.00800000E+00
  1.00800000E+00  0.00000000E+00  1.60000000E+01  1.00800000E+00  1.00800000E+00
  0.00000000E+00  1.60000000E+01  1.00800000E+00  1.00800000E+00  0.00000000E+00
  1.60000000E+01  1.00800000E+00  1.00800000E+00  0.00000000E+00  1.60000000E+01
  1.00800000E+00  1.00800000E+00  0.00000000E+00  1.60000000E+01  1.00800000E+00
  1.00800000E+00  0.00000000E+00  1.60000000E+01  1.00800000E+00  1.00800000E+00
  0.00000000E+00  1.60000000E+01  1.00800000E+00  1.00800000E+00  0.00000000E+00
  1.60000000E+01  1.00800000E+00  1.00800000E+00  0.00000000E+00  1.60000000E+01
  1.00800000E+00  1.00800000E+00  0.00000000E+00  1.60000000E+01  1.00800000E+00
  1.00800000E+00  0.00000000E+00  1.60000000E+01  1.00800000E+00  1.00800000E+00
  0.00000000E+00  1.60000000E+01  1.00800000E+00  1.00800000E+00  0.00000000E+00
  1.60000000E+01  1.00800000E+00  1.00800000E+00  0.00000000E+00  1.60000000E+01
  1.00800000E+00  1.00800000E+00  0.00000000E+00  1.60000000E+01  1.00800000E+00
  1.00800000E+00  0.00000000E+00  1.60000000E+01  1.00800000E+00  1.00800000E+00
  0.00000000E+00  1.60000000E+01  1.00800000E+00  1.00800000E+00  0.00000000E+00
  1.60000000E+01  1.00800000E+00  1.00800000E+00  0.00000000E+00  1.60000000E+01
  1.00800000E+00  1.00800000E+00  0.00000000E+00  1.60000000E+01  1.00800000E+00
  1.00800000E+00  0.00000000E+00  1.60000000E+01  1.00800000E+00  1.00800000E+00
  0.00000000E+00  1.60000000E+01  1.00800000E+00  1.00800000E+00  0.00000000E+00
  1.60000000E+01  1.00800000E+00  1.00800000E+00  0.00000000E+00  1.60000000E+01
  1.00800000E+00  1.00800000E+00  0.00000000E+00  1.60000000E+01  1.00800000E+00
  1.00800000E+00  0.00000000E+00  1.60000000E+01  1.00800000E+00  1.00800000E+00
  0.00000000E+00  1.60000000E+01  1.00800000E+00  1.00800000E+00  0.00000000E+00
  1.60000000E+01  1.00800000E+00  1.00800000E+00  0.00000000E+00  1.60000000E+01
  1.00800000E+00  1.00800000E+00  0.00000000E+00  1.60000000E+01  1.00800000E+00
  1.00800000E+00  0.00000000E+00  1.60000000E+01  1.00800000E+00  1.00800000E+00
  0.00000000E+00  1.60000000E+01  1.00800000E+00  1.00800000E+00  0.00000000E+00
  1.60000000E+01  1.00800000E+00  1.00800000E+00  0.00000000E+00  1.60000000E+01
  1.00800000E+00  1.00800000E+00  0.00000000E+00  1.60000000E+01  1.00800000E+00
  1.00800000E+00  0.00000000E+00  1.60000000E+01  1.00800000E+00  1.00800000E+00
  0.00000000E+00  1.60000000E+01  1.00800000E+00  1.00800000E+00  0.00000000E+00
  1.60000000E+01  1.00800000E+00  1.00800000E+00  0.00000000E+00  1.60000000E+01
  1.00800000E+00  1.00800000E+00  0.00000000E+00  1.60000000E+01  1.00800000E+00
  1.00800000E+00  0.00000000E+00  1.60000000E+01  1.00800000E+00  1.00800000E+00
  0.00000000E+00  1.60000000E+01  1.00800000E+00  1.00800000E+00  0.00000000E+00
  1.60000000E+01  1.00800000E+00  1.00800000E+00  0.00000000E+00  1.60000000E+01
  1.00800000E+00  1.00800000E+00  0.00000000E+00  1.60000000E+01  1.00800000E+00
  1.00800000E+00  0.00000000E+00  1.60000000E+01  1.00800000E+00  1.00800000E+00
  0.00000000E+00  1.60000000E+01  1.00800000E+00  1.00800000E+00  0.00000000E+00
  1.60000000E+01  1.00800000E+00  1.00800000E+00  0.00000000E+00  1.60000000E+01
  1.00800000E+00  1.00800000E+00  0.00000000E+00  1.60000000E+01  1.00800000E+00
  1.00800000E+00  0.00000000E+00  1.60000000E+01  1.00800000E+00  1.00800000E+00
  0.00000000E+00  1.60000000E+01  1.00800000E+00  1.00800000E+00  0.00000000E+00
  1.60000000E+01  1.00800000E+00  1.00800000E+00  0.00000000E+00  1.60000000E+01
  1.00800000E+00  1.00800000E+00  0.00000000E+00  1.60000000E+01  1.00800000E+00
  1.00800000E+00  0.00000000E+00  1.60000000E+01  1.00800000E+00  1.00800000E+00
  0.00000000E+00  1.60000000E+01  1.00800000E+00  1.00800000E+00  0.00000000E+00
  1.60000000E+01  1.00800000E+00  1.00800000E+00  0.00000000E+00  1.60000000E+01
  1.00800000E+00  1.00800000E+00  0.00000000E+00  1.60000000E+01  1.00800000E+00
  1.00800000E+00  0.00000000E+00  1.60000000E+01  1.00800000E+00  1.00800000E+00
  0.00000000E+00  1.60000000E+01  1.00800000E+00  1.00800000E+00  0.00000000E+00
  1.60000000E+01  1.00800000E+00  1.00800000E+00  0.00000000E+00  1.60000000E+01
  1.00800000E+00  1.00800000E+00  0.00000000E+00  1.60000000E+01  1.00800000E+00
  1.00800000E+00  0.00000000E+00  1.60000000E+01  1.00800000E+00  1.00800000E+00
  0.00000000E+00  1.60000000E+01  1.00800000E+00  1.00800000E+00  0.00000000E+00
  1.60000000E+01  1.00800000E+00  1.00800000E+00  0.00000000E+00  1.60000000E+01
  1.00800000E+00  1.00800000E+00  0.00000000E+00  1.60000000E+01  1.00800000E+00
  1.00800000E+00  0.00000000E+00  1.60000000E+01  1.00800000E+00  1.00800000E+00
  0.00000000E+00  1.60000000E+01  1.00800000E+00  1.00800000E+00  0.00000000E+00
  1.60000000E+01  1.00800000E+00  1.00800000E+00  0.00000000E+00  1.60000000E+01
  1.00800000E+00  1.00800000E+00  0.00000000E+00  1.60000000E+01  1.00800000E+00
  1.00800000E+00  0.00000000E+00  1.60000000E+01  1.00800000E+00  1.00800000E+00
  0.00000000E+00  1.60000000E+01  1.00800000E+00  1.00800000E+00  0.00000000E+00
  1.60000000E+01  1.00800000E+00  1.00800000E+00  0.00000000E+00  1.60000000E+01
  1.00800000E+00  1.00800000E+00  0.00000000E+00  1.60000000E+01  1.00800000E+00
  1.00800000E+00  0.00000000E+00  1.60000000E+01  1.00800000E+00  1.00800000E+00
  0.00000000E+00  1.60000000E+01  1.00800000E+00  1.00800000E+00  0.00000000E+00
  1.60000000E+01  1.00800000E+00  1.00800000E+00  0.00000000E+00  1.60000000E+01
  1.00800000E+00  1.00800000E+00  0.00000000E+00  1.60000000E+01  1.00800000E+00
  1.00800000E+00  0.00000000E+00  1.60000000E+01  1.00800000E+00  1.00800000E+00
  0.00000000E+00  1.60000000E+01  1.00800000E+00  1.00800000E+00  0.00000000E+00
  1.60000000E+01  1.00800000E+00  1.00800000E+00  0.00000000E+00  1.60000000E+01
  1.00800000E+00  1.00800000E+00  0.00000000E+00  1.60000000E+01  1.00800000E+00
  1.00800000E+00  0.00000000E+00  1.60000000E+01  1.00800000E+00  1.00800000E+00
  0.00000000E+00  1.60000000E+01  1.00800000E+00  1.00800000E+00  0.00000000E+00
  1.60000000E+01  1.00800000E+00  1.00800000E+00  0.00000000E+00  1.60000000E+01
  1.00800000E+00  1.00800000E+00  0.00000000E+00  1.60000000E+01  1.00800000E+00
  1.00800000E+00  0.00000000E+00  1.60000000E+01  1.00800000E+00  1.00800000E+00
  0.00000000E+00  1.60000000E+01  1.00800000E+00  1.00800000E+00  0.00000000E+00
  1.60000000E+01  1.00800000E+00  1.00800000E+00  0.00000000E+00  1.60000000E+01
  1.00800000E+00  1.00800000E+00  0.00000000E+00  1.60000000E+01  1.00800000E+00
  1.00800000E+00  0.00000000E+00  1.60000000E+01  1.00800000E+00  1.00800000E+00
  0.00000000E+00  1.60000000E+01  1.00800000E+00  1.00800000E+00  0.00000000E+00
  1.60000000E+01  1.00800000E+00  1.00800000E+00  0.00000000E+00  1.60000000E+01
  1.00800000E+00  1.00800000E+00  0.00000000E+00  1.60000000E+01  1.00800000E+00
  1.00800000E+00  0.00000000E+00  1.60000000E+01  1.00800000E+00  1.00800000E+00
  0.00000000E+00  1.60000000E+01  1.00800000E+00  1.00800000E+00  0.00000000E+00
  1.60000000E+01  1.00800000E+00  1.00800000E+00  0.00000000E+00  1.60000000E+01
  1.00800000E+00  1.00800000E+00  0.00000000E+00  1.60000000E+01  1.00800000E+00
  1.00800000E+00  0.00000000E+00  1.60000000E+01  1.00800000E+00  1.00800000E+00
  0.00000000E+00  1.60000000E+01  1.00800000E+00  1.00800000E+00  0.00000000E+00
  1.60000000E+01  1.00800000E+00  1.00800000E+00  0.00000000E+00  1.60000000E+01
  1.00800000E+00  1.00800000E+00  0.00000000E+00  1.60000000E+01  1.00800000E+00
  1.00800000E+00  0.00000000E+00  1.60000000E+01  1.00800000E+00  1.00800000E+00
  0.00000000E+00  1.60000000E+01  1.00800000E+00  1.00800000E+00  0.00000000E+00
  1.60000000E+01  1.00800000E+00  1.00800000E+00  0.00000000E+00  1.60000000E+01
  1.00800000E+00  1.00800000E+00  0.00000000E+00  1.60000000E+01  1.00800000E+00
  1.00800000E+00  0.00000000E+00  1.60000000E+01  1.00800000E+00  1.00800000E+00
  0.00000000E+00  1.60000000E+01  1.00800000E+00  1.00800000E+00  0.00000000E+00
  1.60000000E+01  1.00800000E+00  1.00800000E+00  0.00000000E+00  1.60000000E+01
  1.00800000E+00  1.00800000E+00  0.00000000E+00  1.60000000E+01  1.00800000E+00
  1.00800000E+00  0.00000000E+00  1.60000000E+01  1.00800000E+00  1.00800000E+00
  0.00000000E+00  1.60000000E+01  1.00800000E+00  1.00800000E+00  0.00000000E+00
  1.60000000E+01  1.00800000E+00  1.00800000E+00  0.00000000E+00  1.60000000E+01
  1.00800000E+00  1.00800000E+00  0.00000000E+00  1.60000000E+01  1.00800000E+00
  1.00800000E+00  0.00000000E+00  1.60000000E+01  1.00800000E+00  1.00800000E+00
  0.00000000E+00  1.60000000E+01  1.00800000E+00  1.00800000E+00  0.00000000E+00
  1.60000000E+01  1.00800000E+00  1.00800000E+00  0.00000000E+00  1.60000000E+01
  1.00800000E+00  1.00800000E+00  0.00000000E+00  1.60000000E+01  1.00800000E+00
  1.00800000E+00  0.00000000E+00  1.60000000E+01  1.00800000E+00  1.00800000E+00
  0.00000000E+00  1.60000000E+01  1.00800000E+00  1.00800000E+00  0.00000000E+00
  1.60000000E+01  1.00800000E+00  1.00800000E+00  0.00000000E+00  1.60000000E+01
  1.00800000E+00  1.00800000E+00  0.00000000E+00  1.60000000E+01  1.00800000E+00
  1.00800000E+00  0.00000000E+00  1.60000000E+01  1.00800000E+00  1.00800000E+00
  0.00000000E+00  1.60000000E+01  1.00800000E+00  1.00800000E+00  0.00000000E+00
  1.60000000E+01  1.00800000E+00  1.00800000E+00  0.00000000E+00  1.60000000E+01
  1.00800000E+00  1.00800000E+00  0.00000000E+00  1.60000000E+01  1.00800000E+00
  1.00800000E+00  0.00000000E+00  1.60000000E+01  1.00800000E+00  1.00800000E+00
  0.00000000E+00  1.60000000E+01  1.00800000E+00  1.00800000E+00  0.00000000E+00
  1.60000000E+01  1.00800000E+00  1.00800000E+00  0.00000000E+00  1.60000000E+01
  1.00800000E+00  1.00800000E+00  0.00000000E+00  1.60000000E+01  1.00800000E+00
  1.00800000E+00  0.00000000E+00  1.60000000E+01  1.00800000E+00  1.00800000E+00
  0.00000000E+00  1.60000000E+01  1.00800000E+00  1.00800000E+00  0.00000000E+00
  1.60000000E+01  1.00800000E+00  1.00800000E+00  0.00000000E+00  1.60000000E+01
  1.00800000E+00  1.00800000E+00  0.00000000E+00  1.60000000E+01  1.00800000E+00
  1.00800000E+00  0.00000000E+00  1.60000000E+01  1.00800000E+00  1.00800000E+00
  0.00000000E+00  1.60000000E+01  1.00800000E+00  1.00800000E+00  0.00000000E+00
  1.60000000E+01  1.00800000E+00  1.00800000E+00  0.00000000E+00  1.60000000E+01
  1.00800000E+00  1.00800000E+00  0.00000000E+00  1.60000000E+01  1.00800000E+00
  1.00800000E+00  0.00000000E+00  1.60000000E+01  1.00800000E+00  1.00800000E+00
  0.00000000E+00  1.60000000E+01  1.00800000E+00  1.00800000E+00  0.00000000E+00
  1.60000000E+01  1.00800000E+00  1.00800000E+00  0.00000000E+00  1.60000000E+01
  1.00800000E+00  1.00800000E+00  0.00000000E+00  1.60000000E+01  1.00800000E+00
  1.00800000E+00  0.00000000E+00  1.60000000E+01  1.00800000E+00  1.00800000E+00
  0.00000000E+00  1.60000000E+01  1.00800000E+00  1.00800000E+00  0.00000000E+00
  1.60000000E+01  1.00800000E+00  1.00800000E+00  0.00000000E+00  1.60000000E+01
  1.00800000E+00  1.00800000E+00  0.00000000E+00  1.60000000E+01  1.00800000E+00
  1.00800000E+00  0.00000000E+00  1.60000000E+01  1.00800000E+00  1.00800000E+00
  0.00000000E+00  1.60000000E+01  1.00800000E+00  1.00800000E+00  0.00000000E+00
  1.60000000E+01  1.00800000E+00  1.00800000E+00  0.00000000E+00  1.60000000E+01
  1.00800000E+00  1.00800000E+00  0.00000000E+00  1.60000000E+01  1.00800000E+00
  1.00800000E+00  0.00000000E+00  1.60000000E+01  1.00800000E+00  1.00800000E+00
  0.00000000E+00  1.60000000E+01  1.00800000E+00  1.00800000E+00  0.00000000E+00
  1.60000000E+01  1.00800000E+00  1.00800000E+00  0.00000000E+00  1.60000000E+01
  1.00800000E+00  1.00800000E+00  0.00000000E+00  1.60000000E+01  1.00800000E+00
  1.00800000E+00  0.00000000E+00  1.60000000E+01  1.00800000E+00  1.00800000E+00
  0.00000000E+00  1.60000000E+01  1.00800000E+00  1.00800000E+00  0.00000000E+00
  1.60000000E+01  1.00800000E+00  1.00800000E+00  0.00000000E+00  1.60000000E+01
  1.00800000E+00  1.00800000E+00  0.00000000E+00  1.60000000E+01  1.00800000E+00
  1.00800000E+00  0.00000000E+00  1.60000000E+01  1.00800000E+00  1.00800000E+00
  0.00000000E+00  1.60000000E+01  1.00800000E+00  1.00800000E+00  0.00000000E+00
  1.60000000E+01  1.00800000E+00  1.00800000E+00  0.00000000E+00  1.60000000E+01
  1.00800000E+00  1.00800000E+00  0.00000000E+00  1.60000000E+01  1.00800000E+00
  1.00800000E+00  0.00000000E+00  1.60000000E+01  1.00800000E+00  1.00800000E+00
  0.00000000E+00  1.60000000E+01  1.00800000E+00  1.00800000E+00  0.00000000E+00
  1.60000000E+01  1.00800000E+00  1.00800000E+00  0.00000000E+00  1.60000000E+01
  1.00800000E+00  1.00800000E+00  0.00000000E+00  1.60000000E+01  1.00800000E+00
  1.00800000E+00  0.00000000E+00  1.60000000E+01  1.00800000E+00  1.00800000E+00
  0.00000000E+00  1.60000000E+01  1.00800000E+00  1.00800000E+00  0.00000000E+00
  1.60000000E+01  1.00800000E+00  1.00800000E+00  0.00000000E+00  1.60000000E+01
  1.00800000E+00  1.00800000E+00  0.00000000E+00  1.60000000E+01  1.00800000E+00
  1.00800000E+00  0.00000000E+00  1.60000000E+01  1.00800000E+00  1.00800000E+00
  0.00000000E+00  1.60000000E+01  1.00800000E+00  1.00800000E+00  0.00000000E+00
  1.60000000E+01  1.00800000E+00  1.00800000E+00  0.00000000E+00  1.60000000E+01
  1.00800000E+00  1.00800000E+00  0.00000000E+00  1.60000000E+01  1.00800000E+00
  1.00800000E+00  0.00000000E+00  1.60000000E+01  1.00800000E+00  1.00800000E+00
  0.00000000E+00  1.60000000E+01  1.00800000E+00  1.00800000E+00  0.00000000E+00
  1.60000000E+01  1.00800000E+00  1.00800000E+00  0.00000000E+00  1.60000000E+01
  1.00800000E+00  1.00800000E+00  0.00000000E+00  1.60000000E+01  1.00800000E+00
  1.00800000E+00  0.00000000E+00  1.60000000E+01  1.00800000E+00  1.00800000E+00
  0.00000000E+00  1.60000000E+01  1.00800000E+00  1.00800000E+00  0.00000000E+00
  1.60000000E+01  1.00800000E+00  1.00800000E+00  0.00000000E+00  1.60000000E+01
  1.00800000E+00  1.00800000E+00  0.00000000E+00  1.60000000E+01  1.00800000E+00
  1.00800000E+00  0.00000000E+00  1.60000000E+01  1.00800000E+00  1.00800000E+00
  0.00000000E+00  1.60000000E+01  1.00800000E+00  1.00800000E+00  0.00000000E+00
  1.60000000E+01  1.00800000E+00  1.00800000E+00  0.00000000E+00  1.60000000E+01
  1.00800000E+00  1.00800000E+00  0.00000000E+00  1.60000000E+01  1.00800000E+00
  1.00800000E+00  0.00000000E+00  1.60000000E+01  1.00800000E+00  1.00800000E+00
  0.00000000E+00  1.60000000E+01  1.00800000E+00  1.00800000E+00  0.00000000E+00
  1.60000000E+01  1.00800000E+00  1.00800000E+00  0.00000000E+00  1.60000000E+01
  1.00800000E+00  1.00800000E+00  0.00000000E+00  1.60000000E+01  1.00800000E+00
  1.00800000E+00  0.00000000E+00  1.60000000E+01  1.00800000E+00  1.00800000E+00
  0.00000000E+00  1.60000000E+01  1.00800000E+00  1.00800000E+00  0.00000000E+00
  1.60000000E+01  1.00800000E+00  1.00800000E+00  0.00000000E+00  1.60000000E+01
  1.00800000E+00  1.00800000E+00  0.00000000E+00  1.60000000E+01  1.00800000E+00
  1.00800000E+00  0.00000000E+00  1.60000000E+01  1.00800000E+00  1.00800000E+00
  0.00000000E+00  1.60000000E+01  1.00800000E+00  1.00800000E+00  0.00000000E+00
  1.60000000E+01  1.00800000E+00  1.00800000E+00  0.00000000E+00  1.60000000E+01
  1.00800000E+00  1.00800000E+00  0.00000000E+00  1.60000000E+01  1.00800000E+00
  1.00800000E+00  0.00000000E+00  1.60000000E+01  1.00800000E+00  1.00800000E+00
  0.00000000E+00  1.60000000E+01  1.00800000E+00  1.00800000E+00  0.00000000E+00
  1.60000000E+01  1.00800000E+00  1.00800000E+00  0.00000000E+00  1.60000000E+01
  1.00800000E+00  1.00800000E+00  0.00000000E+00  1.60000000E+01  1.00800000E+00
  1.00800000E+00  0.00000000E+00  1.60000000E+01  1.00800000E+00  1.00800000E+00
  0.00000000E+00  1.60000000E+01  1.00800000E+00  1.00800000E+00  0.00000000E+00
  1.60000000E+01  1.00800000E+00  1.00800000E+00  0.00000000E+00  1.60000000E+01
  1.00800000E+00  1.00800000E+00  0.00000000E+00  1.60000000E+01  1.00800000E+00
  1.00800000E+00  0.00000000E+00  1.60000000E+01  1.00800000E+00  1.00800000E+00
  0.00000000E+00  1.60000000E+01  1.00800000E+00  1.00800000E+00  0.00000000E+00
  1.60000000E+01  1.00800000E+00  1.00800000E+00  0.00000000E+00  1.60000000E+01
  1.00800000E+00  1.00800000E+00  0.00000000E+00  1.60000000E+01  1.00800000E+00
  1.00800000E+00  0.00000000E+00  1.60000000E+01  1.00800000E+00  1.00800000E+00
  0.00000000E+00  1.60000000E+01  1.00800000E+00  1.00800000E+00  0.00000000E+00
  1.60000000E+01  1.00800000E+00  1.00800000E+00  0.00000000E+00  1.60000000E+01
  1.00800000E+00  1.00800000E+00  0.00000000E+00  1.60000000E+01  1.00800000E+00
  1.00800000E+00  0.00000000E+00  1.60000000E+01  1.00800000E+00  1.00800000E+00
  0.00000000E+00  1.60000000E+01  1.00800000E+00  1.00800000E+00  0.00000000E+00
  1.60000000E+01  1.00800000E+00  1.00800000E+00  0.00000000E+00  1.60000000E+01
  1.00800000E+00  1.00800000E+00  0.00000000E+00  1.60000000E+01  1.00800000E+00
  1.00800000E+00  0.00000000E+00  1.60000000E+01  1.00800000E+00  1.00800000E+00
  0.00000000E+00  1.60000000E+01  1.00800000E+00  1.00800000E+00  0.00000000E+00
  1.60000000E+01  1.00800000E+00  1.00800000E+00  0.00000000E+00  1.60000000E+01
  1.00800000E+00  1.00800000E+00  0.00000000E+00  1.60000000E+01  1.00800000E+00
  1.00800000E+00  0.00000000E+00  1.60000000E+01  1.00800000E+00  1.00800000E+00
  0.00000000E+00  1.60000000E+01  1.00800000E+00  1.00800000E+00  0.00000000E+00
  1.60000000E+01  1.00800000E+00  1.00800000E+00  0.00000000E+00  1.60000000E+01
  1.00800000E+00  1.00800000E+00  0.00000000E+00  1.60000000E+01  1.00800000E+00
  1.00800000E+00  0.00000000E+00  1.60000000E+01  1.00800000E+00  1.00800000E+00
  0.00000000E+00  1.60000000E+01  1.00800000E+00  1.00800000E+00  0.00000000E+00
  1.60000000E+01  1.00800000E+00  1.00800000E+00  0.00000000E+00  1.60000000E+01
  1.00800000E+00  1.00800000E+00  0.00000000E+00  1.60000000E+01  1.00800000E+00
  1.00800000E+00  0.00000000E+00  1.60000000E+01  1.00800000E+00  1.00800000E+00
  0.00000000E+00  1.60000000E+01  1.00800000E+00  1.00800000E+00  0.00000000E+00
  1.60000000E+01  1.00800000E+00  1.00800000E+00  0.00000000E+00  1.60000000E+01
  1.00800000E+00  1.00800000E+00  0.00000000E+00  1.60000000E+01  1.00800000E+00
  1.00800000E+00  0.00000000E+00  1.60000000E+01  1.00800000E+00  1.00800000E+00
  0.00000000E+00  1.60000000E+01  1.00800000E+00  1.00800000E+00  0.00000000E+00
  1.60000000E+01  1.00800000E+00  1.00800000E+00  0.00000000E+00  1.60000000E+01
  1.00800000E+00  1.00800000E+00  0.00000000E+00  1.60000000E+01  1.00800000E+00
  1.00800000E+00  0.00000000E+00  1.60000000E+01  1.00800000E+00  1.00800000E+00
  0.00000000E+00  1.60000000E+01  1.00800000E+00  1.00800000E+00  0.00000000E+00
  1.60000000E+01  1.00800000E+00  1.00800000E+00  0.00000000E+00  1.60000000E+01
  1.00800000E+00  1.00800000E+00  0.00000000E+00  1.60000000E+01  1.00800000E+00
  1.00800000E+00  0.00000000E+00  1.60000000E+01  1.00800000E+00  1.00800000E+00
  0.00000000E+00  1.60000000E+01  1.00800000E+00  1.00800000E+00  0.00000000E+00
  1.60000000E+01  1.00800000E+00  1.00800000E+00  0.00000000E+00  1.60000000E+01
  1.00800000E+00  1.00800000E+00  0.00000000E+00  1.60000000E+01  1.00800000E+00
  1.00800000E+00  0.00000000E+00  1.60000000E+01  1.00800000E+00  1.00800000E+00
  0.00000000E+00  1.60000000E+01  1.00800000E+00  1.00800000E+00  0.00000000E+00
  1.60000000E+01  1.00800000E+00  1.00800000E+00  0.00000000E+00  1.60000000E+01
  1.00800000E+00  1.00800000E+00  0.00000000E+00  1.60000000E+01  1.00800000E+00
  1.00800000E+00  0.00000000E+00  1.60000000E+01  1.00800000E+00  1.00800000E+00
  0.00000000E+00  1.60000000E+01  1.00800000E+00  1.00800000E+00  0.00000000E+00
  1.60000000E+01  1.00800000E+00  1.00800000E+00  0.00000000E+00  1.60000000E+01
  1.00800000E+00  1.00800000E+00  0.00000000E+00  1.60000000E+01  1.00800000E+00
  1.00800000E+00  0.00000000E+00  1.60000000E+01  1.00800000E+00  1.00800000E+00
  0.00000000E+00  1.60000000E+01  1.00800000E+00  1.00800000E+00  0.00000000E+00
  1.60000000E+01  1.00800000E+00  1.00800000E+00  0.00000000E+00  1.60000000E+01
  1.00800000E+00  1.00800000E+00  0.00000000E+00  1.60000000E+01  1.00800000E+00
  1.00800000E+00  0.00000000E+00  1.60000000E+01  1.00800000E+00  1.00800000E+00
  0.00000000E+00  1.60000000E+01  1.00800000E+00  1.00800000E+00  0.00000000E+00
  1.60000000E+01  1.00800000E+00  1.00800000E+00  0.00000000E+00  1.60000000E+01
  1.00800000E+00  1.00800000E+00  0.00000000E+00  1.60000000E+01  1.00800000E+00
  1.00800000E+00  0.00000000E+00  1.60000000E+01  1.00800000E+00  1.00800000E+00
  0.00000000E+00  1.60000000E+01  1.00800000E+00  1.00800000E+00  0.00000000E+00
  1.60000000E+01  1.00800000E+00  1.00800000E+00  0.00000000E+00  1.60000000E+01
  1.00800000E+00  1.00800000E+00  0.00000000E+00  1.60000000E+01  1.00800000E+00
  1.00800000E+00  0.00000000E+00  1.60000000E+01  1.00800000E+00  1.00800000E+00
  0.00000000E+00  1.60000000E+01  1.00800000E+00  1.00800000E+00  0.00000000E+00
  1.60000000E+01  1.00800000E+00  1.00800000E+00  0.00000000E+00  1.60000000E+01
  1.00800000E+00  1.00800000E+00  0.00000000E+00  1.60000000E+01  1.00800000E+00
  1.00800000E+00  0.00000000E+00  1.60000000E+01  1.00800000E+00  1.00800000E+00
  0.00000000E+00  1.60000000E+01  1.00800000E+00  1.00800000E+00  0.00000000E+00
  1.60000000E+01  1.00800000E+00  1.00800000E+00  0.00000000E+00  1.60000000E+01
  1.00800000E+00  1.00800000E+00  0.00000000E+00  1.60000000E+01  1.00800000E+00
  1.00800000E+00  0.00000000E+00  1.60000000E+01  1.00800000E+00  1.00800000E+00
  0.00000000E+00  1.60000000E+01  1.00800000E+00  1.00800000E+00  0.00000000E+00
  1.60000000E+01  1.00800000E+00  1.00800000E+00  0.00000000E+00  1.60000000E+01
  1.00800000E+00  1.00800000E+00  0.00000000E+00  1.60000000E+01  1.00800000E+00
  1.00800000E+00  0.00000000E+00  1.60000000E+01  1.00800000E+00  1.00800000E+00
  0.00000000E+00  1.60000000E+01  1.00800000E+00  1.00800000E+00  0.00000000E+00
  1.60000000E+01  1.00800000E+00  1.00800000E+00  0.00000000E+00  1.60000000E+01
  1.00800000E+00  1.00800000E+00  0.00000000E+00  1.60000000E+01  1.00800000E+00
  1.00800000E+00  0.00000000E+00  1.60000000E+01  1.00800000E+00  1.00800000E+00
  0.00000000E+00  1.60000000E+01  1.00800000E+00  1.00800000E+00  0.00000000E+00
  1.60000000E+01  1.00800000E+00  1.00800000E+00  0.00000000E+00  1.60000000E+01
  1.00800000E+00  1.00800000E+00  0.00000000E+00  1.60000000E+01  1.00800000E+00
  1.00800000E+00  0.00000000E+00  1.60000000E+01  1.00800000E+00  1.00800000E+00
  0.00000000E+00  1.60000000E+01  1.00800000E+00  1.00800000E+00  0.00000000E+00
  1.60000000E+01  1.00800000E+00  1.00800000E+00  0.00000000E+00  1.60000000E+01
  1.00800000E+00  1.00800000E+00  0.00000000E+00  1.60000000E+01  1.00800000E+00
  1.00800000E+00  0.00000000E+00  1.60000000E+01  1.00800000E+00  1.00800000E+00
  0.00000000E+00  1.60000000E+01  1.00800000E+00  1.00800000E+00  0.00000000E+00
  1.60000000E+01  1.00800000E+00  1.00800000E+00  0.00000000E+00  1.60000000E+01
  1.00800000E+00  1.00800000E+00  0.00000000E+00  1.60000000E+01  1.00800000E+00
  1.00800000E+00  0.00000000E+00  1.60000000E+01  1.00800000E+00  1.00800000E+00
  0.00000000E+00  1.60000000E+01  1.00800000E+00  1.00800000E+00  0.00000000E+00
  1.60000000E+01  1.00800000E+00  1.00800000E+00  0.00000000E+00  1.60000000E+01
  1.00800000E+00  1.00800000E+00  0.00000000E+00  1.60000000E+01  1.00800000E+00
  1.00800000E+00  0.00000000E+00  1.60000000E+01  1.00800000E+00  1.00800000E+00
  0.00000000E+00  1.60000000E+01  1.00800000E+00  1.00800000E+00  0.00000000E+00
  1.60000000E+01  1.00800000E+00  1.00800000E+00  0.00000000E+00  1.60000000E+01
  1.00800000E+00  1.00800000E+00  0.00000000E+00  1.60000000E+01  1.00800000E+00
  1.00800000E+00  0.00000000E+00  1.60000000E+01  1.00800000E+00  1.00800000E+00
  0.00000000E+00  1.60000000E+01  1.00800000E+00  1.00800000E+00  0.00000000E+00
  1.60000000E+01  1.00800000E+00  1.00800000E+00  0.00000000E+00  1.60000000E+01
  1.00800000E+00  1.00800000E+00  0.00000000E+00  1.60000000E+01  1.00800000E+00
  1.00800000E+00  0.00000000E+00  1.60000000E+01  1.00800000E+00  1.00800000E+00
  0.00000000E+00  1.60000000E+01  1.00800000E+00  1.00800000E+00  0.00000000E+00
  1.60000000E+01  1.00800000E+00  1.00800000E+00  0.00000000E+00  1.60000000E+01
  1.00800000E+00  1.00800000E+00  0.00000000E+00  1.60000000E+01  1.00800000E+00
  1.00800000E+00  0.00000000E+00  1.60000000E+01  1.00800000E+00  1.00800000E+00
  0.00000000E+00  1.60000000E+01  1.00800000E+00  1.00800000E+00  0.00000000E+00
  1.60000000E+01  1.00800000E+00  1.00800000E+00  0.00000000E+00  1.60000000E+01
  1.00800000E+00  1.00800000E+00  0.00000000E+00  1.60000000E+01  1.00800000E+00
  1.00800000E+00  0.00000000E+00  1.60000000E+01  1.00800000E+00  1.00800000E+00
  0.00000000E+00  1.60000000E+01  1.00800000E+00  1.00800000E+00  0.00000000E+00
  1.60000000E+01  1.00800000E+00  1.00800000E+00  0.00000000E+00  1.60000000E+01
  1.00800000E+00  1.00800000E+00  0.00000000E+00  1.60000000E+01  1.00800000E+00
  1.00800000E+00  0.00000000E+00  1.60000000E+01  1.00800000E+00  1.00800000E+00
  0.00000000E+00  1.60000000E+01  1.00800000E+00  1.00800000E+00  0.00000000E+00
  1.60000000E+01  1.00800000E+00  1.00800000E+00  0.00000000E+00  1.60000000E+01
  1.00800000E+00  1.00800000E+00  0.00000000E+00  1.60000000E+01  1.00800000E+00
  1.00800000E+00  0.00000000E+00  1.60000000E+01  1.00800000E+00  1.00800000E+00
  0.00000000E+00  1.60000000E+01  1.00800000E+00  1.00800000E+00  0.00000000E+00
  1.60000000E+01  1.00800000E+00  1.00800000E+00  0.00000000E+00  1.60000000E+01
  1.00800000E+00  1.00800000E+00  0.00000000E+00  1.60000000E+01  1.00800000E+00
  1.00800000E+00  0.00000000E+00  1.60000000E+01  1.00800000E+00  1.00800000E+00
  0.00000000E+00  1.60000000E+01  1.00800000E+00  1.00800000E+00  0.00000000E+00
  1.60000000E+01  1.00800000E+00  1.00800000E+00  0.00000000E+00  1.60000000E+01
  1.00800000E+00  1.00800000E+00  0.00000000E+00  1.60000000E+01  1.00800000E+00
  1.00800000E+00  0.00000000E+00  1.60000000E+01  1.00800000E+00  1.00800000E+00
  0.00000000E+00  1.60000000E+01  1.00800000E+00  1.00800000E+00  0.00000000E+00
  1.60000000E+01  1.00800000E+00  1.00800000E+00  0.00000000E+00  1.60000000E+01
  1.00800000E+00  1.00800000E+00  0.00000000E+00  1.60000000E+01  1.00800000E+00
  1.00800000E+00  0.00000000E+00  1.60000000E+01  1.00800000E+00  1.00800000E+00
  0.00000000E+00  1.60000000E+01  1.00800000E+00  1.00800000E+00  0.00000000E+00
  1.60000000E+01  1.00800000E+00  1.00800000E+00  0.00000000E+00  1.60000000E+01
  1.00800000E+00  1.00800000E+00  0.00000000E+00  1.60000000E+01  1.00800000E+00
  1.00800000E+00  0.00000000E+00  1.60000000E+01  1.00800000E+00  1.00800000E+00
  0.00000000E+00  1.60000000E+01  1.00800000E+00  1.00800000E+00  0.00000000E+00
  1.60000000E+01  1.00800000E+00  1.00800000E+00  0.00000000E+00  1.60000000E+01
  1.00800000E+00  1.00800000E+00  0.00000000E+00  1.60000000E+01  1.00800000E+00
  1.00800000E+00  0.00000000E+00  1.60000000E+01  1.00800000E+00  1.00800000E+00
  0.00000000E+00  1.60000000E+01  1.00800000E+00  1.00800000E+00  0.00000000E+00
  1.60000000E+01  1.00800000E+00  1.00800000E+00  0.00000000E+00  1.60000000E+01
  1.00800000E+00  1.00800000E+00  0.00000000E+00  1.60000000E+01  1.00800000E+00
  1.00800000E+00  0.00000000E+00  1.60000000E+01  1.00800000E+00  1.00800000E+00
  0.00000000E+00  1.60000000E+01  1.00800000E+00  1.00800000E+00  0.00000000E+00
  1.60000000E+01  1.00800000E+00  1.00800000E+00  0.00000000E+00  1.60000000E+01
  1.00800000E+00  1.00800000E+00  0.00000000E+00  1.60000000E+01  1.00800000E+00
  1.00800000E+00  0.00000000E+00  1.60000000E+01  1.00800000E+00  1.00800000E+00
  0.00000000E+00  1.60000000E+01  1.00800000E+00  1.00800000E+00  0.00000000E+00
  1.60000000E+01  1.00800000E+00  1.00800000E+00  0.00000000E+00  1.60000000E+01
  1.00800000E+00  1.00800000E+00  0.00000000E+00  1.60000000E+01  1.00800000E+00
  1.00800000E+00  0.00000000E+00  1.60000000E+01  1.00800000E+00  1.00800000E+00
  0.00000000E+00  1.60000000E+01  1.00800000E+00  1.00800000E+00  0.00000000E+00
  1.60000000E+01  1.00800000E+00  1.00800000E+00  0.00000000E+00  1.60000000E+01
  1.00800000E+00  1.00800000E+00  0.00000000E+00  1.60000000E+01  1.00800000E+00
  1.00800000E+00  0.00000000E+00  1.60000000E+01  1.00800000E+00  1.00800000E+00
  0.00000000E+00  1.60000000E+01  1.00800000E+00  1.00800000E+00  0.00000000E+00
  1.60000000E+01  1.00800000E+00  1.00800000E+00  0.00000000E+00  1.60000000E+01
  1.00800000E+00  1.00800000E+00  0.00000000E+00  1.60000000E+01  1.00800000E+00
  1.00800000E+00  0.00000000E+00  1.60000000E+01  1.00800000E+00  1.00800000E+00
  0.00000000E+00  1.60000000E+01  1.00800000E+00  1.00800000E+00  0.00000000E+00
  1.60000000E+01  1.00800000E+00  1.00800000E+00  0.00000000E+00  1.60000000E+01
  1.00800000E+00  1.00800000E+00  0.00000000E+00  1.60000000E+01  1.00800000E+00
  1.00800000E+00  0.00000000E+00  1.60000000E+01  1.00800000E+00  1.00800000E+00
  0.00000000E+00  1.60000000E+01  1.00800000E+00  1.00800000E+00  0.00000000E+00
  1.60000000E+01  1.00800000E+00  1.00800000E+00  0.00000000E+00  1.60000000E+01
  1.00800000E+00  1.00800000E+00  0.00000000E+00  1.60000000E+01  1.00800000E+00
  1.00800000E+00  0.00000000E+00  1.60000000E+01  1.00800000E+00  1.00800000E+00
  0.00000000E+00  1.60000000E+01  1.00800000E+00  1.00800000E+00  0.00000000E+00
  1.60000000E+01  1.00800000E+00  1.00800000E+00  0.00000000E+00  1.60000000E+01
  1.00800000E+00  1.00800000E+00  0.00000000E+00  1.60000000E+01  1.00800000E+00
  1.00800000E+00  0.00000000E+00  1.60000000E+01  1.00800000E+00  1.00800000E+00
  0.00000000E+00  1.60000000E+01  1.00800000E+00  1.00800000E+00  0.00000000E+00
  1.60000000E+01  1.00800000E+00  1.00800000E+00  0.00000000E+00  1.60000000E+01
  1.00800000E+00  1.00800000E+00  0.00000000E+00  1.60000000E+01  1.00800000E+00
  1.00800000E+00  0.00000000E+00  1.60000000E+01  1.00800000E+00  1.00800000E+00
  0.00000000E+00  1.60000000E+01  1.00800000E+00  1.00800000E+00  0.00000000E+00
  1.60000000E+01  1.00800000E+00  1.00800000E+00  0.00000000E+00  1.60000000E+01
  1.00800000E+00  1.00800000E+00  0.00000000E+00  1.60000000E+01  1.00800000E+00
  1.00800000E+00  0.00000000E+00  1.60000000E+01  1.00800000E+00  1.00800000E+00
  0.00000000E+00  1.60000000E+01  1.00800000E+00  1.00800000E+00  0.00000000E+00
  1.60000000E+01  1.00800000E+00  1.00800000E+00  0.00000000E+00  1.60000000E+01
  1.00800000E+00  1.00800000E+00  0.00000000E+00  1.60000000E+01  1.00800000E+00
  1.00800000E+00  0.00000000E+00  1.60000000E+01  1.00800000E+00  1.00800000E+00
  0.00000000E+00  1.60000000E+01  1.00800000E+00  1.00800000E+00  0.00000000E+00
  1.60000000E+01  1.00800000E+00  1.00800000E+00  0.00000000E+00  1.60000000E+01
  1.00800000E+00  1.00800000E+00  0.00000000E+00  1.60000000E+01  1.00800000E+00
  1.00800000E+00  0.00000000E+00  1.60000000E+01  1.00800000E+00  1.00800000E+00
  0.00000000E+00  1.60000000E+01  1.00800000E+00  1.00800000E+00  0.00000000E+00
  1.60000000E+01  1.00800000E+00  1.00800000E+00  0.00000000E+00  1.60000000E+01
  1.00800000E+00  1.00800000E+00  0.00000000E+00  1.60000000E+01  1.00800000E+00
  1.00800000E+00  0.00000000E+00  1.60000000E+01  1.00800000E+00  1.00800000E+00
  0.00000000E+00  1.60000000E+01  1.00800000E+00  1.00800000E+00  0.00000000E+00
  1.60000000E+01  1.00800000E+00  1.00800000E+00  0.00000000E+00  1.60000000E+01
  1.00800000E+00  1.00800000E+00  0.00000000E+00  1.60000000E+01  1.00800000E+00
  1.00800000E+00  0.00000000E+00  1.60000000E+01  1.00800000E+00  1.00800000E+00
  0.00000000E+00  1.60000000E+01  1.00800000E+00  1.00800000E+00  0.00000000E+00
  1.60000000E+01  1.00800000E+00  1.00800000E+00  0.00000000E+00  1.60000000E+01
  1.00800000E+00  1.00800000E+00  0.00000000E+00  1.60000000E+01  1.00800000E+00
  1.00800000E+00  0.00000000E+00  1.60000000E+01  1.00800000E+00  1.00800000E+00
  0.00000000E+00  1.60000000E+01  1.00800000E+00  1.00800000E+00  0.00000000E+00
  1.60000000E+01  1.00800000E+00  1.00800000E+00  0.00000000E+00  1.60000000E+01
  1.00800000E+00  1.00800000E+00  0.00000000E+00  1.60000000E+01  1.00800000E+00
  1.00800000E+00  0.00000000E+00  1.60000000E+01  1.00800000E+00  1.00800000E+00
  0.00000000E+00  1.60000000E+01  1.00800000E+00  1.00800000E+00  0.00000000E+00
  1.60000000E+01  1.00800000E+00  1.00800000E+00  0.00000000E+00  1.60000000E+01
  1.00800000E+00  1.00800000E+00  0.00000000E+00  1.60000000E+01  1.00800000E+00
  1.00800000E+00  0.00000000E+00  1.60000000E+01  1.00800000E+00  1.00800000E+00
  0.00000000E+00  1.60000000E+01  1.00800000E+00  1.00800000E+00  0.00000000E+00
  1.60000000E+01  1.00800000E+00  1.00800000E+00  0.00000000E+00  1.60000000E+01
  1.00800000E+00  1.00800000E+00  0.00000000E+00  1.60000000E+01  1.00800000E+00
  1.00800000E+00  0.00000000E+00  1.60000000E+01  1.00800000E+00  1.00800000E+00
  0.00000000E+00  1.60000000E+01  1.00800000E+00  1.00800000E+00  0.00000000E+00
  1.60000000E+01  1.00800000E+00  1.00800000E+00  0.00000000E+00  1.60000000E+01
  1.00800000E+00  1.00800000E+00  0.00000000E+00  1.60000000E+01  1.00800000E+00
  1.00800000E+00  0.00000000E+00  1.60000000E+01  1.00800000E+00  1.00800000E+00
  0.00000000E+00  1.60000000E+01  1.00800000E+00  1.00800000E+00  0.00000000E+00
  1.60000000E+01  1.00800000E+00  1.00800000E+00  0.00000000E+00  1.60000000E+01
  1.00800000E+00  1.00800000E+00  0.00000000E+00  1.60000000E+01  1.00800000E+00
  1.00800000E+00  0.00000000E+00  1.60000000E+01  1.00800000E+00  1.00800000E+00
  0.00000000E+00  1.60000000E+01  1.00800000E+00  1.00800000E+00  0.00000000E+00
  1.60000000E+01  1.00800000E+00  1.00800000E+00  0.00000000E+00  1.60000000E+01
  1.00800000E+00  1.00800000E+00  0.00000000E+00  1.60000000E+01  1.00800000E+00
  1.00800000E+00  0.00000000E+00  1.60000000E+01  1.00800000E+00  1.00800000E+00
  0.00000000E+00  1.60000000E+01  1.00800000E+00  1.00800000E+00  0.00000000E+00
  1.60000000E+01  1.00800000E+00  1.00800000E+00  0.00000000E+00  1.60000000E+01
  1.00800000E+00  1.00800000E+00  0.00000000E+00  1.60000000E+01  1.00800000E+00
  1.00800000E+00  0.00000000E+00  1.60000000E+01  1.00800000E+00  1.00800000E+00
  0.00000000E+00  1.60000000E+01  1.00800000E+00  1.00800000E+00  0.00000000E+00
  1.60000000E+01  1.00800000E+00  1.00800000E+00  0.00000000E+00  1.60000000E+01
  1.00800000E+00  1.00800000E+00  0.00000000E+00  1.60000000E+01  1.00800000E+00
  1.00800000E+00  0.00000000E+00  1.60000000E+01  1.00800000E+00  1.00800000E+00
  0.00000000E+00  1.60000000E+01  1.00800000E+00  1.00800000E+00  0.00000000E+00
  1.60000000E+01  1.00800000E+00  1.00800000E+00  0.00000000E+00  1.60000000E+01
  1.00800000E+00  1.00800000E+00  0.00000000E+00  1.60000000E+01  1.00800000E+00
  1.00800000E+00  0.00000000E+00  1.60000000E+01  1.00800000E+00  1.00800000E+00
  0.00000000E+00  1.60000000E+01  1.00800000E+00  1.00800000E+00  0.00000000E+00
  1.60000000E+01  1.00800000E+00  1.00800000E+00  0.00000000E+00  1.60000000E+01
  1.00800000E+00  1.00800000E+00  0.00000000E+00  1.60000000E+01  1.00800000E+00
  1.00800000E+00  0.00000000E+00  1.60000000E+01  1.00800000E+00  1.00800000E+00
  0.00000000E+00  1.60000000E+01  1.00800000E+00  1.00800000E+00  0.00000000E+00
  1.60000000E+01  1.00800000E+00  1.00800000E+00  0.00000000E+00  1.60000000E+01
  1.00800000E+00  1.00800000E+00  0.00000000E+00  1.60000000E+01  1.00800000E+00
  1.00800000E+00  0.00000000E+00  1.60000000E+01  1.00800000E+00  1.00800000E+00
  0.00000000E+00  1.60000000E+01  1.00800000E+00  1.00800000E+00  0.00000000E+00
  1.60000000E+01  1.00800000E+00  1.00800000E+00  0.00000000E+00  1.60000000E+01
  1.00800000E+00  1.00800000E+00  0.00000000E+00  1.60000000E+01  1.00800000E+00
  1.00800000E+00  0.00000000E+00  1.60000000E+01  1.00800000E+00  1.00800000E+00
  0.00000000E+00  1.60000000E+01  1.00800000E+00  1.00800000E+00  0.00000000E+00
  1.60000000E+01  1.00800000E+00  1.00800000E+00  0.00000000E+00  1.60000000E+01
  1.00800000E+00  1.00800000E+00  0.00000000E+00  1.60000000E+01  1.00800000E+00
  1.00800000E+00  0.00000000E+00  1.60000000E+01  1.00800000E+00  1.00800000E+00
  0.00000000E+00  1.60000000E+01  1.00800000E+00  1.00800000E+00  0.00000000E+00
  1.60000000E+01  1.00800000E+00  1.00800000E+00  0.00000000E+00  1.60000000E+01
  1.00800000E+00  1.00800000E+00  0.00000000E+00  1.60000000E+01  1.00800000E+00
  1.00800000E+00  0.00000000E+00  1.60000000E+01  1.00800000E+00  1.00800000E+00
  0.00000000E+00  1.60000000E+01  1.00800000E+00  1.00800000E+00  0.00000000E+00
  1.60000000E+01  1.00800000E+00  1.00800000E+00  0.00000000E+00  1.60000000E+01
  1.00800000E+00  1.00800000E+00  0.00000000E+00  1.60000000E+01  1.00800000E+00
  1.00800000E+00  0.00000000E+00  1.60000000E+01  1.00800000E+00  1.00800000E+00
  0.00000000E+00  1.60000000E+01  1.00800000E+00  1.00800000E+00  0.00000000E+00
  1.60000000E+01  1.00800000E+00  1.00800000E+00  0.00000000E+00  1.60000000E+01
  1.00800000E+00  1.00800000E+00  0.00000000E+00  1.60000000E+01  1.00800000E+00
  1.00800000E+00  0.00000000E+00  1.60000000E+01  1.00800000E+00  1.00800000E+00
  0.00000000E+00  1.60000000E+01  1.00800000E+00  1.00800000E+00  0.00000000E+00
  1.60000000E+01  1.00800000E+00  1.00800000E+00  0.00000000E+00  1.60000000E+01
  1.00800000E+00  1.00800000E+00  0.00000000E+00  1.60000000E+01  1.00800000E+00
  1.00800000E+00  0.00000000E+00  1.60000000E+01  1.00800000E+00  1.00800000E+00
  0.00000000E+00  1.60000000E+01  1.00800000E+00  1.00800000E+00  0.00000000E+00
  1.60000000E+01  1.00800000E+00  1.00800000E+00  0.00000000E+00  1.60000000E+01
  1.00800000E+00  1.00800000E+00  0.00000000E+00  1.60000000E+01  1.00800000E+00
  1.00800000E+00  0.00000000E+00  1.60000000E+01  1.00800000E+00  1.00800000E+00
  0.00000000E+00  1.60000000E+01  1.00800000E+00  1.00800000E+00  0.00000000E+00
  1.60000000E+01  1.00800000E+00  1.00800000E+00  0.00000000E+00  1.60000000E+01
  1.00800000E+00  1.00800000E+00  0.00000000E+00  1.60000000E+01  1.00800000E+00
  1.00800000E+00  0.00000000E+00  1.60000000E+01  1.00800000E+00  1.00800000E+00
  0.00000000E+00  1.60000000E+01  1.00800000E+00  1.00800000E+00  0.00000000E+00
  1.60000000E+01  1.00800000E+00  1.00800000E+00  0.00000000E+00  1.60000000E+01
  1.00800000E+00  1.00800000E+00  0.00000000E+00  1.60000000E+01  1.00800000E+00
  1.00800000E+00  0.00000000E+00  1.60000000E+01  1.00800000E+00  1.00800000E+00
  0.00000000E+00  1.60000000E+01  1.00800000E+00  1.00800000E+00  0.00000000E+00
  1.60000000E+01  1.00800000E+00  1.00800000E+00  0.00000000E+00  1.60000000E+01
  1.00800000E+00  1.00800000E+00  0.00000000E+00  1.60000000E+01  1.00800000E+00
  1.00800000E+00  0.00000000E+00  1.60000000E+01  1.00800000E+00  1.00800000E+00
  0.00000000E+00  1.60000000E+01  1.00800000E+00  1.00800000E+00  0.00000000E+00
  1.60000000E+01  1.00800000E+00  1.00800000E+00  0.00000000E+00  1.60000000E+01
  1.00800000E+00  1.00800000E+00  0.00000000E+00  1.60000000E+01  1.00800000E+00
  1.00800000E+00  0.00000000E+00  1.60000000E+01  1.00800000E+00  1.00800000E+00
  0.00000000E+00  1.60000000E+01  1.00800000E+00  1.00800000E+00  0.00000000E+00
  1.60000000E+01  1.00800000E+00  1.00800000E+00  0.00000000E+00  1.60000000E+01
  1.00800000E+00  1.00800000E+00  0.00000000E+00  1.60000000E+01  1.00800000E+00
  1.00800000E+00  0.00000000E+00  1.60000000E+01  1.00800000E+00  1.00800000E+00
  0.00000000E+00  1.60000000E+01  1.00800000E+00  1.00800000E+00  0.00000000E+00
  1.60000000E+01  1.00800000E+00  1.00800000E+00  0.00000000E+00  1.60000000E+01
  1.00800000E+00  1.00800000E+00  0.00000000E+00  1.60000000E+01  1.00800000E+00
  1.00800000E+00  0.00000000E+00  1.60000000E+01  1.00800000E+00  1.00800000E+00
  0.00000000E+00  1.60000000E+01  1.00800000E+00  1.00800000E+00  0.00000000E+00
  1.60000000E+01  1.00800000E+00  1.00800000E+00  0.00000000E+00  1.60000000E+01
  1.00800000E+00  1.00800000E+00  0.00000000E+00  1.60000000E+01  1.00800000E+00
  1.00800000E+00  0.00000000E+00  1.60000000E+01  1.00800000E+00  1.00800000E+00
  0.00000000E+00  1.60000000E+01  1.00800000E+00  1.00800000E+00  0.00000000E+00
  1.60000000E+01  1.00800000E+00  1.00800000E+00  0.00000000E+00  1.60000000E+01
  1.00800000E+00  1.00800000E+00  0.00000000E+00  1.60000000E+01  1.00800000E+00
  1.00800000E+00  0.00000000E+00  1.60000000E+01  1.00800000E+00  1.00800000E+00
  0.00000000E+00  1.60000000E+01  1.00800000E+00  1.00800000E+00  0.00000000E+00
  1.60000000E+01  1.00800000E+00  1.00800000E+00  0.00000000E+00  1.60000000E+01
  1.00800000E+00  1.00800000E+00  0.00000000E+00  1.60000000E+01  1.00800000E+00
  1.00800000E+00  0.00000000E+00  1.60000000E+01  1.00800000E+00  1.00800000E+00
  0.00000000E+00  1.60000000E+01  1.00800000E+00  1.00800000E+00  0.00000000E+00
  1.60000000E+01  1.00800000E+00  1.00800000E+00  0.00000000E+00  1.60000000E+01
  1.00800000E+00  1.00800000E+00  0.00000000E+00  1.60000000E+01  1.00800000E+00
  1.00800000E+00  0.00000000E+00  1.60000000E+01  1.00800000E+00  1.00800000E+00
  0.00000000E+00  1.60000000E+01  1.00800000E+00  1.00800000E+00  0.00000000E+00
  1.60000000E+01  1.00800000E+00  1.00800000E+00  0.00000000E+00  1.60000000E+01
  1.00800000E+00  1.00800000E+00  0.00000000E+00  1.60000000E+01  1.00800000E+00
  1.00800000E+00  0.00000000E+00  1.60000000E+01  1.00800000E+00  1.00800000E+00
  0.00000000E+00  1.60000000E+01  1.00800000E+00  1.00800000E+00  0.00000000E+00
  1.60000000E+01  1.00800000E+00  1.00800000E+00  0.00000000E+00  1.60000000E+01
  1.00800000E+00  1.00800000E+00  0.00000000E+00  1.60000000E+01  1.00800000E+00
  1.00800000E+00  0.00000000E+00  1.60000000E+01  1.00800000E+00  1.00800000E+00
  0.00000000E+00  1.60000000E+01  1.00800000E+00  1.00800000E+00  0.00000000E+00
  1.60000000E+01  1.00800000E+00  1.00800000E+00  0.00000000E+00  1.60000000E+01
  1.00800000E+00  1.00800000E+00  0.00000000E+00  1.60000000E+01  1.00800000E+00
  1.00800000E+00  0.00000000E+00  1.60000000E+01  1.00800000E+00  1.00800000E+00
  0.00000000E+00  1.60000000E+01  1.00800000E+00  1.00800000E+00  0.00000000E+00
  1.60000000E+01  1.00800000E+00  1.00800000E+00  0.00000000E+00  1.60000000E+01
  1.00800000E+00  1.00800000E+00  0.00000000E+00  1.60000000E+01  1.00800000E+00
  1.00800000E+00  0.00000000E+00  1.60000000E+01  1.00800000E+00  1.00800000E+00
  0.00000000E+00  1.60000000E+01  1.00800000E+00  1.00800000E+00  0.00000000E+00
  1.60000000E+01  1.00800000E+00  1.00800000E+00  0.00000000E+00  1.60000000E+01
  1.00800000E+00  1.00800000E+00  0.00000000E+00  1.60000000E+01  1.00800000E+00
  1.00800000E+00  0.00000000E+00  1.60000000E+01  1.00800000E+00  1.00800000E+00
  0.00000000E+00  1.60000000E+01  1.00800000E+00  1.00800000E+00  0.00000000E+00
  1.60000000E+01  1.00800000E+00  1.00800000E+00  0.00000000E+00  1.60000000E+01
  1.00800000E+00  1.00800000E+00  0.00000000E+00  1.60000000E+01  1.00800000E+00
  1.00800000E+00  0.00000000E+00  1.60000000E+01  1.00800000E+00  1.00800000E+00
  0.00000000E+00  1.60000000E+01  1.00800000E+00  1.00800000E+00  0.00000000E+00
  1.60000000E+01  1.00800000E+00  1.00800000E+00  0.00000000E+00  1.60000000E+01
  1.00800000E+00  1.00800000E+00  0.00000000E+00  1.60000000E+01  1.00800000E+00
  1.00800000E+00  0.00000000E+00  1.60000000E+01  1.00800000E+00  1.00800000E+00
  0.00000000E+00  1.60000000E+01  1.00800000E+00  1.00800000E+00  0.00000000E+00
  1.60000000E+01  1.00800000E+00  1.00800000E+00  0.00000000E+00  1.60000000E+01
  1.00800000E+00  1.00800000E+00  0.00000000E+00  1.60000000E+01  1.00800000E+00
  1.00800000E+00  0.00000000E+00  1.60000000E+01  1.00800000E+00  1.00800000E+00
  0.00000000E+00  1.60000000E+01  1.00800000E+00  1.00800000E+00  0.00000000E+00
  1.60000000E+01  1.00800000E+00  1.00800000E+00  0.00000000E+00  1.60000000E+01
  1.00800000E+00  1.00800000E+00  0.00000000E+00  1.60000000E+01  1.00800000E+00
  1.00800000E+00  0.00000000E+00  1.60000000E+01  1.00800000E+00  1.00800000E+00
  0.00000000E+00  1.60000000E+01  1.00800000E+00  1.00800000E+00  0.00000000E+00
  1.60000000E+01  1.00800000E+00  1.00800000E+00  0.00000000E+00  1.60000000E+01
  1.00800000E+00  1.00800000E+00  0.00000000E+00  1.60000000E+01  1.00800000E+00
  1.00800000E+00  0.00000000E+00  1.60000000E+01  1.00800000E+00  1.00800000E+00
  0.00000000E+00  1.60000000E+01  1.00800000E+00  1.00800000E+00  0.00000000E+00
  1.60000000E+01  1.00800000E+00  1.00800000E+00  0.00000000E+00  1.60000000E+01
  1.00800000E+00  1.00800000E+00  0.00000000E+00  1.60000000E+01  1.00800000E+00
  1.00800000E+00  0.00000000E+00  1.60000000E+01  1.00800000E+00  1.00800000E+00
  0.00000000E+00  1.60000000E+01  1.00800000E+00  1.00800000E+00  0.00000000E+00
  1.60000000E+01  1.00800000E+00  1.00800000E+00  0.00000000E+00  1.60000000E+01
  1.00800000E+00  1.00800000E+00  0.00000000E+00  1.60000000E+01  1.00800000E+00
  1.00800000E+00  0.00000000E+00  1.60000000E+01  1.00800000E+00  1.00800000E+00
  0.00000000E+00  1.60000000E+01  1.00800000E+00  1.00800000E+00  0.00000000E+00
  1.60000000E+01  1.00800000E+00  1.00800000E+00  0.00000000E+00  1.60000000E+01
  1.00800000E+00  1.00800000E+00  0.00000000E+00  1.60000000E+01  1.00800000E+00
  1.00800000E+00  0.00000000E+00  1.60000000E+01  1.00800000E+00  1.00800000E+00
  0.00000000E+00  1.60000000E+01  1.00800000E+00  1.00800000E+00  0.00000000E+00
  1.60000000E+01  1.00800000E+00  1.00800000E+00  0.00000000E+00  1.60000000E+01
  1.00800000E+00  1.00800000E+00  0.00000000E+00  1.60000000E+01  1.00800000E+00
  1.00800000E+00  0.00000000E+00  1.60000000E+01  1.00800000E+00  1.00800000E+00
  0.00000000E+00  1.60000000E+01  1.00800000E+00  1.00800000E+00  0.00000000E+00
  1.60000000E+01  1.00800000E+00  1.00800000E+00  0.00000000E+00  1.60000000E+01
  1.00800000E+00  1.00800000E+00  0.00000000E+00  1.60000000E+01  1.00800000E+00
  1.00800000E+00  0.00000000E+00  1.60000000E+01  1.00800000E+00  1.00800000E+00
  0.00000000E+00  1.60000000E+01  1.00800000E+00  1.00800000E+00  0.00000000E+00
  1.60000000E+01  1.00800000E+00  1.00800000E+00  0.00000000E+00  1.60000000E+01
  1.00800000E+00  1.00800000E+00  0.00000000E+00  1.60000000E+01  1.00800000E+00
  1.00800000E+00  0.00000000E+00  1.60000000E+01  1.00800000E+00  1.00800000E+00
  0.00000000E+00  1.60000000E+01  1.00800000E+00  1.00800000E+00  0.00000000E+00
  1.60000000E+01  1.00800000E+00  1.00800000E+00  0.00000000E+00  1.60000000E+01
  1.00800000E+00  1.00800000E+00  0.00000000E+00  1.60000000E+01  1.00800000E+00
  1.00800000E+00  0.00000000E+00  1.60000000E+01  1.00800000E+00  1.00800000E+00
  0.00000000E+00  1.60000000E+01  1.00800000E+00  1.00800000E+00  0.00000000E+00
  1.60000000E+01  1.00800000E+00  1.00800000E+00  0.00000000E+00  1.60000000E+01
  1.00800000E+00  1.00800000E+00  0.00000000E+00  1.60000000E+01  1.00800000E+00
  1.00800000E+00  0.00000000E+00  1.60000000E+01  1.00800000E+00  1.00800000E+00
  0.00000000E+00  1.60000000E+01  1.00800000E+00  1.00800000E+00  0.00000000E+00
  1.60000000E+01  1.00800000E+00  1.00800000E+00  0.00000000E+00  1.60000000E+01
  1.00800000E+00  1.00800000E+00  0.00000000E+00  1.60000000E+01  1.00800000E+00
  1.00800000E+00  0.00000000E+00  1.60000000E+01  1.00800000E+00  1.00800000E+00
  0.00000000E+00  1.60000000E+01  1.00800000E+00  1.00800000E+00  0.00000000E+00
  1.60000000E+01  1.00800000E+00  1.00800000E+00  0.00000000E+00  1.60000000E+01
  1.00800000E+00  1.00800000E+00  0.00000000E+00  1.60000000E+01  1.00800000E+00
  1.00800000E+00  0.00000000E+00  1.60000000E+01  1.00800000E+00  1.00800000E+00
  0.00000000E+00  1.60000000E+01  1.00800000E+00  1.00800000E+00  0.00000000E+00
  1.60000000E+01  1.00800000E+00  1.00800000E+00  0.00000000E+00  1.60000000E+01
  1.00800000E+00  1.00800000E+00  0.00000000E+00  1.60000000E+01  1.00800000E+00
  1.00800000E+00  0.00000000E+00  1.60000000E+01  1.00800000E+00  1.00800000E+00
  0.00000000E+00  1.60000000E+01  1.00800000E+00  1.00800000E+00  0.00000000E+00
  1.60000000E+01  1.00800000E+00  1.00800000E+00  0.00000000E+00  1.60000000E+01
  1.00800000E+00  1.00800000E+00  0.00000000E+00  1.60000000E+01  1.00800000E+00
  1.00800000E+00  0.00000000E+00  1.60000000E+01  1.00800000E+00  1.00800000E+00
  0.00000000E+00  1.60000000E+01  1.00800000E+00  1.00800000E+00  0.00000000E+00
  1.60000000E+01  1.00800000E+00  1.00800000E+00  0.00000000E+00  1.60000000E+01
  1.00800000E+00  1.00800000E+00  0.00000000E+00  1.60000000E+01  1.00800000E+00
  1.00800000E+00  0.00000000E+00  1.60000000E+01  1.00800000E+00  1.00800000E+00
  0.00000000E+00  1.60000000E+01  1.00800000E+00  1.00800000E+00  0.00000000E+00
  1.60000000E+01  1.00800000E+00  1.00800000E+00  0.00000000E+00  1.60000000E+01
  1.00800000E+00  1.00800000E+00  0.00000000E+00  1.60000000E+01  1.00800000E+00
  1.00800000E+00  0.00000000E+00  1.60000000E+01  1.00800000E+00  1.00800000E+00
  0.00000000E+00  1.60000000E+01  1.00800000E+00  1.00800000E+00  0.00000000E+00
  1.60000000E+01  1.00800000E+00  1.00800000E+00  0.00000000E+00  1.60000000E+01
  1.00800000E+00  1.00800000E+00  0.00000000E+00  1.60000000E+01  1.00800000E+00
  1.00800000E+00  0.00000000E+00  1.60000000E+01  1.00800000E+00  1.00800000E+00
  0.00000000E+00  1.60000000E+01  1.00800000E+00  1.00800000E+00  0.00000000E+00
  1.60000000E+01  1.00800000E+00  1.00800000E+00  0.00000000E+00  1.60000000E+01
  1.00800000E+00  1.00800000E+00  0.00000000E+00  1.60000000E+01  1.00800000E+00
  1.00800000E+00  0.00000000E+00  1.60000000E+01  1.00800000E+00  1.00800000E+00
  0.00000000E+00  1.60000000E+01  1.00800000E+00  1.00800000E+00  0.00000000E+00
  1.60000000E+01  1.00800000E+00  1.00800000E+00  0.00000000E+00  1.60000000E+01
  1.00800000E+00  1.00800000E+00  0.00000000E+00  1.60000000E+01  1.00800000E+00
  1.00800000E+00  0.00000000E+00  1.60000000E+01  1.00800000E+00  1.00800000E+00
  0.00000000E+00  1.60000000E+01  1.00800000E+00  1.00800000E+00  0.00000000E+00
  1.60000000E+01  1.00800000E+00  1.00800000E+00  0.00000000E+00  1.60000000E+01
  1.00800000E+00  1.00800000E+00  0.00000000E+00  1.60000000E+01  1.00800000E+00
  1.00800000E+00  0.00000000E+00  1.60000000E+01  1.00800000E+00  1.00800000E+00
  0.00000000E+00  1.60000000E+01  1.00800000E+00  1.00800000E+00  0.00000000E+00
  1.60000000E+01  1.00800000E+00  1.00800000E+00  0.00000000E+00  1.60000000E+01
  1.00800000E+00  1.00800000E+00  0.00000000E+00  1.60000000E+01  1.00800000E+00
  1.00800000E+00  0.00000000E+00  1.60000000E+01  1.00800000E+00  1.00800000E+00
  0.00000000E+00  1.60000000E+01  1.00800000E+00  1.00800000E+00  0.00000000E+00
  1.60000000E+01  1.00800000E+00  1.00800000E+00  0.00000000E+00  1.60000000E+01
  1.00800000E+00  1.00800000E+00  0.00000000E+00  1.60000000E+01  1.00800000E+00
  1.00800000E+00  0.00000000E+00  1.60000000E+01  1.00800000E+00  1.00800000E+00
  0.00000000E+00  1.60000000E+01  1.00800000E+00  1.00800000E+00  0.00000000E+00
  1.60000000E+01  1.00800000E+00  1.00800000E+00  0.00000000E+00  1.60000000E+01
  1.00800000E+00  1.00800000E+00  0.00000000E+00  1.60000000E+01  1.00800000E+00
  1.00800000E+00  0.00000000E+00  1.60000000E+01  1.00800000E+00  1.00800000E+00
  0.00000000E+00  1.60000000E+01  1.00800000E+00  1.00800000E+00  0.00000000E+00
  1.60000000E+01  1.00800000E+00  1.00800000E+00  0.00000000E+00  1.60000000E+01
  1.00800000E+00  1.00800000E+00  0.00000000E+00  1.60000000E+01  1.00800000E+00
  1.00800000E+00  0.00000000E+00  1.60000000E+01  1.00800000E+00  1.00800000E+00
  0.00000000E+00  1.60000000E+01  1.00800000E+00  1.00800000E+00  0.00000000E+00
  1.60000000E+01  1.00800000E+00  1.00800000E+00  0.00000000E+00  1.60000000E+01
  1.00800000E+00  1.00800000E+00  0.00000000E+00  1.60000000E+01  1.00800000E+00
  1.00800000E+00  0.00000000E+00  1.60000000E+01  1.00800000E+00  1.00800000E+00
  0.00000000E+00  1.60000000E+01  1.00800000E+00  1.00800000E+00  0.00000000E+00
  1.60000000E+01  1.00800000E+00  1.00800000E+00  0.00000000E+00  1.60000000E+01
  1.00800000E+00  1.00800000E+00  0.00000000E+00  1.60000000E+01  1.00800000E+00
  1.00800000E+00  0.00000000E+00  1.60000000E+01  1.00800000E+00  1.00800000E+00
  0.00000000E+00  1.60000000E+01  1.00800000E+00  1.00800000E+00  0.00000000E+00
  1.60000000E+01  1.00800000E+00  1.00800000E+00  0.00000000E+00  1.60000000E+01
  1.00800000E+00  1.00800000E+00  0.00000000E+00  1.60000000E+01  1.00800000E+00
  1.00800000E+00  0.00000000E+00  1.60000000E+01  1.00800000E+00  1.00800000E+00
  0.00000000E+00  1.60000000E+01  1.00800000E+00  1.00800000E+00  0.00000000E+00
  1.60000000E+01  1.00800000E+00  1.00800000E+00  0.00000000E+00  1.60000000E+01
  1.00800000E+00  1.00800000E+00  0.00000000E+00  1.60000000E+01  1.00800000E+00
  1.00800000E+00  0.00000000E+00  1.60000000E+01  1.00800000E+00  1.00800000E+00
  0.00000000E+00  1.60000000E+01  1.00800000E+00  1.00800000E+00  0.00000000E+00
  1.60000000E+01  1.00800000E+00  1.00800000E+00  0.00000000E+00  1.60000000E+01
  1.00800000E+00  1.00800000E+00  0.00000000E+00  1.60000000E+01  1.00800000E+00
  1.00800000E+00  0.00000000E+00  1.60000000E+01  1.00800000E+00  1.00800000E+00
  0.00000000E+00  1.60000000E+01  1.00800000E+00  1.00800000E+00  0.00000000E+00
  1.60000000E+01  1.00800000E+00  1.00800000E+00  0.00000000E+00  1.60000000E+01
  1.00800000E+00  1.00800000E+00  0.00000000E+00  1.60000000E+01  1.00800000E+00
  1.00800000E+00  0.00000000E+00  1.60000000E+01  1.00800000E+00  1.00800000E+00
  0.00000000E+00  1.60000000E+01  1.00800000E+00  1.00800000E+00  0.00000000E+00
  1.60000000E+01  1.00800000E+00  1.00800000E+00  0.00000000E+00  1.60000000E+01
  1.00800000E+00  1.00800000E+00  0.00000000E+00  1.60000000E+01  1.00800000E+00
  1.00800000E+00  0.00000000E+00  1.60000000E+01  1.00800000E+00  1.00800000E+00
  0.00000000E+00  1.60000000E+01  1.00800000E+00  1.00800000E+00  0.00000000E+00
  1.60000000E+01  1.00800000E+00  1.00800000E+00  0.00000000E+00  1.60000000E+01
  1.00800000E+00  1.00800000E+00  0.00000000E+00  1.60000000E+01  1.00800000E+00
  1.00800000E+00  0.00000000E+00  1.60000000E+01  1.00800000E+00  1.00800000E+00
  0.00000000E+00  1.60000000E+01  1.00800000E+00  1.00800000E+00  0.00000000E+00
  1.60000000E+01  1.00800000E+00  1.00800000E+00  0.00000000E+00  1.60000000E+01
  1.00800000E+00  1.00800000E+00  0.00000000E+00  1.60000000E+01  1.00800000E+00
  1.00800000E+00  0.00000000E+00  1.60000000E+01  1.00800000E+00  1.00800000E+00
  0.00000000E+00  1.60000000E+01  1.00800000E+00  1.00800000E+00  0.00000000E+00
  1.60000000E+01  1.00800000E+00  1.00800000E+00  0.00000000E+00  1.60000000E+01
  1.00800000E+00  1.00800000E+00  0.00000000E+00  1.60000000E+01  1.00800000E+00
  1.00800000E+00  0.00000000E+00  1.60000000E+01  1.00800000E+00  1.00800000E+00
  0.00000000E+00  1.60000000E+01  1.00800000E+00  1.00800000E+00  0.00000000E+00
  1.60000000E+01  1.00800000E+00  1.00800000E+00  0.00000000E+00  1.60000000E+01
  1.00800000E+00  1.00800000E+00  0.00000000E+00  1.60000000E+01  1.00800000E+00
  1.00800000E+00  0.00000000E+00  1.60000000E+01  1.00800000E+00  1.00800000E+00
  0.00000000E+00  1.60000000E+01  1.00800000E+00  1.00800000E+00  0.00000000E+00
  1.60000000E+01  1.00800000E+00  1.00800000E+00  0.00000000E+00  1.60000000E+01
  1.00800000E+00  1.00800000E+00  0.00000000E+00  1.60000000E+01  1.00800000E+00
  1.00800000E+00  0.00000000E+00  1.60000000E+01  1.00800000E+00  1.00800000E+00
  0.00000000E+00  1.60000000E+01  1.00800000E+00  1.00800000E+00  0.00000000E+00
  1.60000000E+01  1.00800000E+00  1.00800000E+00  0.00000000E+00  1.60000000E+01
  1.00800000E+00  1.00800000E+00  0.00000000E+00  1.60000000E+01  1.00800000E+00
  1.00800000E+00  0.00000000E+00  1.60000000E+01  1.00800000E+00  1.00800000E+00
  0.00000000E+00  1.60000000E+01  1.00800000E+00  1.00800000E+00  0.00000000E+00
  1.60000000E+01  1.00800000E+00  1.00800000E+00  0.00000000E+00  1.60000000E+01
  1.00800000E+00  1.00800000E+00  0.00000000E+00  1.60000000E+01  1.00800000E+00
  1.00800000E+00  0.00000000E+00  1.60000000E+01  1.00800000E+00  1.00800000E+00
  0.00000000E+00  1.60000000E+01  1.00800000E+00  1.00800000E+00  0.00000000E+00
  1.60000000E+01  1.00800000E+00  1.00800000E+00  0.00000000E+00  1.60000000E+01
  1.00800000E+00  1.00800000E+00  0.00000000E+00  1.60000000E+01  1.00800000E+00
  1.00800000E+00  0.00000000E+00  1.60000000E+01  1.00800000E+00  1.00800000E+00
  0.00000000E+00  1.60000000E+01  1.00800000E+00  1.00800000E+00  0.00000000E+00
  1.60000000E+01  1.00800000E+00  1.00800000E+00  0.00000000E+00  1.60000000E+01
  1.00800000E+00  1.00800000E+00  0.00000000E+00  1.60000000E+01  1.00800000E+00
  1.00800000E+00  0.00000000E+00  1.60000000E+01  1.00800000E+00  1.00800000E+00
  0.00000000E+00  1.60000000E+01  1.00800000E+00  1.00800000E+00  0.00000000E+00
  1.60000000E+01  1.00800000E+00  1.00800000E+00  0.00000000E+00  1.60000000E+01
  1.00800000E+00  1.00800000E+00  0.00000000E+00  1.60000000E+01  1.00800000E+00
  1.00800000E+00  0.00000000E+00  1.60000000E+01  1.00800000E+00  1.00800000E+00
  0.00000000E+00  1.60000000E+01  1.00800000E+00  1.00800000E+00  0.00000000E+00
  1.60000000E+01  1.00800000E+00  1.00800000E+00  0.00000000E+00  1.60000000E+01
  1.00800000E+00  1.00800000E+00  0.00000000E+00  1.60000000E+01  1.00800000E+00
  1.00800000E+00  0.00000000E+00  1.60000000E+01  1.00800000E+00  1.00800000E+00
  0.00000000E+00  1.60000000E+01  1.00800000E+00  1.00800000E+00  0.00000000E+00
  1.60000000E+01  1.00800000E+00  1.00800000E+00  0.00000000E+00  1.60000000E+01
  1.00800000E+00  1.00800000E+00  0.00000000E+00  1.60000000E+01  1.00800000E+00
  1.00800000E+00  0.00000000E+00  1.60000000E+01  1.00800000E+00  1.00800000E+00
  0.00000000E+00  1.60000000E+01  1.00800000E+00  1.00800000E+00  0.00000000E+00
  1.60000000E+01  1.00800000E+00  1.00800000E+00  0.00000000E+00  1.60000000E+01
  1.00800000E+00  1.00800000E+00  0.00000000E+00  1.60000000E+01  1.00800000E+00
  1.00800000E+00  0.00000000E+00  1.60000000E+01  1.00800000E+00  1.00800000E+00
  0.00000000E+00  1.60000000E+01  1.00800000E+00  1.00800000E+00  0.00000000E+00
  1.60000000E+01  1.00800000E+00  1.00800000E+00  0.00000000E+00  1.60000000E+01
  1.00800000E+00  1.00800000E+00  0.00000000E+00  1.60000000E+01  1.00800000E+00
  1.00800000E+00  0.00000000E+00  1.60000000E+01  1.00800000E+00  1.00800000E+00
  0.00000000E+00  1.60000000E+01  1.00800000E+00  1.00800000E+00  0.00000000E+00
  1.60000000E+01  1.00800000E+00  1.00800000E+00  0.00000000E+00  1.60000000E+01
  1.00800000E+00  1.00800000E+00  0.00000000E+00  1.60000000E+01  1.00800000E+00
  1.00800000E+00  0.00000000E+00  1.60000000E+01  1.00800000E+00  1.00800000E+00
  0.00000000E+00  1.60000000E+01  1.00800000E+00  1.00800000E+00  0.00000000E+00
  1.60000000E+01  1.00800000E+00  1.00800000E+00  0.00000000E+00  1.60000000E+01
  1.00800000E+00  1.00800000E+00  0.00000000E+00  1.60000000E+01  1.00800000E+00
  1.00800000E+00  0.00000000E+00  1.60000000E+01  1.00800000E+00  1.00800000E+00
  0.00000000E+00  1.60000000E+01  1.00800000E+00  1.00800000E+00  0.00000000E+00
  1.60000000E+01  1.00800000E+00  1.00800000E+00  0.00000000E+00  1.60000000E+01
  1.00800000E+00  1.00800000E+00  0.00000000E+00  1.60000000E+01  1.00800000E+00
  1.00800000E+00  0.00000000E+00  1.60000000E+01  1.00800000E+00  1.00800000E+00
  0.00000000E+00  1.60000000E+01  1.00800000E+00  1.00800000E+00  0.00000000E+00
  1.60000000E+01  1.00800000E+00  1.00800000E+00  0.00000000E+00  1.60000000E+01
  1.00800000E+00  1.00800000E+00  0.00000000E+00  1.60000000E+01  1.00800000E+00
  1.00800000E+00  0.00000000E+00  1.60000000E+01  1.00800000E+00  1.00800000E+00
  0.00000000E+00  1.60000000E+01  1.00800000E+00  1.00800000E+00  0.00000000E+00
  1.60000000E+01  1.00800000E+00  1.00800000E+00  0.00000000E+00  1.60000000E+01
  1.00800000E+00  1.00800000E+00  0.00000000E+00  1.60000000E+01  1.00800000E+00
  1.00800000E+00  0.00000000E+00  1.60000000E+01  1.00800000E+00  1.00800000E+00
  0.00000000E+00  1.60000000E+01  1.00800000E+00  1.00800000E+00  0.00000000E+00
  1.60000000E+01  1.00800000E+00  1.00800000E+00  0.00000000E+00  1.60000000E+01
  1.00800000E+00  1.00800000E+00  0.00000000E+00  1.60000000E+01  1.00800000E+00
  1.00800000E+00  0.00000000E+00  1.60000000E+01  1.00800000E+00  1.00800000E+00
  0.00000000E+00  1.60000000E+01  1.00800000E+00  1.00800000E+00  0.00000000E+00
  1.60000000E+01  1.00800000E+00  1.00800000E+00  0.00000000E+00  1.60000000E+01
  1.00800000E+00  1.00800000E+00  0.00000000E+00  1.60000000E+01  1.00800000E+00
  1.00800000E+00  0.00000000E+00  1.60000000E+01  1.00800000E+00  1.00800000E+00
  0.00000000E+00  1.60000000E+01  1.00800000E+00  1.00800000E+00  0.00000000E+00
  1.60000000E+01  1.00800000E+00  1.00800000E+00  0.00000000E+00  1.60000000E+01
  1.00800000E+00  1.00800000E+00  0.00000000E+00  1.60000000E+01  1.00800000E+00
  1.00800000E+00  0.00000000E+00  1.60000000E+01  1.00800000E+00  1.00800000E+00
  0.00000000E+00  1.60000000E+01  1.00800000E+00  1.00800000E+00  0.00000000E+00
  1.60000000E+01  1.00800000E+00  1.00800000E+00  0.00000000E+00  1.60000000E+01
  1.00800000E+00  1.00800000E+00  0.00000000E+00  1.60000000E+01  1.00800000E+00
  1.00800000E+00  0.00000000E+00  1.60000000E+01  1.00800000E+00  1.00800000E+00
  0.00000000E+00  1.60000000E+01  1.00800000E+00  1.00800000E+00  0.00000000E+00
  1.60000000E+01  1.00800000E+00  1.00800000E+00  0.00000000E+00  1.60000000E+01
  1.00800000E+00  1.00800000E+00  0.00000000E+00  1.60000000E+01  1.00800000E+00
  1.00800000E+00  0.00000000E+00  1.60000000E+01  1.00800000E+00  1.00800000E+00
  0.00000000E+00  1.60000000E+01  1.00800000E+00  1.00800000E+00  0.00000000E+00
  1.60000000E+01  1.00800000E+00  1.00800000E+00  0.00000000E+00  1.60000000E+01
  1.00800000E+00  1.00800000E+00  0.00000000E+00  1.60000000E+01  1.00800000E+00
  1.00800000E+00  0.00000000E+00  1.60000000E+01  1.00800000E+00  1.00800000E+00
  0.00000000E+00  1.60000000E+01  1.00800000E+00  1.00800000E+00  0.00000000E+00
  1.60000000E+01  1.00800000E+00  1.00800000E+00  0.00000000E+00  1.60000000E+01
  1.00800000E+00  1.00800000E+00  0.00000000E+00  1.60000000E+01  1.00800000E+00
  1.00800000E+00  0.00000000E+00  1.60000000E+01  1.00800000E+00  1.00800000E+00
  0.00000000E+00  1.60000000E+01  1.00800000E+00  1.00800000E+00  0.00000000E+00
  1.60000000E+01  1.00800000E+00  1.00800000E+00  0.00000000E+00  1.60000000E+01
  1.00800000E+00  1.00800000E+00  0.00000000E+00  1.60000000E+01  1.00800000E+00
  1.00800000E+00  0.00000000E+00  1.60000000E+01  1.00800000E+00  1.00800000E+00
  0.00000000E+00  1.60000000E+01  1.00800000E+00  1.00800000E+00  0.00000000E+00
  1.60000000E+01  1.00800000E+00  1.00800000E+00  0.00000000E+00  1.60000000E+01
  1.00800000E+00  1.00800000E+00  0.00000000E+00  1.60000000E+01  1.00800000E+00
  1.00800000E+00  0.00000000E+00  1.60000000E+01  1.00800000E+00  1.00800000E+00
  0.00000000E+00  1.60000000E+01  1.00800000E+00  1.00800000E+00  0.00000000E+00
  1.60000000E+01  1.00800000E+00  1.00800000E+00  0.00000000E+00  1.60000000E+01
  1.00800000E+00  1.00800000E+00  0.00000000E+00  1.60000000E+01  1.00800000E+00
  1.00800000E+00  0.00000000E+00  1.60000000E+01  1.00800000E+00  1.00800000E+00
  0.00000000E+00  1.60000000E+01  1.00800000E+00  1.00800000E+00  0.00000000E+00
  1.60000000E+01  1.00800000E+00  1.00800000E+00  0.00000000E+00  1.60000000E+01
  1.00800000E+00  1.00800000E+00  0.00000000E+00  1.60000000E+01  1.00800000E+00
  1.00800000E+00  0.00000000E+00  1.60000000E+01  1.00800000E+00  1.00800000E+00
  0.00000000E+00  1.60000000E+01  1.00800000E+00  1.00800000E+00  0.00000000E+00
  1.60000000E+01  1.00800000E+00  1.00800000E+00  0.00000000E+00  1.60000000E+01
  1.00800000E+00  1.00800000E+00  0.00000000E+00  1.60000000E+01  1.00800000E+00
  1.00800000E+00  0.00000000E+00  1.60000000E+01  1.00800000E+00  1.00800000E+00
  0.00000000E+00  1.60000000E+01  1.00800000E+00  1.00800000E+00  0.00000000E+00
  1.60000000E+01  1.00800000E+00  1.00800000E+00  0.00000000E+00  1.60000000E+01
  1.00800000E+00  1.00800000E+00  0.00000000E+00  1.60000000E+01  1.00800000E+00
  1.00800000E+00  0.00000000E+00  1.60000000E+01  1.00800000E+00  1.00800000E+00
  0.00000000E+00  1.60000000E+01  1.00800000E+00  1.00800000E+00  0.00000000E+00
  1.60000000E+01  1.00800000E+00  1.00800000E+00  0.00000000E+00  1.60000000E+01
  1.00800000E+00  1.00800000E+00  0.00000000E+00  1.60000000E+01  1.00800000E+00
  1.00800000E+00  0.00000000E+00  1.60000000E+01  1.00800000E+00  1.00800000E+00
  0.00000000E+00  1.60000000E+01  1.00800000E+00  1.00800000E+00  0.00000000E+00
  1.60000000E+01  1.00800000E+00  1.00800000E+00  0.00000000E+00  1.60000000E+01
  1.00800000E+00  1.00800000E+00  0.00000000E+00  1.60000000E+01  1.00800000E+00
  1.00800000E+00  0.00000000E+00  1.60000000E+01  1.00800000E+00  1.00800000E+00
  0.00000000E+00  1.60000000E+01  1.00800000E+00  1.00800000E+00  0.00000000E+00
  1.60000000E+01  1.00800000E+00  1.00800000E+00  0.00000000E+00  1.60000000E+01
  1.00800000E+00  1.00800000E+00  0.00000000E+00  1.60000000E+01  1.00800000E+00
  1.00800000E+00  0.00000000E+00  1.60000000E+01  1.00800000E+00  1.00800000E+00
  0.00000000E+00  1.60000000E+01  1.00800000E+00  1.00800000E+00  0.00000000E+00
  1.60000000E+01  1.00800000E+00  1.00800000E+00  0.00000000E+00  1.60000000E+01
  1.00800000E+00  1.00800000E+00  0.00000000E+00  1.60000000E+01  1.00800000E+00
  1.00800000E+00  0.00000000E+00  1.60000000E+01  1.00800000E+00  1.00800000E+00
  0.00000000E+00  1.60000000E+01  1.00800000E+00  1.00800000E+00  0.00000000E+00
  1.60000000E+01  1.00800000E+00  1.00800000E+00  0.00000000E+00  1.60000000E+01
  1.00800000E+00  1.00800000E+00  0.00000000E+00  1.60000000E+01  1.00800000E+00
  1.00800000E+00  0.00000000E+00  1.60000000E+01  1.00800000E+00  1.00800000E+00
  0.00000000E+00  1.60000000E+01  1.00800000E+00  1.00800000E+00  0.00000000E+00
  1.60000000E+01  1.00800000E+00  1.00800000E+00  0.00000000E+00  1.60000000E+01
  1.00800000E+00  1.00800000E+00  0.00000000E+00  1.60000000E+01  1.00800000E+00
  1.00800000E+00  0.00000000E+00  1.60000000E+01  1.00800000E+00  1.00800000E+00
  0.00000000E+00  1.60000000E+01  1.00800000E+00  1.00800000E+00  0.00000000E+00
  1.60000000E+01  1.00800000E+00  1.00800000E+00  0.00000000E+00  1.60000000E+01
  1.00800000E+00  1.00800000E+00  0.00000000E+00  1.60000000E+01  1.00800000E+00
  1.00800000E+00  0.00000000E+00  1.60000000E+01  1.00800000E+00  1.00800000E+00
  0.00000000E+00  1.60000000E+01  1.00800000E+00  1.00800000E+00  0.00000000E+00
  1.60000000E+01  1.00800000E+00  1.00800000E+00  0.00000000E+00  1.60000000E+01
  1.00800000E+00  1.00800000E+00  0.00000000E+00  1.60000000E+01  1.00800000E+00
  1.00800000E+00  0.00000000E+00  1.60000000E+01  1.00800000E+00  1.00800000E+00
  0.00000000E+00  1.60000000E+01  1.00800000E+00  1.00800000E+00  0.00000000E+00
  1.60000000E+01  1.00800000E+00  1.00800000E+00  0.00000000E+00  1.60000000E+01
  1.00800000E+00  1.00800000E+00  0.00000000E+00  1.60000000E+01  1.00800000E+00
  1.00800000E+00  0.00000000E+00  1.60000000E+01  1.00800000E+00  1.00800000E+00
  0.00000000E+00  1.60000000E+01  1.00800000E+00  1.00800000E+00  0.00000000E+00
  1.60000000E+01  1.00800000E+00  1.00800000E+00  0.00000000E+00  1.60000000E+01
  1.00800000E+00  1.00800000E+00  0.00000000E+00  1.60000000E+01  1.00800000E+00
  1.00800000E+00  0.00000000E+00  1.60000000E+01  1.00800000E+00  1.00800000E+00
  0.00000000E+00  1.60000000E+01  1.00800000E+00  1.00800000E+00  0.00000000E+00
  1.60000000E+01  1.00800000E+00  1.00800000E+00  0.00000000E+00  1.60000000E+01
  1.00800000E+00  1.00800000E+00  0.00000000E+00  1.60000000E+01  1.00800000E+00
  1.00800000E+00  0.00000000E+00  1.60000000E+01  1.00800000E+00  1.00800000E+00
  0.00000000E+00  1.60000000E+01  1.00800000E+00  1.00800000E+00  0.00000000E+00
  1.60000000E+01  1.00800000E+00  1.00800000E+00  0.00000000E+00  1.60000000E+01
  1.00800000E+00  1.00800000E+00  0.00000000E+00  1.60000000E+01  1.00800000E+00
  1.00800000E+00  0.00000000E+00  1.60000000E+01  1.00800000E+00  1.00800000E+00
  0.00000000E+00  1.60000000E+01  1.00800000E+00  1.00800000E+00  0.00000000E+00
  1.60000000E+01  1.00800000E+00  1.00800000E+00  0.00000000E+00  1.60000000E+01
  1.00800000E+00  1.00800000E+00  0.00000000E+00  1.60000000E+01  1.00800000E+00
  1.00800000E+00  0.00000000E+00  1.60000000E+01  1.00800000E+00  1.00800000E+00
  0.00000000E+00  1.60000000E+01  1.00800000E+00  1.00800000E+00  0.00000000E+00
  1.60000000E+01  1.00800000E+00  1.00800000E+00  0.00000000E+00  1.60000000E+01
  1.00800000E+00  1.00800000E+00  0.00000000E+00  1.60000000E+01  1.00800000E+00
  1.00800000E+00  0.00000000E+00  1.60000000E+01  1.00800000E+00  1.00800000E+00
  0.00000000E+00  1.60000000E+01  1.00800000E+00  1.00800000E+00  0.00000000E+00
  1.60000000E+01  1.00800000E+00  1.00800000E+00  0.00000000E+00  1.60000000E+01
  1.00800000E+00  1.00800000E+00  0.00000000E+00  1.60000000E+01  1.00800000E+00
  1.00800000E+00  0.00000000E+00  1.60000000E+01  1.00800000E+00  1.00800000E+00
  0.00000000E+00  1.60000000E+01  1.00800000E+00  1.00800000E+00  0.00000000E+00
  1.60000000E+01  1.00800000E+00  1.00800000E+00  0.00000000E+00  1.60000000E+01
  1.00800000E+00  1.00800000E+00  0.00000000E+00  1.60000000E+01  1.00800000E+00
  1.00800000E+00  0.00000000E+00  1.60000000E+01  1.00800000E+00  1.00800000E+00
  0.00000000E+00  1.60000000E+01  1.00800000E+00  1.00800000E+00  0.00000000E+00
  1.60000000E+01  1.00800000E+00  1.00800000E+00  0.00000000E+00  1.60000000E+01
  1.00800000E+00  1.00800000E+00  0.00000000E+00  1.60000000E+01  1.00800000E+00
  1.00800000E+00  0.00000000E+00  1.60000000E+01  1.00800000E+00  1.00800000E+00
  0.00000000E+00  1.60000000E+01  1.00800000E+00  1.00800000E+00  0.00000000E+00
  1.60000000E+01  1.00800000E+00  1.00800000E+00  0.00000000E+00  1.60000000E+01
  1.00800000E+00  1.00800000E+00  0.00000000E+00  1.60000000E+01  1.00800000E+00
  1.00800000E+00  0.00000000E+00  1.60000000E+01  1.00800000E+00  1.00800000E+00
  0.00000000E+00  1.60000000E+01  1.00800000E+00  1.00800000E+00  0.00000000E+00
  1.60000000E+01  1.00800000E+00  1.00800000E+00  0.00000000E+00  1.60000000E+01
  1.00800000E+00  1.00800000E+00  0.00000000E+00  1.60000000E+01  1.00800000E+00
  1.00800000E+00  0.00000000E+00  1.60000000E+01  1.00800000E+00  1.00800000E+00
  0.00000000E+00  1.60000000E+01  1.00800000E+00  1.00800000E+00  0.00000000E+00
  1.60000000E+01  1.00800000E+00  1.00800000E+00  0.00000000E+00  1.60000000E+01
  1.00800000E+00  1.00800000E+00  0.00000000E+00  1.60000000E+01  1.00800000E+00
  1.00800000E+00  0.00000000E+00  1.60000000E+01  1.00800000E+00  1.00800000E+00
  0.00000000E+00  1.60000000E+01  1.00800000E+00  1.00800000E+00  0.00000000E+00
  1.60000000E+01  1.00800000E+00  1.00800000E+00  0.00000000E+00  1.60000000E+01
  1.00800000E+00  1.00800000E+00  0.00000000E+00  1.60000000E+01  1.00800000E+00
  1.00800000E+00  0.00000000E+00  1.60000000E+01  1.00800000E+00  1.00800000E+00
  0.00000000E+00  1.60000000E+01  1.00800000E+00  1.00800000E+00  0.00000000E+00
  1.60000000E+01  1.00800000E+00  1.00800000E+00  0.00000000E+00  1.60000000E+01
  1.00800000E+00  1.00800000E+00  0.00000000E+00  1.60000000E+01  1.00800000E+00
  1.00800000E+00  0.00000000E+00  1.60000000E+01  1.00800000E+00  1.00800000E+00
  0.00000000E+00  1.60000000E+01  1.00800000E+00  1.00800000E+00  0.00000000E+00
  1.60000000E+01  1.00800000E+00  1.00800000E+00  0.00000000E+00  1.60000000E+01
  1.00800000E+00  1.00800000E+00  0.00000000E+00  1.60000000E+01  1.00800000E+00
  1.00800000E+00  0.00000000E+00  1.60000000E+01  1.00800000E+00  1.00800000E+00
  0.00000000E+00  1.60000000E+01  1.00800000E+00  1.00800000E+00  0.00000000E+00
  1.60000000E+01  1.00800000E+00  1.00800000E+00  0.00000000E+00  1.60000000E+01
  1.00800000E+00  1.00800000E+00  0.00000000E+00  1.60000000E+01  1.00800000E+00
  1.00800000E+00  0.00000000E+00  1.60000000E+01  1.00800000E+00  1.00800000E+00
  0.00000000E+00  1.60000000E+01  1.00800000E+00  1.00800000E+00  0.00000000E+00
  1.60000000E+01  1.00800000E+00  1.00800000E+00  0.00000000E+00  1.60000000E+01
  1.00800000E+00  1.00800000E+00  0.00000000E+00  1.60000000E+01  1.00800000E+00
  1.00800000E+00  0.00000000E+00  1.60000000E+01  1.00800000E+00  1.00800000E+00
  0.00000000E+00  1.60000000E+01  1.00800000E+00  1.00800000E+00  0.00000000E+00
  1.60000000E+01  1.00800000E+00  1.00800000E+00  0.00000000E+00  1.60000000E+01
  1.00800000E+00  1.00800000E+00  0.00000000E+00  1.60000000E+01  1.00800000E+00
  1.00800000E+00  0.00000000E+00  1.60000000E+01  1.00800000E+00  1.00800000E+00
  0.00000000E+00  1.60000000E+01  1.00800000E+00  1.00800000E+00  0.00000000E+00
  1.60000000E+01  1.00800000E+00  1.00800000E+00  0.00000000E+00  1.60000000E+01
  1.00800000E+00  1.00800000E+00  0.00000000E+00  1.60000000E+01  1.00800000E+00
  1.00800000E+00  0.00000000E+00  1.60000000E+01  1.00800000E+00  1.00800000E+00
  0.00000000E+00  1.60000000E+01  1.00800000E+00  1.00800000E+00  0.00000000E+00
  1.60000000E+01  1.00800000E+00  1.00800000E+00  0.00000000E+00  1.60000000E+01
  1.00800000E+00  1.00800000E+00  0.00000000E+00  1.60000000E+01  1.00800000E+00
  1.00800000E+00  0.00000000E+00  1.60000000E+01  1.00800000E+00  1.00800000E+00
  0.00000000E+00  1.60000000E+01  1.00800000E+00  1.00800000E+00  0.00000000E+00
  1.60000000E+01  1.00800000E+00  1.00800000E+00  0.00000000E+00  1.60000000E+01
  1.00800000E+00  1.00800000E+00  0.00000000E+00  1.60000000E+01  1.00800000E+00
  1.00800000E+00  0.00000000E+00  1.60000000E+01  1.00800000E+00  1.00800000E+00
  0.00000000E+00  1.60000000E+01  1.00800000E+00  1.00800000E+00  0.00000000E+00
  1.60000000E+01  1.00800000E+00  1.00800000E+00  0.00000000E+00  1.60000000E+01
  1.00800000E+00  1.00800000E+00  0.00000000E+00  1.60000000E+01  1.00800000E+00
  1.00800000E+00  0.00000000E+00  1.60000000E+01  1.00800000E+00  1.00800000E+00
  0.00000000E+00  1.60000000E+01  1.00800000E+00  1.00800000E+00  0.00000000E+00
  1.60000000E+01  1.00800000E+00  1.00800000E+00  0.00000000E+00  1.60000000E+01
  1.00800000E+00  1.00800000E+00  0.00000000E+00  1.60000000E+01  1.00800000E+00
  1.00800000E+00  0.00000000E+00  1.60000000E+01  1.00800000E+00  1.00800000E+00
  0.00000000E+00  1.60000000E+01  1.00800000E+00  1.00800000E+00  0.00000000E+00
  1.60000000E+01  1.00800000E+00  1.00800000E+00  0.00000000E+00  1.60000000E+01
  1.00800000E+00  1.00800000E+00  0.00000000E+00  1.60000000E+01  1.00800000E+00
  1.00800000E+00  0.00000000E+00  1.60000000E+01  1.00800000E+00  1.00800000E+00
  0.00000000E+00  1.60000000E+01  1.00800000E+00  1.00800000E+00  0.00000000E+00
  1.60000000E+01  1.00800000E+00  1.00800000E+00  0.00000000E+00  1.60000000E+01
  1.00800000E+00  1.00800000E+00  0.00000000E+00  1.60000000E+01  1.00800000E+00
  1.00800000E+00  0.00000000E+00  1.60000000E+01  1.00800000E+00  1.00800000E+00
  0.00000000E+00  1.60000000E+01  1.00800000E+00  1.00800000E+00  0.00000000E+00
  1.60000000E+01  1.00800000E+00  1.00800000E+00  0.00000000E+00  1.60000000E+01
  1.00800000E+00  1.00800000E+00  0.00000000E+00  1.60000000E+01  1.00800000E+00
  1.00800000E+00  0.00000000E+00  1.60000000E+01  1.00800000E+00  1.00800000E+00
  0.00000000E+00  1.60000000E+01  1.00800000E+00  1.00800000E+00  0.00000000E+00
  1.60000000E+01  1.00800000E+00  1.00800000E+00  0.00000000E+00  1.60000000E+01
  1.00800000E+00  1.00800000E+00  0.00000000E+00  1.60000000E+01  1.00800000E+00
  1.00800000E+00  0.00000000E+00  1.60000000E+01  1.00800000E+00  1.00800000E+00
  0.00000000E+00  1.60000000E+01  1.00800000E+00  1.00800000E+00  0.00000000E+00
  1.60000000E+01  1.00800000E+00  1.00800000E+00  0.00000000E+00  1.60000000E+01
  1.00800000E+00  1.00800000E+00  0.00000000E+00  1.60000000E+01  1.00800000E+00
  1.00800000E+00  0.00000000E+00  1.60000000E+01  1.00800000E+00  1.00800000E+00
  0.00000000E+00  1.60000000E+01  1.00800000E+00  1.00800000E+00  0.00000000E+00
  1.60000000E+01  1.00800000E+00  1.00800000E+00  0.00000000E+00  1.60000000E+01
  1.00800000E+00  1.00800000E+00  0.00000000E+00  1.60000000E+01  1.00800000E+00
  1.00800000E+00  0.00000000E+00  1.60000000E+01  1.00800000E+00  1.00800000E+00
  0.00000000E+00  1.60000000E+01  1.00800000E+00  1.00800000E+00  0.00000000E+00
  1.60000000E+01  1.00800000E+00  1.00800000E+00  0.00000000E+00  1.60000000E+01
  1.00800000E+00  1.00800000E+00  0.00000000E+00  1.60000000E+01  1.00800000E+00
  1.00800000E+00  0.00000000E+00  1.60000000E+01  1.00800000E+00  1.00800000E+00
  0.00000000E+00  1.60000000E+01  1.00800000E+00  1.00800000E+00  0.00000000E+00
  1.60000000E+01  1.00800000E+00  1.00800000E+00  0.00000000E+00  1.60000000E+01
  1.00800000E+00  1.00800000E+00  0.00000000E+00  1.60000000E+01  1.00800000E+00
  1.00800000E+00  0.00000000E+00  1.60000000E+01  1.00800000E+00  1.00800000E+00
  0.00000000E+00  1.60000000E+01  1.00800000E+00  1.00800000E+00  0.00000000E+00
  1.60000000E+01  1.00800000E+00  1.00800000E+00  0.00000000E+00  1.60000000E+01
  1.00800000E+00  1.00800000E+00  0.00000000E+00  1.60000000E+01  1.00800000E+00
  1.00800000E+00  0.00000000E+00  1.60000000E+01  1.00800000E+00  1.00800000E+00
  0.00000000E+00  1.60000000E+01  1.00800000E+00  1.00800000E+00  0.00000000E+00
  1.60000000E+01  1.00800000E+00  1.00800000E+00  0.00000000E+00  1.60000000E+01
  1.00800000E+00  1.00800000E+00  0.00000000E+00  1.60000000E+01  1.00800000E+00
  1.00800000E+00  0.00000000E+00  1.60000000E+01  1.00800000E+00  1.00800000E+00
  0.00000000E+00  1.60000000E+01  1.00800000E+00  1.00800000E+00  0.00000000E+00
  1.60000000E+01  1.00800000E+00  1.00800000E+00  0.00000000E+00  1.60000000E+01
  1.00800000E+00  1.00800000E+00  0.00000000E+00  1.60000000E+01  1.00800000E+00
  1.00800000E+00  0.00000000E+00  1.60000000E+01  1.00800000E+00  1.00800000E+00
  0.00000000E+00  1.60000000E+01  1.00800000E+00  1.00800000E+00  0.00000000E+00
  1.60000000E+01  1.00800000E+00  1.00800000E+00  0.00000000E+00  1.60000000E+01
  1.00800000E+00  1.00800000E+00  0.00000000E+00  1.60000000E+01  1.00800000E+00
  1.00800000E+00  0.00000000E+00  1.60000000E+01  1.00800000E+00  1.00800000E+00
  0.00000000E+00  1.60000000E+01  1.00800000E+00  1.00800000E+00  0.00000000E+00
  1.60000000E+01  1.00800000E+00  1.00800000E+00  0.00000000E+00  1.60000000E+01
  1.00800000E+00  1.00800000E+00  0.00000000E+00  1.60000000E+01  1.00800000E+00
  1.00800000E+00  0.00000000E+00  1.60000000E+01  1.00800000E+00  1.00800000E+00
  0.00000000E+00  1.60000000E+01  1.00800000E+00  1.00800000E+00  0.00000000E+00
  1.60000000E+01  1.00800000E+00  1.00800000E+00  0.00000000E+00  1.60000000E+01
  1.00800000E+00  1.00800000E+00  0.00000000E+00  1.60000000E+01  1.00800000E+00
  1.00800000E+00  0.00000000E+00  1.60000000E+01  1.00800000E+00  1.00800000E+00
  0.00000000E+00  1.60000000E+01  1.00800000E+00  1.00800000E+00  0.00000000E+00
  1.60000000E+01  1.00800000E+00  1.00800000E+00  0.00000000E+00  1.60000000E+01
  1.00800000E+00  1.00800000E+00  0.00000000E+00  1.60000000E+01  1.00800000E+00
  1.00800000E+00  0.00000000E+00  1.60000000E+01  1.00800000E+00  1.00800000E+00
  0.00000000E+00  1.60000000E+01  1.00800000E+00  1.00800000E+00  0.00000000E+00
  1.60000000E+01  1.00800000E+00  1.00800000E+00  0.00000000E+00  1.60000000E+01
  1.00800000E+00  1.00800000E+00  0.00000000E+00  1.60000000E+01  1.00800000E+00
  1.00800000E+00  0.00000000E+00  1.60000000E+01  1.00800000E+00  1.00800000E+00
  0.00000000E+00  1.60000000E+01  1.00800000E+00  1.00800000E+00  0.00000000E+00
  1.60000000E+01  1.00800000E+00  1.00800000E+00  0.00000000E+00  1.60000000E+01
  1.00800000E+00  1.00800000E+00  0.00000000E+00  1.60000000E+01  1.00800000E+00
  1.00800000E+00  0.00000000E+00  1.60000000E+01  1.00800000E+00  1.00800000E+00
  0.00000000E+00  1.60000000E+01  1.00800000E+00  1.00800000E+00  0.00000000E+00
  1.60000000E+01  1.00800000E+00  1.00800000E+00  0.00000000E+00  1.60000000E+01
  1.00800000E+00  1.00800000E+00  0.00000000E+00  1.60000000E+01  1.00800000E+00
  1.00800000E+00  0.00000000E+00  1.60000000E+01  1.00800000E+00  1.00800000E+00
  0.00000000E+00  1.60000000E+01  1.00800000E+00  1.00800000E+00  0.00000000E+00
  1.60000000E+01  1.00800000E+00  1.00800000E+00  0.00000000E+00  1.60000000E+01
  1.00800000E+00  1.00800000E+00  0.00000000E+00  1.60000000E+01  1.00800000E+00
  1.00800000E+00  0.00000000E+00  1.60000000E+01  1.00800000E+00  1.00800000E+00
  0.00000000E+00  1.60000000E+01  1.00800000E+00  1.00800000E+00  0.00000000E+00
  1.60000000E+01  1.00800000E+00  1.00800000E+00  0.00000000E+00  1.60000000E+01
  1.00800000E+00  1.00800000E+00  0.00000000E+00  1.60000000E+01  1.00800000E+00
  1.00800000E+00  0.00000000E+00  1.60000000E+01  1.00800000E+00  1.00800000E+00
  0.00000000E+00  1.60000000E+01  1.00800000E+00  1.00800000E+00  0.00000000E+00
  1.60000000E+01  1.00800000E+00  1.00800000E+00  0.00000000E+00  1.60000000E+01
  1.00800000E+00  1.00800000E+00  0.00000000E+00  1.60000000E+01  1.00800000E+00
  1.00800000E+00  0.00000000E+00  1.60000000E+01  1.00800000E+00  1.00800000E+00
  0.00000000E+00  1.60000000E+01  1.00800000E+00  1.00800000E+00  0.00000000E+00
  1.60000000E+01  1.00800000E+00  1.00800000E+00  0.00000000E+00  1.60000000E+01
  1.00800000E+00  1.00800000E+00  0.00000000E+00  1.60000000E+01  1.00800000E+00
  1.00800000E+00  0.00000000E+00  1.60000000E+01  1.00800000E+00  1.00800000E+00
  0.00000000E+00  1.60000000E+01  1.00800000E+00  1.00800000E+00  0.00000000E+00
  1.60000000E+01  1.00800000E+00  1.00800000E+00  0.00000000E+00  1.60000000E+01
  1.00800000E+00  1.00800000E+00  0.00000000E+00  1.60000000E+01  1.00800000E+00
  1.00800000E+00  0.00000000E+00  1.60000000E+01  1.00800000E+00  1.00800000E+00
  0.00000000E+00  1.60000000E+01  1.00800000E+00  1.00800000E+00  0.00000000E+00
  1.60000000E+01  1.00800000E+00  1.00800000E+00  0.00000000E+00  1.60000000E+01
  1.00800000E+00  1.00800000E+00  0.00000000E+00  1.60000000E+01  1.00800000E+00
  1.00800000E+00  0.00000000E+00  1.60000000E+01  1.00800000E+00  1.00800000E+00
  0.00000000E+00  1.60000000E+01  1.00800000E+00  1.00800000E+00  0.00000000E+00
  1.60000000E+01  1.00800000E+00  1.00800000E+00  0.00000000E+00  1.60000000E+01
  1.00800000E+00  1.00800000E+00  0.00000000E+00  1.60000000E+01  1.00800000E+00
  1.00800000E+00  0.00000000E+00  1.60000000E+01  1.00800000E+00  1.00800000E+00
  0.00000000E+00  1.60000000E+01  1.00800000E+00  1.00800000E+00  0.00000000E+00
  1.60000000E+01  1.00800000E+00  1.00800000E+00  0.00000000E+00  1.60000000E+01
  1.00800000E+00  1.00800000E+00  0.00000000E+00  1.60000000E+01  1.00800000E+00
  1.00800000E+00  0.00000000E+00  1.60000000E+01  1.00800000E+00  1.00800000E+00
  0.00000000E+00  1.60000000E+01  1.00800000E+00  1.00800000E+00  0.00000000E+00
  1.60000000E+01  1.00800000E+00  1.00800000E+00  0.00000000E+00  1.60000000E+01
  1.00800000E+00  1.00800000E+00  0.00000000E+00  1.60000000E+01  1.00800000E+00
  1.00800000E+00  0.00000000E+00  1.60000000E+01  1.00800000E+00  1.00800000E+00
  0.00000000E+00  1.60000000E+01  1.00800000E+00  1.00800000E+00  0.00000000E+00
  1.60000000E+01  1.00800000E+00  1.00800000E+00  0.00000000E+00  1.60000000E+01
  1.00800000E+00  1.00800000E+00  0.00000000E+00  1.60000000E+01  1.00800000E+00
  1.00800000E+00  0.00000000E+00  1.60000000E+01  1.00800000E+00  1.00800000E+00
  0.00000000E+00  1.60000000E+01  1.00800000E+00  1.00800000E+00  0.00000000E+00
  1.60000000E+01  1.00800000E+00  1.00800000E+00  0.00000000E+00  1.60000000E+01
  1.00800000E+00  1.00800000E+00  0.00000000E+00  1.60000000E+01  1.00800000E+00
  1.00800000E+00  0.00000000E+00  1.60000000E+01  1.00800000E+00  1.00800000E+00
  0.00000000E+00  1.60000000E+01  1.00800000E+00  1.00800000E+00  0.00000000E+00
  1.60000000E+01  1.00800000E+00  1.00800000E+00  0.00000000E+00  1.60000000E+01
  1.00800000E+00  1.00800000E+00  0.00000000E+00  1.60000000E+01  1.00800000E+00
  1.00800000E+00  0.00000000E+00  1.60000000E+01  1.00800000E+00  1.00800000E+00
  0.00000000E+00  1.60000000E+01  1.00800000E+00  1.00800000E+00  0.00000000E+00
  1.60000000E+01  1.00800000E+00  1.00800000E+00  0.00000000E+00  1.60000000E+01
  1.00800000E+00  1.00800000E+00  0.00000000E+00  1.60000000E+01  1.00800000E+00
  1.00800000E+00  0.00000000E+00  1.60000000E+01  1.00800000E+00  1.00800000E+00
  0.00000000E+00  1.60000000E+01  1.00800000E+00  1.00800000E+00  0.00000000E+00
  1.60000000E+01  1.00800000E+00  1.00800000E+00  0.00000000E+00  1.60000000E+01
  1.00800000E+00  1.00800000E+00  0.00000000E+00  1.60000000E+01  1.00800000E+00
  1.00800000E+00  0.00000000E+00  1.60000000E+01  1.00800000E+00  1.00800000E+00
  0.00000000E+00  1.60000000E+01  1.00800000E+00  1.00800000E+00  0.00000000E+00
  1.60000000E+01  1.00800000E+00  1.00800000E+00  0.00000000E+00  1.60000000E+01
  1.00800000E+00  1.00800000E+00  0.00000000E+00  1.60000000E+01  1.00800000E+00
  1.00800000E+00  0.00000000E+00  1.60000000E+01  1.00800000E+00  1.00800000E+00
  0.00000000E+00  1.60000000E+01  1.00800000E+00  1.00800000E+00  0.00000000E+00
  1.60000000E+01  1.00800000E+00  1.00800000E+00  0.00000000E+00  1.60000000E+01
  1.00800000E+00  1.00800000E+00  0.00000000E+00  1.60000000E+01  1.00800000E+00
  1.00800000E+00  0.00000000E+00  1.60000000E+01  1.00800000E+00  1.00800000E+00
  0.00000000E+00  1.60000000E+01  1.00800000E+00  1.00800000E+00  0.00000000E+00
  1.60000000E+01  1.00800000E+00  1.00800000E+00  0.00000000E+00  1.60000000E+01
  1.00800000E+00  1.00800000E+00  0.00000000E+00  1.60000000E+01  1.00800000E+00
  1.00800000E+00  0.00000000E+00  1.60000000E+01  1.00800000E+00  1.00800000E+00
  0.00000000E+00  1.60000000E+01  1.00800000E+00  1.00800000E+00  0.00000000E+00
  1.60000000E+01  1.00800000E+00  1.00800000E+00  0.00000000E+00  1.60000000E+01
  1.00800000E+00  1.00800000E+00  0.00000000E+00  1.60000000E+01  1.00800000E+00
  1.00800000E+00  0.00000000E+00  1.60000000E+01  1.00800000E+00  1.00800000E+00
  0.00000000E+00  1.60000000E+01  1.00800000E+00  1.00800000E+00  0.00000000E+00
  1.60000000E+01  1.00800000E+00  1.00800000E+00  0.00000000E+00  1.60000000E+01
  1.00800000E+00  1.00800000E+00  0.00000000E+00  1.60000000E+01  1.00800000E+00
  1.00800000E+00  0.00000000E+00  1.60000000E+01  1.00800000E+00  1.00800000E+00
  0.00000000E+00  1.60000000E+01  1.00800000E+00  1.00800000E+00  0.00000000E+00
  1.60000000E+01  1.00800000E+00  1.00800000E+00  0.00000000E+00  1.60000000E+01
  1.00800000E+00  1.00800000E+00  0.00000000E+00  1.60000000E+01  1.00800000E+00
  1.00800000E+00  0.00000000E+00  1.60000000E+01  1.00800000E+00  1.00800000E+00
  0.00000000E+00  1.60000000E+01  1.00800000E+00  1.00800000E+00  0.00000000E+00
  1.60000000E+01  1.00800000E+00  1.00800000E+00  0.00000000E+00  1.60000000E+01
  1.00800000E+00  1.00800000E+00  0.00000000E+00  1.60000000E+01  1.00800000E+00
  1.00800000E+00  0.00000000E+00  1.60000000E+01  1.00800000E+00  1.00800000E+00
  0.00000000E+00  1.60000000E+01  1.00800000E+00  1.00800000E+00  0.00000000E+00
  1.60000000E+01  1.00800000E+00  1.00800000E+00  0.00000000E+00  1.60000000E+01
  1.00800000E+00  1.00800000E+00  0.00000000E+00  1.60000000E+01  1.00800000E+00
  1.00800000E+00  0.00000000E+00  1.60000000E+01  1.00800000E+00  1.00800000E+00
  0.00000000E+00  1.60000000E+01  1.00800000E+00  1.00800000E+00  0.00000000E+00
  1.60000000E+01  1.00800000E+00  1.00800000E+00  0.00000000E+00  1.60000000E+01
  1.00800000E+00  1.00800000E+00  0.00000000E+00  1.60000000E+01  1.00800000E+00
  1.00800000E+00  0.00000000E+00  1.60000000E+01  1.00800000E+00  1.00800000E+00
  0.00000000E+00  1.60000000E+01  1.00800000E+00  1.00800000E+00  0.00000000E+00
  1.60000000E+01  1.00800000E+00  1.00800000E+00  0.00000000E+00  1.60000000E+01
  1.00800000E+00  1.00800000E+00  0.00000000E+00  1.60000000E+01  1.00800000E+00
  1.00800000E+00  0.00000000E+00  1.60000000E+01  1.00800000E+00  1.00800000E+00
  0.00000000E+00  1.60000000E+01  1.00800000E+00  1.00800000E+00  0.00000000E+00
  1.60000000E+01  1.00800000E+00  1.00800000E+00  0.00000000E+00  1.60000000E+01
  1.00800000E+00  1.00800000E+00  0.00000000E+00  1.60000000E+01  1.00800000E+00
  1.00800000E+00  0.00000000E+00  1.60000000E+01  1.00800000E+00  1.00800000E+00
  0.00000000E+00  1.60000000E+01  1.00800000E+00  1.00800000E+00  0.00000000E+00
  1.60000000E+01  1.00800000E+00  1.00800000E+00  0.00000000E+00  1.60000000E+01
  1.00800000E+00  1.00800000E+00  0.00000000E+00  1.60000000E+01  1.00800000E+00
  1.00800000E+00  0.00000000E+00  1.60000000E+01  1.00800000E+00  1.00800000E+00
  0.00000000E+00  1.60000000E+01  1.00800000E+00  1.00800000E+00  0.00000000E+00
  1.60000000E+01  1.00800000E+00  1.00800000E+00  0.00000000E+00  1.60000000E+01
  1.00800000E+00  1.00800000E+00  0.00000000E+00  1.60000000E+01  1.00800000E+00
  1.00800000E+00  0.00000000E+00  1.60000000E+01  1.00800000E+00  1.00800000E+00
  0.00000000E+00  1.60000000E+01  1.00800000E+00  1.00800000E+00  0.00000000E+00
  1.60000000E+01  1.00800000E+00  1.00800000E+00  0.00000000E+00  1.60000000E+01
  1.00800000E+00  1.00800000E+00  0.00000000E+00  1.60000000E+01  1.00800000E+00
  1.00800000E+00  0.00000000E+00  1.60000000E+01  1.00800000E+00  1.00800000E+00
  0.00000000E+00  1.60000000E+01  1.00800000E+00  1.00800000E+00  0.00000000E+00
  1.60000000E+01  1.00800000E+00  1.00800000E+00  0.00000000E+00  1.60000000E+01
  1.00800000E+00  1.00800000E+00  0.00000000E+00  1.60000000E+01  1.00800000E+00
  1.00800000E+00  0.00000000E+00  1.60000000E+01  1.00800000E+00  1.00800000E+00
  0.00000000E+00  1.60000000E+01  1.00800000E+00  1.00800000E+00  0.00000000E+00
  1.60000000E+01  1.00800000E+00  1.00800000E+00  0.00000000E+00  1.60000000E+01
  1.00800000E+00  1.00800000E+00  0.00000000E+00  1.60000000E+01  1.00800000E+00
  1.00800000E+00  0.00000000E+00  1.60000000E+01  1.00800000E+00  1.00800000E+00
  0.00000000E+00  1.60000000E+01  1.00800000E+00  1.00800000E+00  0.00000000E+00
  1.60000000E+01  1.00800000E+00  1.00800000E+00  0.00000000E+00  1.60000000E+01
  1.00800000E+00  1.00800000E+00  0.00000000E+00  1.60000000E+01  1.00800000E+00
  1.00800000E+00  0.00000000E+00  1.60000000E+01  1.00800000E+00  1.00800000E+00
  0.00000000E+00  1.60000000E+01  1.00800000E+00  1.00800000E+00  0.00000000E+00
  1.60000000E+01  1.00800000E+00  1.00800000E+00  0.00000000E+00  1.60000000E+01
  1.00800000E+00  1.00800000E+00  0.00000000E+00  1.60000000E+01  1.00800000E+00
  1.00800000E+00  0.00000000E+00  1.60000000E+01  1.00800000E+00  1.00800000E+00
  0.00000000E+00  1.60000000E+01  1.00800000E+00  1.00800000E+00  0.00000000E+00
  1.60000000E+01  1.00800000E+00  1.00800000E+00  0.00000000E+00  1.60000000E+01
  1.00800000E+00  1.00800000E+00  0.00000000E+00  1.60000000E+01  1.00800000E+00
  1.00800000E+00  0.00000000E+00  1.60000000E+01  1.00800000E+00  1.00800000E+00
  0.00000000E+00  1.60000000E+01  1.00800000E+00  1.00800000E+00  0.00000000E+00
  1.60000000E+01  1.00800000E+00  1.00800000E+00  0.00000000E+00  1.60000000E+01
  1.00800000E+00  1.00800000E+00  0.00000000E+00  1.60000000E+01  1.00800000E+00
  1.00800000E+00  0.00000000E+00  1.60000000E+01  1.00800000E+00  1.00800000E+00
  0.00000000E+00  1.60000000E+01  1.00800000E+00  1.00800000E+00  0.00000000E+00
  1.60000000E+01  1.00800000E+00  1.00800000E+00  0.00000000E+00  1.60000000E+01
  1.00800000E+00  1.00800000E+00  0.00000000E+00  1.60000000E+01  1.00800000E+00
  1.00800000E+00  0.00000000E+00  1.60000000E+01  1.00800000E+00  1.00800000E+00
  0.00000000E+00  1.60000000E+01  1.00800000E+00  1.00800000E+00  0.00000000E+00
  1.60000000E+01  1.00800000E+00  1.00800000E+00  0.00000000E+00  1.60000000E+01
  1.00800000E+00  1.00800000E+00  0.00000000E+00  1.60000000E+01  1.00800000E+00
  1.00800000E+00  0.00000000E+00  1.60000000E+01  1.00800000E+00  1.00800000E+00
  0.00000000E+00  1.60000000E+01  1.00800000E+00  1.00800000E+00  0.00000000E+00
  1.60000000E+01  1.00800000E+00  1.00800000E+00  0.00000000E+00  1.60000000E+01
  1.00800000E+00  1.00800000E+00  0.00000000E+00  1.60000000E+01  1.00800000E+00
  1.00800000E+00  0.00000000E+00  1.60000000E+01  1.00800000E+00  1.00800000E+00
  0.00000000E+00  1.60000000E+01  1.00800000E+00  1.00800000E+00  0.00000000E+00
  1.60000000E+01  1.00800000E+00  1.00800000E+00  0.00000000E+00  1.60000000E+01
  1.00800000E+00  1.00800000E+00  0.00000000E+00  1.60000000E+01  1.00800000E+00
  1.00800000E+00  0.00000000E+00  1.60000000E+01  1.00800000E+00  1.00800000E+00
  0.00000000E+00  1.60000000E+01  1.00800000E+00  1.00800000E+00  0.00000000E+00
  1.60000000E+01  1.00800000E+00  1.00800000E+00  0.00000000E+00  1.60000000E+01
  1.00800000E+00  1.00800000E+00  0.00000000E+00  1.60000000E+01  1.00800000E+00
  1.00800000E+00  0.00000000E+00  1.60000000E+01  1.00800000E+00  1.00800000E+00
  0.00000000E+00  1.60000000E+01  1.00800000E+00  1.00800000E+00  0.00000000E+00
  1.60000000E+01  1.00800000E+00  1.00800000E+00  0.00000000E+00  1.60000000E+01
  1.00800000E+00  1.00800000E+00  0.00000000E+00  1.60000000E+01  1.00800000E+00
  1.00800000E+00  0.00000000E+00  1.60000000E+01  1.00800000E+00  1.00800000E+00
  0.00000000E+00  1.60000000E+01  1.00800000E+00  1.00800000E+00  0.00000000E+00
  1.60000000E+01  1.00800000E+00  1.00800000E+00  0.00000000E+00  1.60000000E+01
  1.00800000E+00  1.00800000E+00  0.00000000E+00  1.60000000E+01  1.00800000E+00
  1.00800000E+00  0.00000000E+00  1.60000000E+01  1.00800000E+00  1.00800000E+00
  0.00000000E+00  1.60000000E+01  1.00800000E+00  1.00800000E+00  0.00000000E+00
  1.60000000E+01  1.00800000E+00  1.00800000E+00  0.00000000E+00  1.60000000E+01
  1.00800000E+00  1.00800000E+00  0.00000000E+00  1.60000000E+01  1.00800000E+00
  1.00800000E+00  0.00000000E+00  1.60000000E+01  1.00800000E+00  1.00800000E+00
  0.00000000E+00  1.60000000E+01  1.00800000E+00  1.00800000E+00  0.00000000E+00
  1.60000000E+01  1.00800000E+00  1.00800000E+00  0.00000000E+00  1.60000000E+01
  1.00800000E+00  1.00800000E+00  0.00000000E+00  1.60000000E+01  1.00800000E+00
  1.00800000E+00  0.00000000E+00  1.60000000E+01  1.00800000E+00  1.00800000E+00
  0.00000000E+00  1.60000000E+01  1.00800000E+00  1.00800000E+00  0.00000000E+00
  1.60000000E+01  1.00800000E+00  1.00800000E+00  0.00000000E+00  1.60000000E+01
  1.00800000E+00  1.00800000E+00  0.00000000E+00  1.60000000E+01  1.00800000E+00
  1.00800000E+00  0.00000000E+00  1.60000000E+01  1.00800000E+00  1.00800000E+00
  0.00000000E+00  1.60000000E+01  1.00800000E+00  1.00800000E+00  0.00000000E+00
  1.60000000E+01  1.00800000E+00  1.00800000E+00  0.00000000E+00  1.60000000E+01
  1.00800000E+00  1.00800000E+00  0.00000000E+00  1.60000000E+01  1.00800000E+00
  1.00800000E+00  0.00000000E+00  1.60000000E+01  1.00800000E+00  1.00800000E+00
  0.00000000E+00  1.60000000E+01  1.00800000E+00  1.00800000E+00  0.00000000E+00
  1.60000000E+01  1.00800000E+00  1.00800000E+00  0.00000000E+00  1.60000000E+01
  1.00800000E+00  1.00800000E+00  0.00000000E+00  1.60000000E+01  1.00800000E+00
  1.00800000E+00  0.00000000E+00  1.60000000E+01  1.00800000E+00  1.00800000E+00
  0.00000000E+00  1.60000000E+01  1.00800000E+00  1.00800000E+00  0.00000000E+00
  1.60000000E+01  1.00800000E+00  1.00800000E+00  0.00000000E+00  1.60000000E+01
  1.00800000E+00  1.00800000E+00  0.00000000E+00  1.60000000E+01  1.00800000E+00
  1.00800000E+00  0.00000000E+00  1.60000000E+01  1.00800000E+00  1.00800000E+00
  0.00000000E+00  1.60000000E+01  1.00800000E+00  1.00800000E+00  0.00000000E+00
  1.60000000E+01  1.00800000E+00  1.00800000E+00  0.00000000E+00  1.60000000E+01
  1.00800000E+00  1.00800000E+00  0.00000000E+00  1.60000000E+01  1.00800000E+00
  1.00800000E+00  0.00000000E+00  1.60000000E+01  1.00800000E+00  1.00800000E+00
  0.00000000E+00  1.60000000E+01  1.00800000E+00  1.00800000E+00  0.00000000E+00
  1.60000000E+01  1.00800000E+00  1.00800000E+00  0.00000000E+00  1.60000000E+01
  1.00800000E+00  1.00800000E+00  0.00000000E+00  1.60000000E+01  1.00800000E+00
  1.00800000E+00  0.00000000E+00  1.60000000E+01  1.00800000E+00  1.00800000E+00
  0.00000000E+00  1.60000000E+01  1.00800000E+00  1.00800000E+00  0.00000000E+00
  1.60000000E+01  1.00800000E+00  1.00800000E+00  0.00000000E+00  1.60000000E+01
  1.00800000E+00  1.00800000E+00  0.00000000E+00  1.60000000E+01  1.00800000E+00
  1.00800000E+00  0.00000000E+00  1.60000000E+01  1.00800000E+00  1.00800000E+00
  0.00000000E+00  1.60000000E+01  1.00800000E+00  1.00800000E+00  0.00000000E+00
  1.60000000E+01  1.00800000E+00  1.00800000E+00  0.00000000E+00  1.60000000E+01
  1.00800000E+00  1.00800000E+00  0.00000000E+00  1.60000000E+01  1.00800000E+00
  1.00800000E+00  0.00000000E+00  1.60000000E+01  1.00800000E+00  1.00800000E+00
  0.00000000E+00  1.60000000E+01  1.00800000E+00  1.00800000E+00  0.00000000E+00
  1.60000000E+01  1.00800000E+00  1.00800000E+00  0.00000000E+00  1.60000000E+01
  1.00800000E+00  1.00800000E+00  0.00000000E+00  1.60000000E+01  1.00800000E+00
  1.00800000E+00  0.00000000E+00  1.60000000E+01  1.00800000E+00  1.00800000E+00
  0.00000000E+00  1.60000000E+01  1.00800000E+00  1.00800000E+00  0.00000000E+00
  1.60000000E+01  1.00800000E+00  1.00800000E+00  0.00000000E+00  1.60000000E+01
  1.00800000E+00  1.00800000E+00  0.00000000E+00  1.60000000E+01  1.00800000E+00
  1.00800000E+00  0.00000000E+00  1.60000000E+01  1.00800000E+00  1.00800000E+00
  0.00000000E+00  1.60000000E+01  1.00800000E+00  1.00800000E+00  0.00000000E+00
  1.60000000E+01  1.00800000E+00  1.00800000E+00  0.00000000E+00  1.60000000E+01
  1.00800000E+00  1.00800000E+00  0.00000000E+00  1.60000000E+01  1.00800000E+00
  1.00800000E+00  0.00000000E+00  1.60000000E+01  1.00800000E+00  1.00800000E+00
  0.00000000E+00  1.60000000E+01  1.00800000E+00  1.00800000E+00  0.00000000E+00
  1.60000000E+01  1.00800000E+00  1.00800000E+00  0.00000000E+00  1.60000000E+01
  1.00800000E+00  1.00800000E+00  0.00000000E+00  1.60000000E+01  1.00800000E+00
  1.00800000E+00  0.00000000E+00  1.60000000E+01  1.00800000E+00  1.00800000E+00
  0.00000000E+00  1.60000000E+01  1.00800000E+00  1.00800000E+00  0.00000000E+00
  1.60000000E+01  1.00800000E+00  1.00800000E+00  0.00000000E+00  1.60000000E+01
  1.00800000E+00  1.00800000E+00  0.00000000E+00  1.60000000E+01  1.00800000E+00
  1.00800000E+00  0.00000000E+00  1.60000000E+01  1.00800000E+00  1.00800000E+00
  0.00000000E+00  1.60000000E+01  1.00800000E+00  1.00800000E+00  0.00000000E+00
  1.60000000E+01  1.00800000E+00  1.00800000E+00  0.00000000E+00  1.60000000E+01
  1.00800000E+00  1.00800000E+00  0.00000000E+00  1.60000000E+01  1.00800000E+00
  1.00800000E+00  0.00000000E+00  1.60000000E+01  1.00800000E+00  1.00800000E+00
  0.00000000E+00  1.60000000E+01  1.00800000E+00  1.00800000E+00  0.00000000E+00
  1.60000000E+01  1.00800000E+00  1.00800000E+00  0.00000000E+00  1.60000000E+01
  1.00800000E+00  1.00800000E+00  0.00000000E+00  1.60000000E+01  1.00800000E+00
  1.00800000E+00  0.00000000E+00  1.60000000E+01  1.00800000E+00  1.00800000E+00
  0.00000000E+00  1.60000000E+01  1.00800000E+00  1.00800000E+00  0.00000000E+00
  1.60000000E+01  1.00800000E+00  1.00800000E+00  0.00000000E+00  1.60000000E+01
  1.00800000E+00  1.00800000E+00  0.00000000E+00  1.60000000E+01  1.00800000E+00
  1.00800000E+00  0.00000000E+00  1.60000000E+01  1.00800000E+00  1.00800000E+00
  0.00000000E+00  1.60000000E+01  1.00800000E+00  1.00800000E+00  0.00000000E+00
  1.60000000E+01  1.00800000E+00  1.00800000E+00  0.00000000E+00  1.60000000E+01
  1.00800000E+00  1.00800000E+00  0.00000000E+00  1.60000000E+01  1.00800000E+00
  1.00800000E+00  0.00000000E+00  1.60000000E+01  1.00800000E+00  1.00800000E+00
  0.00000000E+00  1.60000000E+01  1.00800000E+00  1.00800000E+00  0.00000000E+00
  1.60000000E+01  1.00800000E+00  1.00800000E+00  0.00000000E+00  1.60000000E+01
  1.00800000E+00  1.00800000E+00  0.00000000E+00  1.60000000E+01  1.00800000E+00
  1.00800000E+00  0.00000000E+00  1.60000000E+01  1.00800000E+00  1.00800000E+00
  0.00000000E+00  1.60000000E+01  1.00800000E+00  1.00800000E+00  0.00000000E+00
  1.60000000E+01  1.00800000E+00  1.00800000E+00  0.00000000E+00  1.60000000E+01
  1.00800000E+00  1.00800000E+00  0.00000000E+00  1.60000000E+01  1.00800000E+00
  1.00800000E+00  0.00000000E+00  1.60000000E+01  1.00800000E+00  1.00800000E+00
  0.00000000E+00  1.60000000E+01  1.00800000E+00  1.00800000E+00  0.00000000E+00
  1.60000000E+01  1.00800000E+00  1.00800000E+00  0.00000000E+00  1.60000000E+01
  1.00800000E+00  1.00800000E+00  0.00000000E+00  1.60000000E+01  1.00800000E+00
  1.00800000E+00  0.00000000E+00  1.60000000E+01  1.00800000E+00  1.00800000E+00
  0.00000000E+00  1.60000000E+01  1.00800000E+00  1.00800000E+00  0.00000000E+00
  1.60000000E+01  1.00800000E+00  1.00800000E+00  0.00000000E+00  1.60000000E+01
  1.00800000E+00  1.00800000E+00  0.00000000E+00  1.60000000E+01  1.00800000E+00
  1.00800000E+00  0.00000000E+00  1.60000000E+01  1.00800000E+00  1.00800000E+00
  0.00000000E+00  1.60000000E+01  1.00800000E+00  1.00800000E+00  0.00000000E+00
  1.60000000E+01  1.00800000E+00  1.00800000E+00  0.00000000E+00  1.60000000E+01
  1.00800000E+00  1.00800000E+00  0.00000000E+00  1.60000000E+01  1.00800000E+00
  1.00800000E+00  0.00000000E+00  1.60000000E+01  1.00800000E+00  1.00800000E+00
  0.00000000E+00  1.60000000E+01  1.00800000E+00  1.00800000E+00  0.00000000E+00
  1.60000000E+01  1.00800000E+00  1.00800000E+00  0.00000000E+00  1.60000000E+01
  1.00800000E+00  1.00800000E+00  0.00000000E+00  1.60000000E+01  1.00800000E+00
  1.00800000E+00  0.00000000E+00  1.60000000E+01  1.00800000E+00  1.00800000E+00
  0.00000000E+00  1.60000000E+01  1.00800000E+00  1.00800000E+00  0.00000000E+00
  1.60000000E+01  1.00800000E+00  1.00800000E+00  0.00000000E+00  1.60000000E+01
  1.00800000E+00  1.00800000E+00  0.00000000E+00  1.60000000E+01  1.00800000E+00
  1.00800000E+00  0.00000000E+00  1.60000000E+01  1.00800000E+00  1.00800000E+00
  0.00000000E+00  1.60000000E+01  1.00800000E+00  1.00800000E+00  0.00000000E+00
  1.60000000E+01  1.00800000E+00  1.00800000E+00  0.00000000E+00  1.60000000E+01
  1.00800000E+00  1.00800000E+00  0.00000000E+00  1.60000000E+01  1.00800000E+00
  1.00800000E+00  0.00000000E+00  1.60000000E+01  1.00800000E+00  1.00800000E+00
  0.00000000E+00  1.60000000E+01  1.00800000E+00  1.00800000E+00  0.00000000E+00
  1.60000000E+01  1.00800000E+00  1.00800000E+00  0.00000000E+00  1.60000000E+01
  1.00800000E+00  1.00800000E+00  0.00000000E+00  1.60000000E+01  1.00800000E+00
  1.00800000E+00  0.00000000E+00  1.60000000E+01  1.00800000E+00  1.00800000E+00
  0.00000000E+00  1.60000000E+01  1.00800000E+00  1.00800000E+00  0.00000000E+00
  1.60000000E+01  1.00800000E+00  1.00800000E+00  0.00000000E+00  1.60000000E+01
  1.00800000E+00  1.00800000E+00  0.00000000E+00  1.60000000E+01  1.00800000E+00
  1.00800000E+00  0.00000000E+00  1.60000000E+01  1.00800000E+00  1.00800000E+00
  0.00000000E+00  1.60000000E+01  1.00800000E+00  1.00800000E+00  0.00000000E+00
  1.60000000E+01  1.00800000E+00  1.00800000E+00  0.00000000E+00  1.60000000E+01
  1.00800000E+00  1.00800000E+00  0.00000000E+00  1.60000000E+01  1.00800000E+00
  1.00800000E+00  0.00000000E+00  1.60000000E+01  1.00800000E+00  1.00800000E+00
  0.00000000E+00  1.60000000E+01  1.00800000E+00  1.00800000E+00  0.00000000E+00
  1.60000000E+01  1.00800000E+00  1.00800000E+00  0.00000000E+00  1.60000000E+01
  1.00800000E+00  1.00800000E+00  0.00000000E+00  1.60000000E+01  1.00800000E+00
  1.00800000E+00  0.00000000E+00  1.60000000E+01  1.00800000E+00  1.00800000E+00
  0.00000000E+00  1.60000000E+01  1.00800000E+00  1.00800000E+00  0.00000000E+00
  1.60000000E+01  1.00800000E+00  1.00800000E+00  0.00000000E+00  1.60000000E+01
  1.00800000E+00  1.00800000E+00  0.00000000E+00  1.60000000E+01  1.00800000E+00
  1.00800000E+00  0.00000000E+00  1.60000000E+01  1.00800000E+00  1.00800000E+00
  0.00000000E+00  1.60000000E+01  1.00800000E+00  1.00800000E+00  0.00000000E+00
  1.60000000E+01  1.00800000E+00  1.00800000E+00  0.00000000E+00  1.60000000E+01
  1.00800000E+00  1.00800000E+00  0.00000000E+00  1.60000000E+01  1.00800000E+00
  1.00800000E+00  0.00000000E+00  1.60000000E+01  1.00800000E+00  1.00800000E+00
  0.00000000E+00  1.60000000E+01  1.00800000E+00  1.00800000E+00  0.00000000E+00
  1.60000000E+01  1.00800000E+00  1.00800000E+00  0.00000000E+00  1.60000000E+01
  1.00800000E+00  1.00800000E+00  0.00000000E+00  1.60000000E+01  1.00800000E+00
  1.00800000E+00  0.00000000E+00  1.60000000E+01  1.00800000E+00  1.00800000E+00
  0.00000000E+00  1.60000000E+01  1.00800000E+00  1.00800000E+00  0.00000000E+00
  1.60000000E+01  1.00800000E+00  1.00800000E+00  0.00000000E+00  1.60000000E+01
  1.00800000E+00  1.00800000E+00  0.00000000E+00  1.60000000E+01  1.00800000E+00
  1.00800000E+00  0.00000000E+00  1.60000000E+01  1.00800000E+00  1.00800000E+00
  0.00000000E+00  1.60000000E+01  1.00800000E+00  1.00800000E+00  0.00000000E+00
  1.60000000E+01  1.00800000E+00  1.00800000E+00  0.00000000E+00  1.60000000E+01
  1.00800000E+00  1.00800000E+00  0.00000000E+00  1.60000000E+01  1.00800000E+00
  1.00800000E+00  0.00000000E+00  1.60000000E+01  1.00800000E+00  1.00800000E+00
  0.00000000E+00  1.60000000E+01  1.00800000E+00  1.00800000E+00  0.00000000E+00
  1.60000000E+01  1.00800000E+00  1.00800000E+00  0.00000000E+00  1.60000000E+01
  1.00800000E+00  1.00800000E+00  0.00000000E+00  1.60000000E+01  1.00800000E+00
  1.00800000E+00  0.00000000E+00  1.60000000E+01  1.00800000E+00  1.00800000E+00
  0.00000000E+00  1.60000000E+01  1.00800000E+00  1.00800000E+00  0.00000000E+00
  1.60000000E+01  1.00800000E+00  1.00800000E+00  0.00000000E+00  1.60000000E+01
  1.00800000E+00  1.00800000E+00  0.00000000E+00  1.60000000E+01  1.00800000E+00
  1.00800000E+00  0.00000000E+00  1.60000000E+01  1.00800000E+00  1.00800000E+00
  0.00000000E+00  1.60000000E+01  1.00800000E+00  1.00800000E+00  0.00000000E+00
  1.60000000E+01  1.00800000E+00  1.00800000E+00  0.00000000E+00  1.60000000E+01
  1.00800000E+00  1.00800000E+00  0.00000000E+00  1.60000000E+01  1.00800000E+00
  1.00800000E+00  0.00000000E+00  1.60000000E+01  1.00800000E+00  1.00800000E+00
  0.00000000E+00  1.60000000E+01  1.00800000E+00  1.00800000E+00  0.00000000E+00
  1.60000000E+01  1.00800000E+00  1.00800000E+00  0.00000000E+00  1.60000000E+01
  1.00800000E+00  1.00800000E+00  0.00000000E+00  1.60000000E+01  1.00800000E+00
  1.00800000E+00  0.00000000E+00  1.60000000E+01  1.00800000E+00  1.00800000E+00
  0.00000000E+00  1.60000000E+01  1.00800000E+00  1.00800000E+00  0.00000000E+00
  1.60000000E+01  1.00800000E+00  1.00800000E+00  0.00000000E+00  1.60000000E+01
  1.00800000E+00  1.00800000E+00  0.00000000E+00  1.60000000E+01  1.00800000E+00
  1.00800000E+00  0.00000000E+00  1.60000000E+01  1.00800000E+00  1.00800000E+00
  0.00000000E+00  1.60000000E+01  1.00800000E+00  1.00800000E+00  0.00000000E+00
  1.60000000E+01  1.00800000E+00  1.00800000E+00  0.00000000E+00  1.60000000E+01
  1.00800000E+00  1.00800000E+00  0.00000000E+00  1.60000000E+01  1.00800000E+00
  1.00800000E+00  0.00000000E+00  1.60000000E+01  1.00800000E+00  1.00800000E+00
  0.00000000E+00  1.60000000E+01  1.00800000E+00  1.00800000E+00  0.00000000E+00
  1.60000000E+01  1.00800000E+00  1.00800000E+00  0.00000000E+00  1.60000000E+01
  1.00800000E+00  1.00800000E+00  0.00000000E+00  1.60000000E+01  1.00800000E+00
  1.00800000E+00  0.00000000E+00  1.60000000E+01  1.00800000E+00  1.00800000E+00
  0.00000000E+00  1.60000000E+01  1.00800000E+00  1.00800000E+00  0.00000000E+00
  1.60000000E+01  1.00800000E+00  1.00800000E+00  0.00000000E+00  1.60000000E+01
  1.00800000E+00  1.00800000E+00  0.00000000E+00  1.60000000E+01  1.00800000E+00
  1.00800000E+00  0.00000000E+00  1.60000000E+01  1.00800000E+00  1.00800000E+00
  0.00000000E+00  1.60000000E+01  1.00800000E+00  1.00800000E+00  0.00000000E+00
  1.60000000E+01  1.00800000E+00  1.00800000E+00  0.00000000E+00  1.60000000E+01
  1.00800000E+00  1.00800000E+00  0.00000000E+00  1.60000000E+01  1.00800000E+00
  1.00800000E+00  0.00000000E+00  1.60000000E+01  1.00800000E+00  1.00800000E+00
  0.00000000E+00  1.60000000E+01  1.00800000E+00  1.00800000E+00  0.00000000E+00
  1.60000000E+01  1.00800000E+00  1.00800000E+00  0.00000000E+00  1.60000000E+01
  1.00800000E+00  1.00800000E+00  0.00000000E+00  1.60000000E+01  1.00800000E+00
  1.00800000E+00  0.00000000E+00  1.60000000E+01  1.00800000E+00  1.00800000E+00
  0.00000000E+00  1.60000000E+01  1.00800000E+00  1.00800000E+00  0.00000000E+00
  1.60000000E+01  1.00800000E+00  1.00800000E+00  0.00000000E+00  1.60000000E+01
  1.00800000E+00  1.00800000E+00  0.00000000E+00  1.60000000E+01  1.00800000E+00
  1.00800000E+00  0.00000000E+00  1.60000000E+01  1.00800000E+00  1.00800000E+00
  0.00000000E+00  1.60000000E+01  1.00800000E+00  1.00800000E+00  0.00000000E+00
  1.60000000E+01  1.00800000E+00  1.00800000E+00  0.00000000E+00  1.60000000E+01
  1.00800000E+00  1.00800000E+00  0.00000000E+00  1.60000000E+01  1.00800000E+00
  1.00800000E+00  0.00000000E+00  1.60000000E+01  1.00800000E+00  1.00800000E+00
  0.00000000E+00  1.60000000E+01  1.00800000E+00  1.00800000E+00  0.00000000E+00
  1.60000000E+01  1.00800000E+00  1.00800000E+00  0.00000000E+00  1.60000000E+01
  1.00800000E+00  1.00800000E+00  0.00000000E+00  1.60000000E+01  1.00800000E+00
  1.00800000E+00  0.00000000E+00  1.60000000E+01  1.00800000E+00  1.00800000E+00
  0.00000000E+00  1.60000000E+01  1.00800000E+00  1.00800000E+00  0.00000000E+00
  1.60000000E+01  1.00800000E+00  1.00800000E+00  0.00000000E+00  1.60000000E+01
  1.00800000E+00  1.00800000E+00  0.00000000E+00  1.60000000E+01  1.00800000E+00
  1.00800000E+00  0.00000000E+00  1.60000000E+01  1.00800000E+00  1.00800000E+00
  0.00000000E+00  1.60000000E+01  1.00800000E+00  1.00800000E+00  0.00000000E+00
  1.60000000E+01  1.00800000E+00  1.00800000E+00  0.00000000E+00  1.60000000E+01
  1.00800000E+00  1.00800000E+00  0.00000000E+00  1.60000000E+01  1.00800000E+00
  1.00800000E+00  0.00000000E+00  1.60000000E+01  1.00800000E+00  1.00800000E+00
  0.00000000E+00  1.60000000E+01  1.00800000E+00  1.00800000E+00  0.00000000E+00
  1.60000000E+01  1.00800000E+00  1.00800000E+00  0.00000000E+00  1.60000000E+01
  1.00800000E+00  1.00800000E+00  0.00000000E+00  1.60000000E+01  1.00800000E+00
  1.00800000E+00  0.00000000E+00  1.60000000E+01  1.00800000E+00  1.00800000E+00
  0.00000000E+00  1.60000000E+01  1.00800000E+00  1.00800000E+00  0.00000000E+00
  1.60000000E+01  1.00800000E+00  1.00800000E+00  0.00000000E+00  1.60000000E+01
  1.00800000E+00  1.00800000E+00  0.00000000E+00  1.60000000E+01  1.00800000E+00
  1.00800000E+00  0.00000000E+00  1.60000000E+01  1.00800000E+00  1.00800000E+00
  0.00000000E+00  1.60000000E+01  1.00800000E+00  1.00800000E+00  0.00000000E+00
  1.60000000E+01  1.00800000E+00  1.00800000E+00  0.00000000E+00  1.60000000E+01
  1.00800000E+00  1.00800000E+00  0.00000000E+00  1.60000000E+01  1.00800000E+00
  1.00800000E+00  0.00000000E+00  1.60000000E+01  1.00800000E+00  1.00800000E+00
  0.00000000E+00  1.60000000E+01  1.00800000E+00  1.00800000E+00  0.00000000E+00
  1.60000000E+01  1.00800000E+00  1.00800000E+00  0.00000000E+00  1.60000000E+01
  1.00800000E+00  1.00800000E+00  0.00000000E+00  1.60000000E+01  1.00800000E+00
  1.00800000E+00  0.00000000E+00  1.60000000E+01  1.00800000E+00  1.00800000E+00
  0.00000000E+00  1.60000000E+01  1.00800000E+00  1.00800000E+00  0.00000000E+00
  1.60000000E+01  1.00800000E+00  1.00800000E+00  0.00000000E+00  1.60000000E+01
  1.00800000E+00  1.00800000E+00  0.00000000E+00  1.60000000E+01  1.00800000E+00
  1.00800000E+00  0.00000000E+00  1.60000000E+01  1.00800000E+00  1.00800000E+00
  0.00000000E+00  1.60000000E+01  1.00800000E+00  1.00800000E+00  0.00000000E+00
  1.60000000E+01  1.00800000E+00  1.00800000E+00  0.00000000E+00  1.60000000E+01
  1.00800000E+00  1.00800000E+00  0.00000000E+00  1.60000000E+01  1.00800000E+00
  1.00800000E+00  0.00000000E+00  1.60000000E+01  1.00800000E+00  1.00800000E+00
  0.00000000E+00  1.60000000E+01  1.00800000E+00  1.00800000E+00  0.00000000E+00
  1.60000000E+01  1.00800000E+00  1.00800000E+00  0.00000000E+00  1.60000000E+01
  1.00800000E+00  1.00800000E+00  0.00000000E+00  1.60000000E+01  1.00800000E+00
  1.00800000E+00  0.00000000E+00  1.60000000E+01  1.00800000E+00  1.00800000E+00
  0.00000000E+00  1.60000000E+01  1.00800000E+00  1.00800000E+00  0.00000000E+00
  1.60000000E+01  1.00800000E+00  1.00800000E+00  0.00000000E+00  1.60000000E+01
  1.00800000E+00  1.00800000E+00  0.00000000E+00  1.60000000E+01  1.00800000E+00
  1.00800000E+00  0.00000000E+00  1.60000000E+01  1.00800000E+00  1.00800000E+00
  0.00000000E+00  1.60000000E+01  1.00800000E+00  1.00800000E+00  0.00000000E+00
  1.60000000E+01  1.00800000E+00  1.00800000E+00  0.00000000E+00  1.60000000E+01
  1.00800000E+00  1.00800000E+00  0.00000000E+00  1.60000000E+01  1.00800000E+00
  1.00800000E+00  0.00000000E+00  1.60000000E+01  1.00800000E+00  1.00800000E+00
  0.00000000E+00  1.60000000E+01  1.00800000E+00  1.00800000E+00  0.00000000E+00
  1.60000000E+01  1.00800000E+00  1.00800000E+00  0.00000000E+00  1.60000000E+01
  1.00800000E+00  1.00800000E+00  0.00000000E+00  1.60000000E+01  1.00800000E+00
  1.00800000E+00  0.00000000E+00  1.60000000E+01  1.00800000E+00  1.00800000E+00
  0.00000000E+00  1.60000000E+01  1.00800000E+00  1.00800000E+00  0.00000000E+00
  1.60000000E+01  1.00800000E+00  1.00800000E+00  0.00000000E+00  1.60000000E+01
  1.00800000E+00  1.00800000E+00  0.00000000E+00  1.60000000E+01  1.00800000E+00
  1.00800000E+00  0.00000000E+00  1.60000000E+01  1.00800000E+00  1.00800000E+00
  0.00000000E+00  1.60000000E+01  1.00800000E+00  1.00800000E+00  0.00000000E+00
  1.60000000E+01  1.00800000E+00  1.00800000E+00  0.00000000E+00  1.60000000E+01
  1.00800000E+00  1.00800000E+00  0.00000000E+00  1.60000000E+01  1.00800000E+00
  1.00800000E+00  0.00000000E+00  1.60000000E+01  1.00800000E+00  1.00800000E+00
  0.00000000E+00  1.60000000E+01  1.00800000E+00  1.00800000E+00  0.00000000E+00
  1.60000000E+01  1.00800000E+00  1.00800000E+00  0.00000000E+00  1.60000000E+01
  1.00800000E+00  1.00800000E+00  0.00000000E+00  1.60000000E+01  1.00800000E+00
  1.00800000E+00  0.00000000E+00  1.60000000E+01  1.00800000E+00  1.00800000E+00
  0.00000000E+00  1.60000000E+01  1.00800000E+00  1.00800000E+00  0.00000000E+00
  1.60000000E+01  1.00800000E+00  1.00800000E+00  0.00000000E+00  1.60000000E+01
  1.00800000E+00  1.00800000E+00  0.00000000E+00  1.60000000E+01  1.00800000E+00
  1.00800000E+00  0.00000000E+00  1.60000000E+01  1.00800000E+00  1.00800000E+00
  0.00000000E+00  1.60000000E+01  1.00800000E+00  1.00800000E+00  0.00000000E+00
  1.60000000E+01  1.00800000E+00  1.00800000E+00  0.00000000E+00  1.60000000E+01
  1.00800000E+00  1.00800000E+00  0.00000000E+00  1.60000000E+01  1.00800000E+00
  1.00800000E+00  0.00000000E+00  1.60000000E+01  1.00800000E+00  1.00800000E+00
  0.00000000E+00  1.60000000E+01  1.00800000E+00  1.00800000E+00  0.00000000E+00
  1.60000000E+01  1.00800000E+00  1.00800000E+00  0.00000000E+00  1.60000000E+01
  1.00800000E+00  1.00800000E+00  0.00000000E+00  1.60000000E+01  1.00800000E+00
  1.00800000E+00  0.00000000E+00  1.60000000E+01  1.00800000E+00  1.00800000E+00
  0.00000000E+00  1.60000000E+01  1.00800000E+00  1.00800000E+00  0.00000000E+00
  1.60000000E+01  1.00800000E+00  1.00800000E+00  0.00000000E+00  1.60000000E+01
  1.00800000E+00  1.00800000E+00  0.00000000E+00  1.60000000E+01  1.00800000E+00
  1.00800000E+00  0.00000000E+00  1.60000000E+01  1.00800000E+00  1.00800000E+00
  0.00000000E+00  1.60000000E+01  1.00800000E+00  1.00800000E+00  0.00000000E+00
  1.60000000E+01  1.00800000E+00  1.00800000E+00  0.00000000E+00  1.60000000E+01
  1.00800000E+00  1.00800000E+00  0.00000000E+00  1.60000000E+01  1.00800000E+00
  1.00800000E+00  0.00000000E+00  1.60000000E+01  1.00800000E+00  1.00800000E+00
  0.00000000E+00  1.60000000E+01  1.00800000E+00  1.00800000E+00  0.00000000E+00
  1.60000000E+01  1.00800000E+00  1.00800000E+00  0.00000000E+00  1.60000000E+01
  1.00800000E+00  1.00800000E+00  0.00000000E+00  1.60000000E+01  1.00800000E+00
  1.00800000E+00  0.00000000E+00  1.60000000E+01  1.00800000E+00  1.00800000E+00
  0.00000000E+00  1.60000000E+01  1.00800000E+00  1.00800000E+00  0.00000000E+00
  1.60000000E+01  1.00800000E+00  1.00800000E+00  0.00000000E+00  1.60000000E+01
  1.00800000E+00  1.00800000E+00  0.00000000E+00  1.60000000E+01  1.00800000E+00
  1.00800000E+00  0.00000000E+00  1.60000000E+01  1.00800000E+00  1.00800000E+00
  0.00000000E+00  1.60000000E+01  1.00800000E+00  1.00800000E+00  0.00000000E+00
  1.60000000E+01  1.00800000E+00  1.00800000E+00  0.00000000E+00  1.60000000E+01
  1.00800000E+00  1.00800000E+00  0.00000000E+00  1.60000000E+01  1.00800000E+00
  1.00800000E+00  0.00000000E+00  1.60000000E+01  1.00800000E+00  1.00800000E+00
  0.00000000E+00  1.60000000E+01  1.00800000E+00  1.00800000E+00  0.00000000E+00
  1.60000000E+01  1.00800000E+00  1.00800000E+00  0.00000000E+00  1.60000000E+01
  1.00800000E+00  1.00800000E+00  0.00000000E+00  1.60000000E+01  1.00800000E+00
  1.00800000E+00  0.00000000E+00  1.60000000E+01  1.00800000E+00  1.00800000E+00
  0.00000000E+00  1.60000000E+01  1.00800000E+00  1.00800000E+00  0.00000000E+00
  1.60000000E+01  1.00800000E+00  1.00800000E+00  0.00000000E+00  1.60000000E+01
  1.00800000E+00  1.00800000E+00  0.00000000E+00  1.60000000E+01  1.00800000E+00
  1.00800000E+00  0.00000000E+00  1.60000000E+01  1.00800000E+00  1.00800000E+00
  0.00000000E+00  1.60000000E+01  1.00800000E+00  1.00800000E+00  0.00000000E+00
  1.60000000E+01  1.00800000E+00  1.00800000E+00  0.00000000E+00  1.60000000E+01
  1.00800000E+00  1.00800000E+00  0.00000000E+00  1.60000000E+01  1.00800000E+00
  1.00800000E+00  0.00000000E+00  1.60000000E+01  1.00800000E+00  1.00800000E+00
  0.00000000E+00  1.60000000E+01  1.00800000E+00  1.00800000E+00  0.00000000E+00
  1.60000000E+01  1.00800000E+00  1.00800000E+00  0.00000000E+00  1.60000000E+01
  1.00800000E+00  1.00800000E+00  0.00000000E+00  1.60000000E+01  1.00800000E+00
  1.00800000E+00  0.00000000E+00  1.60000000E+01  1.00800000E+00  1.00800000E+00
  0.00000000E+00  1.60000000E+01  1.00800000E+00  1.00800000E+00  0.00000000E+00
  1.60000000E+01  1.00800000E+00  1.00800000E+00  0.00000000E+00  1.60000000E+01
  1.00800000E+00  1.00800000E+00  0.00000000E+00  1.60000000E+01  1.00800000E+00
  1.00800000E+00  0.00000000E+00  1.60000000E+01  1.00800000E+00  1.00800000E+00
  0.00000000E+00  1.60000000E+01  1.00800000E+00  1.00800000E+00  0.00000000E+00
  1.60000000E+01  1.00800000E+00  1.00800000E+00  0.00000000E+00  1.60000000E+01
  1.00800000E+00  1.00800000E+00  0.00000000E+00  1.60000000E+01  1.00800000E+00
  1.00800000E+00  0.00000000E+00  1.60000000E+01  1.00800000E+00  1.00800000E+00
  0.00000000E+00  1.60000000E+01  1.00800000E+00  1.00800000E+00  0.00000000E+00
  1.60000000E+01  1.00800000E+00  1.00800000E+00  0.00000000E+00  1.60000000E+01
  1.00800000E+00  1.00800000E+00  0.00000000E+00  1.60000000E+01  1.00800000E+00
  1.00800000E+00  0.00000000E+00  1.60000000E+01  1.00800000E+00  1.00800000E+00
  0.00000000E+00  1.60000000E+01  1.00800000E+00  1.00800000E+00  0.00000000E+00
  1.60000000E+01  1.00800000E+00  1.00800000E+00  0.00000000E+00  1.60000000E+01
  1.00800000E+00  1.00800000E+00  0.00000000E+00  1.60000000E+01  1.00800000E+00
  1.00800000E+00  0.00000000E+00  1.60000000E+01  1.00800000E+00  1.00800000E+00
  0.00000000E+00  1.60000000E+01  1.00800000E+00  1.00800000E+00  0.00000000E+00
  1.60000000E+01  1.00800000E+00  1.00800000E+00  0.00000000E+00  1.60000000E+01
  1.00800000E+00  1.00800000E+00  0.00000000E+00  1.60000000E+01  1.00800000E+00
  1.00800000E+00  0.00000000E+00  1.60000000E+01  1.00800000E+00  1.00800000E+00
  0.00000000E+00  1.60000000E+01  1.00800000E+00  1.00800000E+00  0.00000000E+00
  1.60000000E+01  1.00800000E+00  1.00800000E+00  0.00000000E+00  1.60000000E+01
  1.00800000E+00  1.00800000E+00  0.00000000E+00  1.60000000E+01  1.00800000E+00
  1.00800000E+00  0.00000000E+00  1.60000000E+01  1.00800000E+00  1.00800000E+00
  0.00000000E+00  1.60000000E+01  1.00800000E+00  1.00800000E+00  0.00000000E+00
  1.60000000E+01  1.00800000E+00  1.00800000E+00  0.00000000E+00  1.60000000E+01
  1.00800000E+00  1.00800000E+00  0.00000000E+00  1.60000000E+01  1.00800000E+00
  1.00800000E+00  0.00000000E+00  1.60000000E+01  1.00800000E+00  1.00800000E+00
  0.00000000E+00  1.60000000E+01  1.00800000E+00  1.00800000E+00  0.00000000E+00
  1.60000000E+01  1.00800000E+00  1.00800000E+00  0.00000000E+00  1.60000000E+01
  1.00800000E+00  1.00800000E+00  0.00000000E+00  1.60000000E+01  1.00800000E+00
  1.00800000E+00  0.00000000E+00  1.60000000E+01  1.00800000E+00  1.00800000E+00
  0.00000000E+00  1.60000000E+01  1.00800000E+00  1.00800000E+00  0.00000000E+00
  1.60000000E+01  1.00800000E+00  1.00800000E+00  0.00000000E+00  1.60000000E+01
  1.00800000E+00  1.00800000E+00  0.00000000E+00  1.60000000E+01  1.00800000E+00
  1.00800000E+00  0.00000000E+00  1.60000000E+01  1.00800000E+00  1.00800000E+00
  0.00000000E+00  1.60000000E+01  1.00800000E+00  1.00800000E+00  0.00000000E+00
  1.60000000E+01  1.00800000E+00  1.00800000E+00  0.00000000E+00  1.60000000E+01
  1.00800000E+00  1.00800000E+00  0.00000000E+00  1.60000000E+01  1.00800000E+00
  1.00800000E+00  0.00000000E+00  1.60000000E+01  1.00800000E+00  1.00800000E+00
  0.00000000E+00  1.60000000E+01  1.00800000E+00  1.00800000E+00  0.00000000E+00
  1.60000000E+01  1.00800000E+00  1.00800000E+00  0.00000000E+00  1.60000000E+01
  1.00800000E+00  1.00800000E+00  0.00000000E+00  1.60000000E+01  1.00800000E+00
  1.00800000E+00  0.00000000E+00  1.60000000E+01  1.00800000E+00  1.00800000E+00
  0.00000000E+00  1.60000000E+01  1.00800000E+00  1.00800000E+00  0.00000000E+00
  1.60000000E+01  1.00800000E+00  1.00800000E+00  0.00000000E+00  1.60000000E+01
  1.00800000E+00  1.00800000E+00  0.00000000E+00  1.60000000E+01  1.00800000E+00
  1.00800000E+00  0.00000000E+00  1.60000000E+01  1.00800000E+00  1.00800000E+00
  0.00000000E+00  1.60000000E+01  1.00800000E+00  1.00800000E+00  0.00000000E+00
  1.60000000E+01  1.00800000E+00  1.00800000E+00  0.00000000E+00  1.60000000E+01
  1.00800000E+00  1.00800000E+00  0.00000000E+00  1.60000000E+01  1.00800000E+00
  1.00800000E+00  0.00000000E+00  1.60000000E+01  1.00800000E+00  1.00800000E+00
  0.00000000E+00  1.60000000E+01  1.00800000E+00  1.00800000E+00  0.00000000E+00
  1.60000000E+01  1.00800000E+00  1.00800000E+00  0.00000000E+00  1.60000000E+01
  1.00800000E+00  1.00800000E+00  0.00000000E+00  1.60000000E+01  1.00800000E+00
  1.00800000E+00  0.00000000E+00  1.60000000E+01  1.00800000E+00  1.00800000E+00
  0.00000000E+00  1.60000000E+01  1.00800000E+00  1.00800000E+00  0.00000000E+00
  1.60000000E+01  1.00800000E+00  1.00800000E+00  0.00000000E+00  1.60000000E+01
  1.00800000E+00  1.00800000E+00  0.00000000E+00  1.60000000E+01  1.00800000E+00
  1.00800000E+00  0.00000000E+00  1.60000000E+01  1.00800000E+00  1.00800000E+00
  0.00000000E+00  1.60000000E+01  1.00800000E+00  1.00800000E+00  0.00000000E+00
  1.60000000E+01  1.00800000E+00  1.00800000E+00  0.00000000E+00  1.60000000E+01
  1.00800000E+00  1.00800000E+00  0.00000000E+00  1.60000000E+01  1.00800000E+00
  1.00800000E+00  0.00000000E+00  1.60000000E+01  1.00800000E+00  1.00800000E+00
  0.00000000E+00  1.60000000E+01  1.00800000E+00  1.00800000E+00  0.00000000E+00
  1.60000000E+01  1.00800000E+00  1.00800000E+00  0.00000000E+00  1.60000000E+01
  1.00800000E+00  1.00800000E+00  0.00000000E+00  1.60000000E+01  1.00800000E+00
  1.00800000E+00  0.00000000E+00  1.60000000E+01  1.00800000E+00  1.00800000E+00
  0.00000000E+00  1.60000000E+01  1.00800000E+00  1.00800000E+00  0.00000000E+00
  1.60000000E+01  1.00800000E+00  1.00800000E+00  0.00000000E+00  1.60000000E+01
  1.00800000E+00  1.00800000E+00  0.00000000E+00  1.60000000E+01  1.00800000E+00
  1.00800000E+00  0.00000000E+00  1.60000000E+01  1.00800000E+00  1.00800000E+00
  0.00000000E+00  1.60000000E+01  1.00800000E+00  1.00800000E+00  0.00000000E+00
  1.60000000E+01  1.00800000E+00  1.00800000E+00  0.00000000E+00  1.60000000E+01
  1.00800000E+00  1.00800000E+00  0.00000000E+00  1.60000000E+01  1.00800000E+00
  1.00800000E+00  0.00000000E+00  1.60000000E+01  1.00800000E+00  1.00800000E+00
  0.00000000E+00  1.60000000E+01  1.00800000E+00  1.00800000E+00  0.00000000E+00
  1.60000000E+01  1.00800000E+00  1.00800000E+00  0.00000000E+00  1.60000000E+01
  1.00800000E+00  1.00800000E+00  0.00000000E+00  1.60000000E+01  1.00800000E+00
  1.00800000E+00  0.00000000E+00  1.60000000E+01  1.00800000E+00  1.00800000E+00
  0.00000000E+00  1.60000000E+01  1.00800000E+00  1.00800000E+00  0.00000000E+00
  1.60000000E+01  1.00800000E+00  1.00800000E+00  0.00000000E+00  1.60000000E+01
  1.00800000E+00  1.00800000E+00  0.00000000E+00  1.60000000E+01  1.00800000E+00
  1.00800000E+00  0.00000000E+00  1.60000000E+01  1.00800000E+00  1.00800000E+00
  0.00000000E+00  1.60000000E+01  1.00800000E+00  1.00800000E+00  0.00000000E+00
  1.60000000E+01  1.00800000E+00  1.00800000E+00  0.00000000E+00  1.60000000E+01
  1.00800000E+00  1.00800000E+00  0.00000000E+00  1.60000000E+01  1.00800000E+00
  1.00800000E+00  0.00000000E+00  1.60000000E+01  1.00800000E+00  1.00800000E+00
  0.00000000E+00  1.60000000E+01  1.00800000E+00  1.00800000E+00  0.00000000E+00
  1.60000000E+01  1.00800000E+00  1.00800000E+00  0.00000000E+00  1.60000000E+01
  1.00800000E+00  1.00800000E+00  0.00000000E+00  1.60000000E+01  1.00800000E+00
  1.00800000E+00  0.00000000E+00  1.60000000E+01  1.00800000E+00  1.00800000E+00
  0.00000000E+00  1.60000000E+01  1.00800000E+00  1.00800000E+00  0.00000000E+00
  1.60000000E+01  1.00800000E+00  1.00800000E+00  0.00000000E+00  1.60000000E+01
  1.00800000E+00  1.00800000E+00  0.00000000E+00  1.60000000E+01  1.00800000E+00
  1.00800000E+00  0.00000000E+00  1.60000000E+01  1.00800000E+00  1.00800000E+00
  0.00000000E+00  1.60000000E+01  1.00800000E+00  1.00800000E+00  0.00000000E+00
  1.60000000E+01  1.00800000E+00  1.00800000E+00  0.00000000E+00  1.60000000E+01
  1.00800000E+00  1.00800000E+00  0.00000000E+00  1.60000000E+01  1.00800000E+00
  1.00800000E+00  0.00000000E+00  1.60000000E+01  1.00800000E+00  1.00800000E+00
  0.00000000E+00  1.60000000E+01  1.00800000E+00  1.00800000E+00  0.00000000E+00
  1.60000000E+01  1.00800000E+00  1.00800000E+00  0.00000000E+00  1.60000000E+01
  1.00800000E+00  1.00800000E+00  0.00000000E+00  1.60000000E+01  1.00800000E+00
  1.00800000E+00  0.00000000E+00  1.60000000E+01  1.00800000E+00  1.00800000E+00
  0.00000000E+00  1.60000000E+01  1.00800000E+00  1.00800000E+00  0.00000000E+00
  1.60000000E+01  1.00800000E+00  1.00800000E+00  0.00000000E+00  1.60000000E+01
  1.00800000E+00  1.00800000E+00  0.00000000E+00  1.60000000E+01  1.00800000E+00
  1.00800000E+00  0.00000000E+00  1.60000000E+01  1.00800000E+00  1.00800000E+00
  0.00000000E+00  1.60000000E+01  1.00800000E+00  1.00800000E+00  0.00000000E+00
  1.60000000E+01  1.00800000E+00  1.00800000E+00  0.00000000E+00  1.60000000E+01
  1.00800000E+00  1.00800000E+00  0.00000000E+00  1.60000000E+01  1.00800000E+00
  1.00800000E+00  0.00000000E+00  1.60000000E+01  1.00800000E+00  1.00800000E+00
  0.00000000E+00  1.60000000E+01  1.00800000E+00  1.00800000E+00  0.00000000E+00
  1.60000000E+01  1.00800000E+00  1.00800000E+00  0.00000000E+00  1.60000000E+01
  1.00800000E+00  1.00800000E+00  0.00000000E+00  1.60000000E+01  1.00800000E+00
  1.00800000E+00  0.00000000E+00  1.60000000E+01  1.00800000E+00  1.00800000E+00
  0.00000000E+00  1.60000000E+01  1.00800000E+00  1.00800000E+00  0.00000000E+00
  1.60000000E+01  1.00800000E+00  1.00800000E+00  0.00000000E+00  1.60000000E+01
  1.00800000E+00  1.00800000E+00  0.00000000E+00  1.60000000E+01  1.00800000E+00
  1.00800000E+00  0.00000000E+00  1.60000000E+01  1.00800000E+00  1.00800000E+00
  0.00000000E+00  1.60000000E+01  1.00800000E+00  1.00800000E+00  0.00000000E+00
  1.60000000E+01  1.00800000E+00  1.00800000E+00  0.00000000E+00  1.60000000E+01
  1.00800000E+00  1.00800000E+00  0.00000000E+00  1.60000000E+01  1.00800000E+00
  1.00800000E+00  0.00000000E+00  1.60000000E+01  1.00800000E+00  1.00800000E+00
  0.00000000E+00  1.60000000E+01  1.00800000E+00  1.00800000E+00  0.00000000E+00
  1.60000000E+01  1.00800000E+00  1.00800000E+00  0.00000000E+00  1.60000000E+01
  1.00800000E+00  1.00800000E+00  0.00000000E+00  1.60000000E+01  1.00800000E+00
  1.00800000E+00  0.00000000E+00  1.60000000E+01  1.00800000E+00  1.00800000E+00
  0.00000000E+00  1.60000000E+01  1.00800000E+00  1.00800000E+00  0.00000000E+00
  1.60000000E+01  1.00800000E+00  1.00800000E+00  0.00000000E+00  1.60000000E+01
  1.00800000E+00  1.00800000E+00  0.00000000E+00  1.60000000E+01  1.00800000E+00
  1.00800000E+00  0.00000000E+00  1.60000000E+01  1.00800000E+00  1.00800000E+00
  0.00000000E+00  1.60000000E+01  1.00800000E+00  1.00800000E+00  0.00000000E+00
  1.60000000E+01  1.00800000E+00  1.00800000E+00  0.00000000E+00  1.60000000E+01
  1.00800000E+00  1.00800000E+00  0.00000000E+00  1.60000000E+01  1.00800000E+00
  1.00800000E+00  0.00000000E+00  1.60000000E+01  1.00800000E+00  1.00800000E+00
  0.00000000E+00  1.60000000E+01  1.00800000E+00  1.00800000E+00  0.00000000E+00
  1.60000000E+01  1.00800000E+00  1.00800000E+00  0.00000000E+00  1.60000000E+01
  1.00800000E+00  1.00800000E+00  0.00000000E+00  1.60000000E+01  1.00800000E+00
  1.00800000E+00  0.00000000E+00  1.60000000E+01  1.00800000E+00  1.00800000E+00
  0.00000000E+00  1.60000000E+01  1.00800000E+00  1.00800000E+00  0.00000000E+00
  1.60000000E+01  1.00800000E+00  1.00800000E+00  0.00000000E+00  1.60000000E+01
  1.00800000E+00  1.00800000E+00  0.00000000E+00  1.60000000E+01  1.00800000E+00
  1.00800000E+00  0.00000000E+00  1.60000000E+01  1.00800000E+00  1.00800000E+00
  0.00000000E+00  1.60000000E+01  1.00800000E+00  1.00800000E+00  0.00000000E+00
  1.60000000E+01  1.00800000E+00  1.00800000E+00  0.00000000E+00  1.60000000E+01
  1.00800000E+00  1.00800000E+00  0.00000000E+00  1.60000000E+01  1.00800000E+00
  1.00800000E+00  0.00000000E+00  1.60000000E+01  1.00800000E+00  1.00800000E+00
  0.00000000E+00  1.60000000E+01  1.00800000E+00  1.00800000E+00  0.00000000E+00
  1.60000000E+01  1.00800000E+00  1.00800000E+00  0.00000000E+00  1.60000000E+01
  1.00800000E+00  1.00800000E+00  0.00000000E+00  1.60000000E+01  1.00800000E+00
  1.00800000E+00  0.00000000E+00  1.60000000E+01  1.00800000E+00  1.00800000E+00
  0.00000000E+00  1.60000000E+01  1.00800000E+00  1.00800000E+00  0.00000000E+00
  1.60000000E+01  1.00800000E+00  1.00800000E+00  0.00000000E+00  1.60000000E+01
  1.00800000E+00  1.00800000E+00  0.00000000E+00  1.60000000E+01  1.00800000E+00
  1.00800000E+00  0.00000000E+00  1.60000000E+01  1.00800000E+00  1.00800000E+00
  0.00000000E+00  1.60000000E+01  1.00800000E+00  1.00800000E+00  0.00000000E+00
  1.60000000E+01  1.00800000E+00  1.00800000E+00  0.00000000E+00  1.60000000E+01
  1.00800000E+00  1.00800000E+00  0.00000000E+00  1.60000000E+01  1.00800000E+00
  1.00800000E+00  0.00000000E+00  1.60000000E+01  1.00800000E+00  1.00800000E+00
  0.00000000E+00  1.60000000E+01  1.00800000E+00  1.00800000E+00  0.00000000E+00
  1.60000000E+01  1.00800000E+00  1.00800000E+00  0.00000000E+00  1.60000000E+01
  1.00800000E+00  1.00800000E+00  0.00000000E+00  1.60000000E+01  1.00800000E+00
  1.00800000E+00  0.00000000E+00  1.60000000E+01  1.00800000E+00  1.00800000E+00
  0.00000000E+00  1.60000000E+01  1.00800000E+00  1.00800000E+00  0.00000000E+00
  1.60000000E+01  1.00800000E+00  1.00800000E+00  0.00000000E+00  1.60000000E+01
  1.00800000E+00  1.00800000E+00  0.00000000E+00  1.60000000E+01  1.00800000E+00
  1.00800000E+00  0.00000000E+00  1.60000000E+01  1.00800000E+00  1.00800000E+00
  0.00000000E+00  1.60000000E+01  1.00800000E+00  1.00800000E+00  0.00000000E+00
  1.60000000E+01  1.00800000E+00  1.00800000E+00  0.00000000E+00  1.60000000E+01
  1.00800000E+00  1.00800000E+00  0.00000000E+00  1.60000000E+01  1.00800000E+00
  1.00800000E+00  0.00000000E+00  1.60000000E+01  1.00800000E+00  1.00800000E+00
  0.00000000E+00  1.60000000E+01  1.00800000E+00  1.00800000E+00  0.00000000E+00
  1.60000000E+01  1.00800000E+00  1.00800000E+00  0.00000000E+00  1.60000000E+01
  1.00800000E+00  1.00800000E+00  0.00000000E+00  1.60000000E+01  1.00800000E+00
  1.00800000E+00  0.00000000E+00  1.60000000E+01  1.00800000E+00  1.00800000E+00
  0.00000000E+00  1.60000000E+01  1.00800000E+00  1.00800000E+00  0.00000000E+00
  1.60000000E+01  1.00800000E+00  1.00800000E+00  0.00000000E+00  1.60000000E+01
  1.00800000E+00  1.00800000E+00  0.00000000E+00  1.60000000E+01  1.00800000E+00
  1.00800000E+00  0.00000000E+00  1.60000000E+01  1.00800000E+00  1.00800000E+00
  0.00000000E+00  1.60000000E+01  1.00800000E+00  1.00800000E+00  0.00000000E+00
  1.60000000E+01  1.00800000E+00  1.00800000E+00  0.00000000E+00  1.60000000E+01
  1.00800000E+00  1.00800000E+00  0.00000000E+00  1.60000000E+01  1.00800000E+00
  1.00800000E+00  0.00000000E+00  1.60000000E+01  1.00800000E+00  1.00800000E+00
  0.00000000E+00  1.60000000E+01  1.00800000E+00  1.00800000E+00  0.00000000E+00
  1.60000000E+01  1.00800000E+00  1.00800000E+00  0.00000000E+00  1.60000000E+01
  1.00800000E+00  1.00800000E+00  0.00000000E+00  1.60000000E+01  1.00800000E+00
  1.00800000E+00  0.00000000E+00  1.60000000E+01  1.00800000E+00  1.00800000E+00
  0.00000000E+00  1.60000000E+01  1.00800000E+00  1.00800000E+00  0.00000000E+00
  1.60000000E+01  1.00800000E+00  1.00800000E+00  0.00000000E+00  1.60000000E+01
  1.00800000E+00  1.00800000E+00  0.00000000E+00  1.60000000E+01  1.00800000E+00
  1.00800000E+00  0.00000000E+00  1.60000000E+01  1.00800000E+00  1.00800000E+00
  0.00000000E+00  1.60000000E+01  1.00800000E+00  1.00800000E+00  0.00000000E+00
  1.60000000E+01  1.00800000E+00  1.00800000E+00  0.00000000E+00  1.60000000E+01
  1.00800000E+00  1.00800000E+00  0.00000000E+00  1.60000000E+01  1.00800000E+00
  1.00800000E+00  0.00000000E+00  1.60000000E+01  1.00800000E+00  1.00800000E+00
  0.00000000E+00  1.60000000E+01  1.00800000E+00  1.00800000E+00  0.00000000E+00
  1.60000000E+01  1.00800000E+00  1.00800000E+00  0.00000000E+00  1.60000000E+01
  1.00800000E+00  1.00800000E+00  0.00000000E+00  1.60000000E+01  1.00800000E+00
  1.00800000E+00  0.00000000E+00  1.60000000E+01  1.00800000E+00  1.00800000E+00
  0.00000000E+00  1.60000000E+01  1.00800000E+00  1.00800000E+00  0.00000000E+00
  1.60000000E+01  1.00800000E+00  1.00800000E+00  0.00000000E+00  1.60000000E+01
  1.00800000E+00  1.00800000E+00  0.00000000E+00  1.60000000E+01  1.00800000E+00
  1.00800000E+00  0.00000000E+00  1.60000000E+01  1.00800000E+00  1.00800000E+00
  0.00000000E+00  1.60000000E+01  1.00800000E+00  1.00800000E+00  0.00000000E+00
  1.60000000E+01  1.00800000E+00  1.00800000E+00  0.00000000E+00  1.60000000E+01
  1.00800000E+00  1.00800000E+00  0.00000000E+00  1.60000000E+01  1.00800000E+00
  1.00800000E+00  0.00000000E+00  1.60000000E+01  1.00800000E+00  1.00800000E+00
  0.00000000E+00  1.60000000E+01  1.00800000E+00  1.00800000E+00  0.00000000E+00
  1.60000000E+01  1.00800000E+00  1.00800000E+00  0.00000000E+00  1.60000000E+01
  1.00800000E+00  1.00800000E+00  0.00000000E+00  1.60000000E+01  1.00800000E+00
  1.00800000E+00  0.00000000E+00  1.60000000E+01  1.00800000E+00  1.00800000E+00
  0.00000000E+00  1.60000000E+01  1.00800000E+00  1.00800000E+00  0.00000000E+00
  1.60000000E+01  1.00800000E+00  1.00800000E+00  0.00000000E+00  1.60000000E+01
  1.00800000E+00  1.00800000E+00  0.00000000E+00  1.60000000E+01  1.00800000E+00
  1.00800000E+00  0.00000000E+00  1.60000000E+01  1.00800000E+00  1.00800000E+00
  0.00000000E+00  1.60000000E+01  1.00800000E+00  1.00800000E+00  0.00000000E+00
  1.60000000E+01  1.00800000E+00  1.00800000E+00  0.00000000E+00  1.60000000E+01
  1.00800000E+00  1.00800000E+00  0.00000000E+00  1.60000000E+01  1.00800000E+00
  1.00800000E+00  0.00000000E+00  1.60000000E+01  1.00800000E+00  1.00800000E+00
  0.00000000E+00  1.60000000E+01  1.00800000E+00  1.00800000E+00  0.00000000E+00
  1.60000000E+01  1.00800000E+00  1.00800000E+00  0.00000000E+00  1.60000000E+01
  1.00800000E+00  1.00800000E+00  0.00000000E+00  1.60000000E+01  1.00800000E+00
  1.00800000E+00  0.00000000E+00  1.60000000E+01  1.00800000E+00  1.00800000E+00
  0.00000000E+00  1.60000000E+01  1.00800000E+00  1.00800000E+00  0.00000000E+00
  1.60000000E+01  1.00800000E+00  1.00800000E+00  0.00000000E+00  1.60000000E+01
  1.00800000E+00  1.00800000E+00  0.00000000E+00  1.60000000E+01  1.00800000E+00
  1.00800000E+00  0.00000000E+00  1.60000000E+01  1.00800000E+00  1.00800000E+00
  0.00000000E+00  1.60000000E+01  1.00800000E+00  1.00800000E+00  0.00000000E+00
  1.60000000E+01  1.00800000E+00  1.00800000E+00  0.00000000E+00  1.60000000E+01
  1.00800000E+00  1.00800000E+00  0.00000000E+00  1.60000000E+01  1.00800000E+00
  1.00800000E+00  0.00000000E+00  1.60000000E+01  1.00800000E+00  1.00800000E+00
  0.00000000E+00  1.60000000E+01  1.00800000E+00  1.00800000E+00  0.00000000E+00
  1.60000000E+01  1.00800000E+00  1.00800000E+00  0.00000000E+00  1.60000000E+01
  1.00800000E+00  1.00800000E+00  0.00000000E+00  1.60000000E+01  1.00800000E+00
  1.00800000E+00  0.00000000E+00  1.60000000E+01  1.00800000E+00  1.00800000E+00
  0.00000000E+00  1.60000000E+01  1.00800000E+00  1.00800000E+00  0.00000000E+00
  1.60000000E+01  1.00800000E+00  1.00800000E+00  0.00000000E+00  1.60000000E+01
  1.00800000E+00  1.00800000E+00  0.00000000E+00  1.60000000E+01  1.00800000E+00
  1.00800000E+00  0.00000000E+00  1.60000000E+01  1.00800000E+00  1.00800000E+00
  0.00000000E+00  1.60000000E+01  1.00800000E+00  1.00800000E+00  0.00000000E+00
  1.60000000E+01  1.00800000E+00  1.00800000E+00  0.00000000E+00  1.60000000E+01
  1.00800000E+00  1.00800000E+00  0.00000000E+00  1.60000000E+01  1.00800000E+00
  1.00800000E+00  0.00000000E+00  1.60000000E+01  1.00800000E+00  1.00800000E+00
  0.00000000E+00  1.60000000E+01  1.00800000E+00  1.00800000E+00  0.00000000E+00
  1.60000000E+01  1.00800000E+00  1.00800000E+00  0.00000000E+00  1.60000000E+01
  1.00800000E+00  1.00800000E+00  0.00000000E+00  1.60000000E+01  1.00800000E+00
  1.00800000E+00  0.00000000E+00  1.60000000E+01  1.00800000E+00  1.00800000E+00
  0.00000000E+00  1.60000000E+01  1.00800000E+00  1.00800000E+00  0.00000000E+00
  1.60000000E+01  1.00800000E+00  1.00800000E+00  0.00000000E+00  1.60000000E+01
  1.00800000E+00  1.00800000E+00  0.00000000E+00  1.60000000E+01  1.00800000E+00
  1.00800000E+00  0.00000000E+00  1.60000000E+01  1.00800000E+00  1.00800000E+00
  0.00000000E+00  1.60000000E+01  1.00800000E+00  1.00800000E+00  0.00000000E+00
  1.60000000E+01  1.00800000E+00  1.00800000E+00  0.00000000E+00  1.60000000E+01
  1.00800000E+00  1.00800000E+00  0.00000000E+00  1.60000000E+01  1.00800000E+00
  1.00800000E+00  0.00000000E+00  1.60000000E+01  1.00800000E+00  1.00800000E+00
  0.00000000E+00  1.60000000E+01  1.00800000E+00  1.00800000E+00  0.00000000E+00
  1.60000000E+01  1.00800000E+00  1.00800000E+00  0.00000000E+00  1.60000000E+01
  1.00800000E+00  1.00800000E+00  0.00000000E+00  1.60000000E+01  1.00800000E+00
  1.00800000E+00  0.00000000E+00  1.60000000E+01  1.00800000E+00  1.00800000E+00
  0.00000000E+00  1.60000000E+01  1.00800000E+00  1.00800000E+00  0.00000000E+00
  1.60000000E+01  1.00800000E+00  1.00800000E+00  0.00000000E+00  1.60000000E+01
  1.00800000E+00  1.00800000E+00  0.00000000E+00  1.60000000E+01  1.00800000E+00
  1.00800000E+00  0.00000000E+00  1.60000000E+01  1.00800000E+00  1.00800000E+00
  0.00000000E+00  1.60000000E+01  1.00800000E+00  1.00800000E+00  0.00000000E+00
  1.60000000E+01  1.00800000E+00  1.00800000E+00  0.00000000E+00  1.60000000E+01
  1.00800000E+00  1.00800000E+00  0.00000000E+00  1.60000000E+01  1.00800000E+00
  1.00800000E+00  0.00000000E+00  1.60000000E+01  1.00800000E+00  1.00800000E+00
  0.00000000E+00  1.60000000E+01  1.00800000E+00  1.00800000E+00  0.00000000E+00
  1.60000000E+01  1.00800000E+00  1.00800000E+00  0.00000000E+00  1.60000000E+01
  1.00800000E+00  1.00800000E+00  0.00000000E+00  1.60000000E+01  1.00800000E+00
  1.00800000E+00  0.00000000E+00  1.60000000E+01  1.00800000E+00  1.00800000E+00
  0.00000000E+00  1.60000000E+01  1.00800000E+00  1.00800000E+00  0.00000000E+00
  1.60000000E+01  1.00800000E+00  1.00800000E+00  0.00000000E+00  1.60000000E+01
  1.00800000E+00  1.00800000E+00  0.00000000E+00  1.60000000E+01  1.00800000E+00
  1.00800000E+00  0.00000000E+00  1.60000000E+01  1.00800000E+00  1.00800000E+00
  0.00000000E+00  1.60000000E+01  1.00800000E+00  1.00800000E+00  0.00000000E+00
  1.60000000E+01  1.00800000E+00  1.00800000E+00  0.00000000E+00  1.60000000E+01
  1.00800000E+00  1.00800000E+00  0.00000000E+00  1.60000000E+01  1.00800000E+00
  1.00800000E+00  0.00000000E+00  1.60000000E+01  1.00800000E+00  1.00800000E+00
  0.00000000E+00  1.60000000E+01  1.00800000E+00  1.00800000E+00  0.00000000E+00
  1.60000000E+01  1.00800000E+00  1.00800000E+00  0.00000000E+00  1.60000000E+01
  1.00800000E+00  1.00800000E+00  0.00000000E+00  1.60000000E+01  1.00800000E+00
  1.00800000E+00  0.00000000E+00  1.60000000E+01  1.00800000E+00  1.00800000E+00
  0.00000000E+00  1.60000000E+01  1.00800000E+00  1.00800000E+00  0.00000000E+00
  1.60000000E+01  1.00800000E+00  1.00800000E+00  0.00000000E+00  1.60000000E+01
  1.00800000E+00  1.00800000E+00  0.00000000E+00  1.60000000E+01  1.00800000E+00
  1.00800000E+00  0.00000000E+00  1.60000000E+01  1.00800000E+00  1.00800000E+00
  0.00000000E+00  1.60000000E+01  1.00800000E+00  1.00800000E+00  0.00000000E+00
  1.60000000E+01  1.00800000E+00  1.00800000E+00  0.00000000E+00  1.60000000E+01
  1.00800000E+00  1.00800000E+00  0.00000000E+00  1.60000000E+01  1.00800000E+00
  1.00800000E+00  0.00000000E+00  1.60000000E+01  1.00800000E+00  1.00800000E+00
  0.00000000E+00  1.60000000E+01  1.00800000E+00  1.00800000E+00  0.00000000E+00
  1.60000000E+01  1.00800000E+00  1.00800000E+00  0.00000000E+00  1.60000000E+01
  1.00800000E+00  1.00800000E+00  0.00000000E+00  1.60000000E+01  1.00800000E+00
  1.00800000E+00  0.00000000E+00  1.60000000E+01  1.00800000E+00  1.00800000E+00
  0.00000000E+00  1.60000000E+01  1.00800000E+00  1.00800000E+00  0.00000000E+00
  1.60000000E+01  1.00800000E+00  1.00800000E+00  0.00000000E+00  1.60000000E+01
  1.00800000E+00  1.00800000E+00  0.00000000E+00  1.60000000E+01  1.00800000E+00
  1.00800000E+00  0.00000000E+00  1.60000000E+01  1.00800000E+00  1.00800000E+00
  0.00000000E+00  1.60000000E+01  1.00800000E+00  1.00800000E+00  0.00000000E+00
  1.60000000E+01  1.00800000E+00  1.00800000E+00  0.00000000E+00  1.60000000E+01
  1.00800000E+00  1.00800000E+00  0.00000000E+00  1.60000000E+01  1.00800000E+00
  1.00800000E+00  0.00000000E+00  1.60000000E+01  1.00800000E+00  1.00800000E+00
  0.00000000E+00  1.60000000E+01  1.00800000E+00  1.00800000E+00  0.00000000E+00
  1.60000000E+01  1.00800000E+00  1.00800000E+00  0.00000000E+00  1.60000000E+01
  1.00800000E+00  1.00800000E+00  0.00000000E+00  1.60000000E+01  1.00800000E+00
  1.00800000E+00  0.00000000E+00  1.60000000E+01  1.00800000E+00  1.00800000E+00
  0.00000000E+00  1.60000000E+01  1.00800000E+00  1.00800000E+00  0.00000000E+00
  1.60000000E+01  1.00800000E+00  1.00800000E+00  0.00000000E+00  1.60000000E+01
  1.00800000E+00  1.00800000E+00  0.00000000E+00  1.60000000E+01  1.00800000E+00
  1.00800000E+00  0.00000000E+00  1.60000000E+01  1.00800000E+00  1.00800000E+00
  0.00000000E+00  1.60000000E+01  1.00800000E+00  1.00800000E+00  0.00000000E+00
  1.60000000E+01  1.00800000E+00  1.00800000E+00  0.00000000E+00  1.60000000E+01
  1.00800000E+00  1.00800000E+00  0.00000000E+00  1.60000000E+01  1.00800000E+00
  1.00800000E+00  0.00000000E+00  1.60000000E+01  1.00800000E+00  1.00800000E+00
  0.00000000E+00  1.60000000E+01  1.00800000E+00  1.00800000E+00  0.00000000E+00
  1.60000000E+01  1.00800000E+00  1.00800000E+00  0.00000000E+00  1.60000000E+01
  1.00800000E+00  1.00800000E+00  0.00000000E+00  1.60000000E+01  1.00800000E+00
  1.00800000E+00  0.00000000E+00  1.60000000E+01  1.00800000E+00  1.00800000E+00
  0.00000000E+00  1.60000000E+01  1.00800000E+00  1.00800000E+00  0.00000000E+00
  1.60000000E+01  1.00800000E+00  1.00800000E+00  0.00000000E+00  1.60000000E+01
  1.00800000E+00  1.00800000E+00  0.00000000E+00  1.60000000E+01  1.00800000E+00
  1.00800000E+00  0.00000000E+00  1.60000000E+01  1.00800000E+00  1.00800000E+00
  0.00000000E+00  1.60000000E+01  1.00800000E+00  1.00800000E+00  0.00000000E+00
  1.60000000E+01  1.00800000E+00  1.00800000E+00  0.00000000E+00  1.60000000E+01
  1.00800000E+00  1.00800000E+00  0.00000000E+00  1.60000000E+01  1.00800000E+00
  1.00800000E+00  0.00000000E+00  1.60000000E+01  1.00800000E+00  1.00800000E+00
  0.00000000E+00  1.60000000E+01  1.00800000E+00  1.00800000E+00  0.00000000E+00
  1.60000000E+01  1.00800000E+00  1.00800000E+00  0.00000000E+00  1.60000000E+01
  1.00800000E+00  1.00800000E+00  0.00000000E+00  1.60000000E+01  1.00800000E+00
  1.00800000E+00  0.00000000E+00  1.60000000E+01  1.00800000E+00  1.00800000E+00
  0.00000000E+00  1.60000000E+01  1.00800000E+00  1.00800000E+00  0.00000000E+00
  1.60000000E+01  1.00800000E+00  1.00800000E+00  0.00000000E+00  1.60000000E+01
  1.00800000E+00  1.00800000E+00  0.00000000E+00  1.60000000E+01  1.00800000E+00
  1.00800000E+00  0.00000000E+00  1.60000000E+01  1.00800000E+00  1.00800000E+00
  0.00000000E+00  1.60000000E+01  1.00800000E+00  1.00800000E+00  0.00000000E+00
  1.60000000E+01  1.00800000E+00  1.00800000E+00  0.00000000E+00  1.60000000E+01
  1.00800000E+00  1.00800000E+00  0.00000000E+00  1.60000000E+01  1.00800000E+00
  1.00800000E+00  0.00000000E+00  1.60000000E+01  1.00800000E+00  1.00800000E+00
  0.00000000E+00  1.60000000E+01  1.00800000E+00  1.00800000E+00  0.00000000E+00
  1.60000000E+01  1.00800000E+00  1.00800000E+00  0.00000000E+00  1.60000000E+01
  1.00800000E+00  1.00800000E+00  0.00000000E+00  1.60000000E+01  1.00800000E+00
  1.00800000E+00  0.00000000E+00  1.60000000E+01  1.00800000E+00  1.00800000E+00
  0.00000000E+00  1.60000000E+01  1.00800000E+00  1.00800000E+00  0.00000000E+00
  1.60000000E+01  1.00800000E+00  1.00800000E+00  0.00000000E+00  1.60000000E+01
  1.00800000E+00  1.00800000E+00  0.00000000E+00  1.60000000E+01  1.00800000E+00
  1.00800000E+00  0.00000000E+00  1.60000000E+01  1.00800000E+00  1.00800000E+00
  0.00000000E+00  1.60000000E+01  1.00800000E+00  1.00800000E+00  0.00000000E+00
  1.60000000E+01  1.00800000E+00  1.00800000E+00  0.00000000E+00  1.60000000E+01
  1.00800000E+00  1.00800000E+00  0.00000000E+00  1.60000000E+01  1.00800000E+00
  1.00800000E+00  0.00000000E+00  1.60000000E+01  1.00800000E+00  1.00800000E+00
  0.00000000E+00  1.60000000E+01  1.00800000E+00  1.00800000E+00  0.00000000E+00
  1.60000000E+01  1.00800000E+00  1.00800000E+00  0.00000000E+00  1.60000000E+01
  1.00800000E+00  1.00800000E+00  0.00000000E+00  1.60000000E+01  1.00800000E+00
  1.00800000E+00  0.00000000E+00  1.60000000E+01  1.00800000E+00  1.00800000E+00
  0.00000000E+00  1.60000000E+01  1.00800000E+00  1.00800000E+00  0.00000000E+00
  1.60000000E+01  1.00800000E+00  1.00800000E+00  0.00000000E+00  1.60000000E+01
  1.00800000E+00  1.00800000E+00  0.00000000E+00  1.60000000E+01  1.00800000E+00
  1.00800000E+00  0.00000000E+00  1.60000000E+01  1.00800000E+00  1.00800000E+00
  0.00000000E+00  1.60000000E+01  1.00800000E+00  1.00800000E+00  0.00000000E+00
  1.60000000E+01  1.00800000E+00  1.00800000E+00  0.00000000E+00  1.60000000E+01
  1.00800000E+00  1.00800000E+00  0.00000000E+00  1.60000000E+01  1.00800000E+00
  1.00800000E+00  0.00000000E+00  1.60000000E+01  1.00800000E+00  1.00800000E+00
  0.00000000E+00  1.60000000E+01  1.00800000E+00  1.00800000E+00  0.00000000E+00
  1.60000000E+01  1.00800000E+00  1.00800000E+00  0.00000000E+00  1.60000000E+01
  1.00800000E+00  1.00800000E+00  0.00000000E+00  1.60000000E+01  1.00800000E+00
  1.00800000E+00  0.00000000E+00  1.60000000E+01  1.00800000E+00  1.00800000E+00
  0.00000000E+00  1.60000000E+01  1.00800000E+00  1.00800000E+00  0.00000000E+00
  1.60000000E+01  1.00800000E+00  1.00800000E+00  0.00000000E+00  1.60000000E+01
  1.00800000E+00  1.00800000E+00  0.00000000E+00  1.60000000E+01  1.00800000E+00
  1.00800000E+00  0.00000000E+00  1.60000000E+01  1.00800000E+00  1.00800000E+00
  0.00000000E+00  1.60000000E+01  1.00800000E+00  1.00800000E+00  0.00000000E+00
  1.60000000E+01  1.00800000E+00  1.00800000E+00  0.00000000E+00  1.60000000E+01
  1.00800000E+00  1.00800000E+00  0.00000000E+00  1.60000000E+01  1.00800000E+00
  1.00800000E+00  0.00000000E+00  1.60000000E+01  1.00800000E+00  1.00800000E+00
  0.00000000E+00  1.60000000E+01  1.00800000E+00  1.00800000E+00  0.00000000E+00
  1.60000000E+01  1.00800000E+00  1.00800000E+00  0.00000000E+00  1.60000000E+01
  1.00800000E+00  1.00800000E+00  0.00000000E+00  1.60000000E+01  1.00800000E+00
  1.00800000E+00  0.00000000E+00  1.60000000E+01  1.00800000E+00  1.00800000E+00
  0.00000000E+00  1.60000000E+01  1.00800000E+00  1.00800000E+00  0.00000000E+00
  1.60000000E+01  1.00800000E+00  1.00800000E+00  0.00000000E+00  1.60000000E+01
  1.00800000E+00  1.00800000E+00  0.00000000E+00  1.60000000E+01  1.00800000E+00
  1.00800000E+00  0.00000000E+00  1.60000000E+01  1.00800000E+00  1.00800000E+00
  0.00000000E+00  1.60000000E+01  1.00800000E+00  1.00800000E+00  0.00000000E+00
  1.60000000E+01  1.00800000E+00  1.00800000E+00  0.00000000E+00  1.60000000E+01
  1.00800000E+00  1.00800000E+00  0.00000000E+00  1.60000000E+01  1.00800000E+00
  1.00800000E+00  0.00000000E+00  1.60000000E+01  1.00800000E+00  1.00800000E+00
  0.00000000E+00  1.60000000E+01  1.00800000E+00  1.00800000E+00  0.00000000E+00
  1.60000000E+01  1.00800000E+00  1.00800000E+00  0.00000000E+00  1.60000000E+01
  1.00800000E+00  1.00800000E+00  0.00000000E+00  1.60000000E+01  1.00800000E+00
  1.00800000E+00  0.00000000E+00  1.60000000E+01  1.00800000E+00  1.00800000E+00
  0.00000000E+00  1.60000000E+01  1.00800000E+00  1.00800000E+00  0.00000000E+00
  1.60000000E+01  1.00800000E+00  1.00800000E+00  0.00000000E+00  1.60000000E+01
  1.00800000E+00  1.00800000E+00  0.00000000E+00  1.60000000E+01  1.00800000E+00
  1.00800000E+00  0.00000000E+00  1.60000000E+01  1.00800000E+00  1.00800000E+00
  0.00000000E+00  1.60000000E+01  1.00800000E+00  1.00800000E+00  0.00000000E+00
  1.60000000E+01  1.00800000E+00  1.00800000E+00  0.00000000E+00  1.60000000E+01
  1.00800000E+00  1.00800000E+00  0.00000000E+00  1.60000000E+01  1.00800000E+00
  1.00800000E+00  0.00000000E+00  1.60000000E+01  1.00800000E+00  1.00800000E+00
  0.00000000E+00  1.60000000E+01  1.00800000E+00  1.00800000E+00  0.00000000E+00
  1.60000000E+01  1.00800000E+00  1.00800000E+00  0.00000000E+00  1.60000000E+01
  1.00800000E+00  1.00800000E+00  0.00000000E+00  1.60000000E+01  1.00800000E+00
  1.00800000E+00  0.00000000E+00  1.60000000E+01  1.00800000E+00  1.00800000E+00
  0.00000000E+00  1.60000000E+01  1.00800000E+00  1.00800000E+00  0.00000000E+00
  1.60000000E+01  1.00800000E+00  1.00800000E+00  0.00000000E+00  1.60000000E+01
  1.00800000E+00  1.00800000E+00  0.00000000E+00  1.60000000E+01  1.00800000E+00
  1.00800000E+00  0.00000000E+00  1.60000000E+01  1.00800000E+00  1.00800000E+00
  0.00000000E+00  1.60000000E+01  1.00800000E+00  1.00800000E+00  0.00000000E+00
  1.60000000E+01  1.00800000E+00  1.00800000E+00  0.00000000E+00  1.60000000E+01
  1.00800000E+00  1.00800000E+00  0.00000000E+00  1.60000000E+01  1.00800000E+00
  1.00800000E+00  0.00000000E+00  1.60000000E+01  1.00800000E+00  1.00800000E+00
  0.00000000E+00  1.60000000E+01  1.00800000E+00  1.00800000E+00  0.00000000E+00
  1.60000000E+01  1.00800000E+00  1.00800000E+00  0.00000000E+00  1.60000000E+01
  1.00800000E+00  1.00800000E+00  0.00000000E+00  1.60000000E+01  1.00800000E+00
  1.00800000E+00  0.00000000E+00  1.60000000E+01  1.00800000E+00  1.00800000E+00
  0.00000000E+00  1.60000000E+01  1.00800000E+00  1.00800000E+00  0.00000000E+00
  1.60000000E+01  1.00800000E+00  1.00800000E+00  0.00000000E+00  1.60000000E+01
  1.00800000E+00  1.00800000E+00  0.00000000E+00  1.60000000E+01  1.00800000E+00
  1.00800000E+00  0.00000000E+00  1.60000000E+01  1.00800000E+00  1.00800000E+00
  0.00000000E+00  1.60000000E+01  1.00800000E+00  1.00800000E+00  0.00000000E+00
  1.60000000E+01  1.00800000E+00  1.00800000E+00  0.00000000E+00  1.60000000E+01
  1.00800000E+00  1.00800000E+00  0.00000000E+00  1.60000000E+01  1.00800000E+00
  1.00800000E+00  0.00000000E+00  1.60000000E+01  1.00800000E+00  1.00800000E+00
  0.00000000E+00  1.60000000E+01  1.00800000E+00  1.00800000E+00  0.00000000E+00
  1.60000000E+01  1.00800000E+00  1.00800000E+00  0.00000000E+00  1.60000000E+01
  1.00800000E+00  1.00800000E+00  0.00000000E+00  1.60000000E+01  1.00800000E+00
  1.00800000E+00  0.00000000E+00  1.60000000E+01  1.00800000E+00  1.00800000E+00
  0.00000000E+00  1.60000000E+01  1.00800000E+00  1.00800000E+00  0.00000000E+00
  1.60000000E+01  1.00800000E+00  1.00800000E+00  0.00000000E+00  1.60000000E+01
  1.00800000E+00  1.00800000E+00  0.00000000E+00  1.60000000E+01  1.00800000E+00
  1.00800000E+00  0.00000000E+00  1.60000000E+01  1.00800000E+00  1.00800000E+00
  0.00000000E+00  1.60000000E+01  1.00800000E+00  1.00800000E+00  0.00000000E+00
  1.60000000E+01  1.00800000E+00  1.00800000E+00  0.00000000E+00  1.60000000E+01
  1.00800000E+00  1.00800000E+00  0.00000000E+00  1.60000000E+01  1.00800000E+00
  1.00800000E+00  0.00000000E+00  1.60000000E+01  1.00800000E+00  1.00800000E+00
  0.00000000E+00  1.60000000E+01  1.00800000E+00  1.00800000E+00  0.00000000E+00
  1.60000000E+01  1.00800000E+00  1.00800000E+00  0.00000000E+00  1.60000000E+01
  1.00800000E+00  1.00800000E+00  0.00000000E+00  1.60000000E+01  1.00800000E+00
  1.00800000E+00  0.00000000E+00  1.60000000E+01  1.00800000E+00  1.00800000E+00
  0.00000000E+00  1.60000000E+01  1.00800000E+00  1.00800000E+00  0.00000000E+00
  1.60000000E+01  1.00800000E+00  1.00800000E+00  0.00000000E+00  1.60000000E+01
  1.00800000E+00  1.00800000E+00  0.00000000E+00  1.60000000E+01  1.00800000E+00
  1.00800000E+00  0.00000000E+00  1.60000000E+01  1.00800000E+00  1.00800000E+00
  0.00000000E+00  1.60000000E+01  1.00800000E+00  1.00800000E+00  0.00000000E+00
  1.60000000E+01  1.00800000E+00  1.00800000E+00  0.00000000E+00  1.60000000E+01
  1.00800000E+00  1.00800000E+00  0.00000000E+00  1.60000000E+01  1.00800000E+00
  1.00800000E+00  0.00000000E+00  1.60000000E+01  1.00800000E+00  1.00800000E+00
  0.00000000E+00  1.60000000E+01  1.00800000E+00  1.00800000E+00  0.00000000E+00
  1.60000000E+01  1.00800000E+00  1.00800000E+00  0.00000000E+00  1.60000000E+01
  1.00800000E+00  1.00800000E+00  0.00000000E+00  1.60000000E+01  1.00800000E+00
  1.00800000E+00  0.00000000E+00  1.60000000E+01  1.00800000E+00  1.00800000E+00
  0.00000000E+00  1.60000000E+01  1.00800000E+00  1.00800000E+00  0.00000000E+00
  1.60000000E+01  1.00800000E+00  1.00800000E+00  0.00000000E+00  1.60000000E+01
  1.00800000E+00  1.00800000E+00  0.00000000E+00  1.60000000E+01  1.00800000E+00
  1.00800000E+00  0.00000000E+00  1.60000000E+01  1.00800000E+00  1.00800000E+00
  0.00000000E+00  1.60000000E+01  1.00800000E+00  1.00800000E+00  0.00000000E+00
  1.60000000E+01  1.00800000E+00  1.00800000E+00  0.00000000E+00  1.60000000E+01
  1.00800000E+00  1.00800000E+00  0.00000000E+00  1.60000000E+01  1.00800000E+00
  1.00800000E+00  0.00000000E+00  1.60000000E+01  1.00800000E+00  1.00800000E+00
  0.00000000E+00  1.60000000E+01  1.00800000E+00  1.00800000E+00  0.00000000E+00
  1.60000000E+01  1.00800000E+00  1.00800000E+00  0.00000000E+00  1.60000000E+01
  1.00800000E+00  1.00800000E+00  0.00000000E+00  1.60000000E+01  1.00800000E+00
  1.00800000E+00  0.00000000E+00  1.60000000E+01  1.00800000E+00  1.00800000E+00
  0.00000000E+00  1.60000000E+01  1.00800000E+00  1.00800000E+00  0.00000000E+00
  1.60000000E+01  1.00800000E+00  1.00800000E+00  0.00000000E+00  1.60000000E+01
  1.00800000E+00  1.00800000E+00  0.00000000E+00  1.60000000E+01  1.00800000E+00
  1.00800000E+00  0.00000000E+00  1.60000000E+01  1.00800000E+00  1.00800000E+00
  0.00000000E+00  1.60000000E+01  1.00800000E+00  1.00800000E+00  0.00000000E+00
  1.60000000E+01  1.00800000E+00  1.00800000E+00  0.00000000E+00  1.60000000E+01
  1.00800000E+00  1.00800000E+00  0.00000000E+00  1.60000000E+01  1.00800000E+00
  1.00800000E+00  0.00000000E+00  1.60000000E+01  1.00800000E+00  1.00800000E+00
  0.00000000E+00  1.60000000E+01  1.00800000E+00  1.00800000E+00  0.00000000E+00
  1.60000000E+01  1.00800000E+00  1.00800000E+00  0.00000000E+00  1.60000000E+01
  1.00800000E+00  1.00800000E+00  0.00000000E+00  1.60000000E+01  1.00800000E+00
  1.00800000E+00  0.00000000E+00  1.60000000E+01  1.00800000E+00  1.00800000E+00
  0.00000000E+00  1.60000000E+01  1.00800000E+00  1.00800000E+00  0.00000000E+00
  1.60000000E+01  1.00800000E+00  1.00800000E+00  0.00000000E+00  1.60000000E+01
  1.00800000E+00  1.00800000E+00  0.00000000E+00  1.60000000E+01  1.00800000E+00
  1.00800000E+00  0.00000000E+00  1.60000000E+01  1.00800000E+00  1.00800000E+00
  0.00000000E+00  1.60000000E+01  1.00800000E+00  1.00800000E+00  0.00000000E+00
  1.60000000E+01  1.00800000E+00  1.00800000E+00  0.00000000E+00  1.60000000E+01
  1.00800000E+00  1.00800000E+00  0.00000000E+00  1.60000000E+01  1.00800000E+00
  1.00800000E+00  0.00000000E+00  1.60000000E+01  1.00800000E+00  1.00800000E+00
  0.00000000E+00  1.60000000E+01  1.00800000E+00  1.00800000E+00  0.00000000E+00
  1.60000000E+01  1.00800000E+00  1.00800000E+00  0.00000000E+00  1.60000000E+01
  1.00800000E+00  1.00800000E+00  0.00000000E+00  1.60000000E+01  1.00800000E+00
  1.00800000E+00  0.00000000E+00  1.60000000E+01  1.00800000E+00  1.00800000E+00
  0.00000000E+00  1.60000000E+01  1.00800000E+00  1.00800000E+00  0.00000000E+00
  1.60000000E+01  1.00800000E+00  1.00800000E+00  0.00000000E+00  1.60000000E+01
  1.00800000E+00  1.00800000E+00  0.00000000E+00  1.60000000E+01  1.00800000E+00
  1.00800000E+00  0.00000000E+00  1.60000000E+01  1.00800000E+00  1.00800000E+00
  0.00000000E+00  1.60000000E+01  1.00800000E+00  1.00800000E+00  0.00000000E+00
  1.60000000E+01  1.00800000E+00  1.00800000E+00  0.00000000E+00  1.60000000E+01
  1.00800000E+00  1.00800000E+00  0.00000000E+00  1.60000000E+01  1.00800000E+00
  1.00800000E+00  0.00000000E+00  1.60000000E+01  1.00800000E+00  1.00800000E+00
  0.00000000E+00  1.60000000E+01  1.00800000E+00  1.00800000E+00  0.00000000E+00
  1.60000000E+01  1.00800000E+00  1.00800000E+00  0.00000000E+00  1.60000000E+01
  1.00800000E+00  1.00800000E+00  0.00000000E+00  1.60000000E+01  1.00800000E+00
  1.00800000E+00  0.00000000E+00  1.60000000E+01  1.00800000E+00  1.00800000E+00
  0.00000000E+00  1.60000000E+01  1.00800000E+00  1.00800000E+00  0.00000000E+00
  1.60000000E+01  1.00800000E+00  1.00800000E+00  0.00000000E+00  1.60000000E+01
  1.00800000E+00  1.00800000E+00  0.00000000E+00  1.60000000E+01  1.00800000E+00
  1.00800000E+00  0.00000000E+00  1.60000000E+01  1.00800000E+00  1.00800000E+00
  0.00000000E+00  1.60000000E+01  1.00800000E+00  1.00800000E+00  0.00000000E+00
  1.60000000E+01  1.00800000E+00  1.00800000E+00  0.00000000E+00  1.60000000E+01
  1.00800000E+00  1.00800000E+00  0.00000000E+00  1.60000000E+01  1.00800000E+00
  1.00800000E+00  0.00000000E+00  1.60000000E+01  1.00800000E+00  1.00800000E+00
  0.00000000E+00  1.60000000E+01  1.00800000E+00  1.00800000E+00  0.00000000E+00
  1.60000000E+01  1.00800000E+00  1.00800000E+00  0.00000000E+00  1.60000000E+01
  1.00800000E+00  1.00800000E+00  0.00000000E+00  1.60000000E+01  1.00800000E+00
  1.00800000E+00  0.00000000E+00  1.60000000E+01  1.00800000E+00  1.00800000E+00
  0.00000000E+00  1.60000000E+01  1.00800000E+00  1.00800000E+00  0.00000000E+00
  1.60000000E+01  1.00800000E+00  1.00800000E+00  0.00000000E+00  1.60000000E+01
  1.00800000E+00  1.00800000E+00  0.00000000E+00  1.60000000E+01  1.00800000E+00
  1.00800000E+00  0.00000000E+00  1.60000000E+01  1.00800000E+00  1.00800000E+00
  0.00000000E+00  1.60000000E+01  1.00800000E+00  1.00800000E+00  0.00000000E+00
  1.60000000E+01  1.00800000E+00  1.00800000E+00  0.00000000E+00  1.60000000E+01
  1.00800000E+00  1.00800000E+00  0.00000000E+00  1.60000000E+01  1.00800000E+00
  1.00800000E+00  0.00000000E+00  1.60000000E+01  1.00800000E+00  1.00800000E+00
  0.00000000E+00  1.60000000E+01  1.00800000E+00  1.00800000E+00  0.00000000E+00
  1.60000000E+01  1.00800000E+00  1.00800000E+00  0.00000000E+00  1.60000000E+01
  1.00800000E+00  1.00800000E+00  0.00000000E+00  1.60000000E+01  1.00800000E+00
  1.00800000E+00  0.00000000E+00  1.60000000E+01  1.00800000E+00  1.00800000E+00
  0.00000000E+00  1.60000000E+01  1.00800000E+00  1.00800000E+00  0.00000000E+00
  1.60000000E+01  1.00800000E+00  1.00800000E+00  0.00000000E+00  1.60000000E+01
  1.00800000E+00  1.00800000E+00  0.00000000E+00  1.60000000E+01  1.00800000E+00
  1.00800000E+00  0.00000000E+00  1.60000000E+01  1.00800000E+00  1.00800000E+00
  0.00000000E+00  1.60000000E+01  1.00800000E+00  1.00800000E+00  0.00000000E+00
  1.60000000E+01  1.00800000E+00  1.00800000E+00  0.00000000E+00  1.60000000E+01
  1.00800000E+00  1.00800000E+00  0.00000000E+00  1.60000000E+01  1.00800000E+00
  1.00800000E+00  0.00000000E+00  1.60000000E+01  1.00800000E+00  1.00800000E+00
  0.00000000E+00  1.60000000E+01  1.00800000E+00  1.00800000E+00  0.00000000E+00
  1.60000000E+01  1.00800000E+00  1.00800000E+00  0.00000000E+00  1.60000000E+01
  1.00800000E+00  1.00800000E+00  0.00000000E+00  1.60000000E+01  1.00800000E+00
  1.00800000E+00  0.00000000E+00  1.60000000E+01  1.00800000E+00  1.00800000E+00
  0.00000000E+00  1.60000000E+01  1.00800000E+00  1.00800000E+00  0.00000000E+00
  1.60000000E+01  1.00800000E+00  1.00800000E+00  0.00000000E+00  1.60000000E+01
  1.00800000E+00  1.00800000E+00  0.00000000E+00  1.60000000E+01  1.00800000E+00
  1.00800000E+00  0.00000000E+00  1.60000000E+01  1.00800000E+00  1.00800000E+00
  0.00000000E+00  1.60000000E+01  1.00800000E+00  1.00800000E+00  0.00000000E+00
  1.60000000E+01  1.00800000E+00  1.00800000E+00  0.00000000E+00  1.60000000E+01
  1.00800000E+00  1.00800000E+00  0.00000000E+00  1.60000000E+01  1.00800000E+00
  1.00800000E+00  0.00000000E+00  1.60000000E+01  1.00800000E+00  1.00800000E+00
  0.00000000E+00  1.60000000E+01  1.00800000E+00  1.00800000E+00  0.00000000E+00
  1.60000000E+01  1.00800000E+00  1.00800000E+00  0.00000000E+00  1.60000000E+01
  1.00800000E+00  1.00800000E+00  0.00000000E+00  1.60000000E+01  1.00800000E+00
  1.00800000E+00  0.00000000E+00  1.60000000E+01  1.00800000E+00  1.00800000E+00
  0.00000000E+00  1.60000000E+01  1.00800000E+00  1.00800000E+00  0.00000000E+00
  1.60000000E+01  1.00800000E+00  1.00800000E+00  0.00000000E+00  1.60000000E+01
  1.00800000E+00  1.00800000E+00  0.00000000E+00  1.60000000E+01  1.00800000E+00
  1.00800000E+00  0.00000000E+00  1.60000000E+01  1.00800000E+00  1.00800000E+00
  0.00000000E+00  1.60000000E+01  1.00800000E+00  1.00800000E+00  0.00000000E+00
  1.60000000E+01  1.00800000E+00  1.00800000E+00  0.00000000E+00  1.60000000E+01
  1.00800000E+00  1.00800000E+00  0.00000000E+00  1.60000000E+01  1.00800000E+00
  1.00800000E+00  0.00000000E+00  1.60000000E+01  1.00800000E+00  1.00800000E+00
  0.00000000E+00  1.60000000E+01  1.00800000E+00  1.00800000E+00  0.00000000E+00
  1.60000000E+01  1.00800000E+00  1.00800000E+00  0.00000000E+00  1.60000000E+01
  1.00800000E+00  1.00800000E+00  0.00000000E+00  1.60000000E+01  1.00800000E+00
  1.00800000E+00  0.00000000E+00  1.60000000E+01  1.00800000E+00  1.00800000E+00
  0.00000000E+00  1.60000000E+01  1.00800000E+00  1.00800000E+00  0.00000000E+00
  1.60000000E+01  1.00800000E+00  1.00800000E+00  0.00000000E+00  1.60000000E+01
  1.00800000E+00  1.00800000E+00  0.00000000E+00  1.60000000E+01  1.00800000E+00
  1.00800000E+00  0.00000000E+00  1.60000000E+01  1.00800000E+00  1.00800000E+00
  0.00000000E+00  1.60000000E+01  1.00800000E+00  1.00800000E+00  0.00000000E+00
  1.60000000E+01  1.00800000E+00  1.00800000E+00  0.00000000E+00  1.60000000E+01
  1.00800000E+00  1.00800000E+00  0.00000000E+00  1.60000000E+01  1.00800000E+00
  1.00800000E+00  0.00000000E+00  1.60000000E+01  1.00800000E+00  1.00800000E+00
  0.00000000E+00  1.60000000E+01  1.00800000E+00  1.00800000E+00  0.00000000E+00
  1.60000000E+01  1.00800000E+00  1.00800000E+00  0.00000000E+00  1.60000000E+01
  1.00800000E+00  1.00800000E+00  0.00000000E+00  1.60000000E+01  1.00800000E+00
  1.00800000E+00  0.00000000E+00  1.60000000E+01  1.00800000E+00  1.00800000E+00
  0.00000000E+00  1.60000000E+01  1.00800000E+00  1.00800000E+00  0.00000000E+00
  1.60000000E+01  1.00800000E+00  1.00800000E+00  0.00000000E+00  1.60000000E+01
  1.00800000E+00  1.00800000E+00  0.00000000E+00  1.60000000E+01  1.00800000E+00
  1.00800000E+00  0.00000000E+00  1.60000000E+01  1.00800000E+00  1.00800000E+00
  0.00000000E+00  1.60000000E+01  1.00800000E+00  1.00800000E+00  0.00000000E+00
  1.60000000E+01  1.00800000E+00  1.00800000E+00  0.00000000E+00  1.60000000E+01
  1.00800000E+00  1.00800000E+00  0.00000000E+00  1.60000000E+01  1.00800000E+00
  1.00800000E+00  0.00000000E+00  1.60000000E+01  1.00800000E+00  1.00800000E+00
  0.00000000E+00  1.60000000E+01  1.00800000E+00  1.00800000E+00  0.00000000E+00
  1.60000000E+01  1.00800000E+00  1.00800000E+00  0.00000000E+00  1.60000000E+01
  1.00800000E+00  1.00800000E+00  0.00000000E+00  1.60000000E+01  1.00800000E+00
  1.00800000E+00  0.00000000E+00  1.60000000E+01  1.00800000E+00  1.00800000E+00
  0.00000000E+00  1.60000000E+01  1.00800000E+00  1.00800000E+00  0.00000000E+00
  1.60000000E+01  1.00800000E+00  1.00800000E+00  0.00000000E+00  1.60000000E+01
  1.00800000E+00  1.00800000E+00  0.00000000E+00  1.60000000E+01  1.00800000E+00
  1.00800000E+00  0.00000000E+00  1.60000000E+01  1.00800000E+00  1.00800000E+00
  0.00000000E+00  1.60000000E+01  1.00800000E+00  1.00800000E+00  0.00000000E+00
  1.60000000E+01  1.00800000E+00  1.00800000E+00  0.00000000E+00  1.60000000E+01
  1.00800000E+00  1.00800000E+00  0.00000000E+00  1.60000000E+01  1.00800000E+00
  1.00800000E+00  0.00000000E+00  1.60000000E+01  1.00800000E+00  1.00800000E+00
  0.00000000E+00  1.60000000E+01  1.00800000E+00  1.00800000E+00  0.00000000E+00
  1.60000000E+01  1.00800000E+00  1.00800000E+00  0.00000000E+00  1.60000000E+01
  1.00800000E+00  1.00800000E+00  0.00000000E+00  1.60000000E+01  1.00800000E+00
  1.00800000E+00  0.00000000E+00  1.60000000E+01  1.00800000E+00  1.00800000E+00
  0.00000000E+00  1.60000000E+01  1.00800000E+00  1.00800000E+00  0.00000000E+00
  1.60000000E+01  1.00800000E+00  1.00800000E+00  0.00000000E+00  1.60000000E+01
  1.00800000E+00  1.00800000E+00  0.00000000E+00  1.60000000E+01  1.00800000E+00
  1.00800000E+00  0.00000000E+00  1.60000000E+01  1.00800000E+00  1.00800000E+00
  0.00000000E+00  1.60000000E+01  1.00800000E+00  1.00800000E+00  0.00000000E+00
  1.60000000E+01  1.00800000E+00  1.00800000E+00  0.00000000E+00  1.60000000E+01
  1.00800000E+00  1.00800000E+00  0.00000000E+00  1.60000000E+01  1.00800000E+00
  1.00800000E+00  0.00000000E+00  1.60000000E+01  1.00800000E+00  1.00800000E+00
  0.00000000E+00  1.60000000E+01  1.00800000E+00  1.00800000E+00  0.00000000E+00
  1.60000000E+01  1.00800000E+00  1.00800000E+00  0.00000000E+00  1.60000000E+01
  1.00800000E+00  1.00800000E+00  0.00000000E+00  1.60000000E+01  1.00800000E+00
  1.00800000E+00  0.00000000E+00  1.60000000E+01  1.00800000E+00  1.00800000E+00
  0.00000000E+00  1.60000000E+01  1.00800000E+00  1.00800000E+00  0.00000000E+00
  1.60000000E+01  1.00800000E+00  1.00800000E+00  0.00000000E+00  1.60000000E+01
  1.00800000E+00  1.00800000E+00  0.00000000E+00  1.60000000E+01  1.00800000E+00
  1.00800000E+00  0.00000000E+00  1.60000000E+01  1.00800000E+00  1.00800000E+00
  0.00000000E+00  1.60000000E+01  1.00800000E+00  1.00800000E+00  0.00000000E+00
  1.60000000E+01  1.00800000E+00  1.00800000E+00  0.00000000E+00  1.60000000E+01
  1.00800000E+00  1.00800000E+00  0.00000000E+00  1.60000000E+01  1.00800000E+00
  1.00800000E+00  0.00000000E+00  1.60000000E+01  1.00800000E+00  1.00800000E+00
  0.00000000E+00  1.60000000E+01  1.00800000E+00  1.00800000E+00  0.00000000E+00
  1.60000000E+01  1.00800000E+00  1.00800000E+00  0.00000000E+00  1.60000000E+01
  1.00800000E+00  1.00800000E+00  0.00000000E+00  1.60000000E+01  1.00800000E+00
  1.00800000E+00  0.00000000E+00  1.60000000E+01  1.00800000E+00  1.00800000E+00
  0.00000000E+00  1.60000000E+01  1.00800000E+00  1.00800000E+00  0.00000000E+00
  1.60000000E+01  1.00800000E+00  1.00800000E+00  0.00000000E+00  1.60000000E+01
  1.00800000E+00  1.00800000E+00  0.00000000E+00  1.60000000E+01  1.00800000E+00
  1.00800000E+00  0.00000000E+00  1.60000000E+01  1.00800000E+00  1.00800000E+00
  0.00000000E+00  1.60000000E+01  1.00800000E+00  1.00800000E+00  0.00000000E+00
  1.60000000E+01  1.00800000E+00  1.00800000E+00  0.00000000E+00  1.60000000E+01
  1.00800000E+00  1.00800000E+00  0.00000000E+00  1.60000000E+01  1.00800000E+00
  1.00800000E+00  0.00000000E+00  1.60000000E+01  1.00800000E+00  1.00800000E+00
  0.00000000E+00  1.60000000E+01  1.00800000E+00  1.00800000E+00  0.00000000E+00
  1.60000000E+01  1.00800000E+00  1.00800000E+00  0.00000000E+00  1.60000000E+01
  1.00800000E+00  1.00800000E+00  0.00000000E+00  1.60000000E+01  1.00800000E+00
  1.00800000E+00  0.00000000E+00  1.60000000E+01  1.00800000E+00  1.00800000E+00
  0.00000000E+00  1.60000000E+01  1.00800000E+00  1.00800000E+00  0.00000000E+00
  1.60000000E+01  1.00800000E+00  1.00800000E+00  0.00000000E+00  1.60000000E+01
  1.00800000E+00  1.00800000E+00  0.00000000E+00  1.60000000E+01  1.00800000E+00
  1.00800000E+00  0.00000000E+00  1.60000000E+01  1.00800000E+00  1.00800000E+00
  0.00000000E+00  1.60000000E+01  1.00800000E+00  1.00800000E+00  0.00000000E+00
  1.60000000E+01  1.00800000E+00  1.00800000E+00  0.00000000E+00  1.60000000E+01
  1.00800000E+00  1.00800000E+00  0.00000000E+00  1.60000000E+01  1.00800000E+00
  1.00800000E+00  0.00000000E+00  1.60000000E+01  1.00800000E+00  1.00800000E+00
  0.00000000E+00  1.60000000E+01  1.00800000E+00  1.00800000E+00  0.00000000E+00
  1.60000000E+01  1.00800000E+00  1.00800000E+00  0.00000000E+00  1.60000000E+01
  1.00800000E+00  1.00800000E+00  0.00000000E+00  1.60000000E+01  1.00800000E+00
  1.00800000E+00  0.00000000E+00  1.60000000E+01  1.00800000E+00  1.00800000E+00
  0.00000000E+00  1.60000000E+01  1.00800000E+00  1.00800000E+00  0.00000000E+00
  1.60000000E+01  1.00800000E+00  1.00800000E+00  0.00000000E+00  1.60000000E+01
  1.00800000E+00  1.00800000E+00  0.00000000E+00  1.60000000E+01  1.00800000E+00
  1.00800000E+00  0.00000000E+00  1.60000000E+01  1.00800000E+00  1.00800000E+00
  0.00000000E+00  1.60000000E+01  1.00800000E+00  1.00800000E+00  0.00000000E+00
  1.60000000E+01  1.00800000E+00  1.00800000E+00  0.00000000E+00  1.60000000E+01
  1.00800000E+00  1.00800000E+00  0.00000000E+00  1.60000000E+01  1.00800000E+00
  1.00800000E+00  0.00000000E+00  1.60000000E+01  1.00800000E+00  1.00800000E+00
  0.00000000E+00  1.60000000E+01  1.00800000E+00  1.00800000E+00  0.00000000E+00
  1.60000000E+01  1.00800000E+00  1.00800000E+00  0.00000000E+00  1.60000000E+01
  1.00800000E+00  1.00800000E+00  0.00000000E+00  1.60000000E+01  1.00800000E+00
  1.00800000E+00  0.00000000E+00  1.60000000E+01  1.00800000E+00  1.00800000E+00
  0.00000000E+00  1.60000000E+01  1.00800000E+00  1.00800000E+00  0.00000000E+00
  1.60000000E+01  1.00800000E+00  1.00800000E+00  0.00000000E+00  1.60000000E+01
  1.00800000E+00  1.00800000E+00  0.00000000E+00  1.60000000E+01  1.00800000E+00
  1.00800000E+00  0.00000000E+00  1.60000000E+01  1.00800000E+00  1.00800000E+00
  0.00000000E+00  1.60000000E+01  1.00800000E+00  1.00800000E+00  0.00000000E+00
  1.60000000E+01  1.00800000E+00  1.00800000E+00  0.00000000E+00  1.60000000E+01
  1.00800000E+00  1.00800000E+00  0.00000000E+00  1.60000000E+01  1.00800000E+00
  1.00800000E+00  0.00000000E+00  1.60000000E+01  1.00800000E+00  1.00800000E+00
  0.00000000E+00  1.60000000E+01  1.00800000E+00  1.00800000E+00  0.00000000E+00
  1.60000000E+01  1.00800000E+00  1.00800000E+00  0.00000000E+00  1.60000000E+01
  1.00800000E+00  1.00800000E+00  0.00000000E+00  1.60000000E+01  1.00800000E+00
  1.00800000E+00  0.00000000E+00  1.60000000E+01  1.00800000E+00  1.00800000E+00
  0.00000000E+00  1.60000000E+01  1.00800000E+00  1.00800000E+00  0.00000000E+00
  1.60000000E+01  1.00800000E+00  1.00800000E+00  0.00000000E+00  1.60000000E+01
  1.00800000E+00  1.00800000E+00  0.00000000E+00  1.60000000E+01  1.00800000E+00
  1.00800000E+00  0.00000000E+00  1.60000000E+01  1.00800000E+00  1.00800000E+00
  0.00000000E+00  1.60000000E+01  1.00800000E+00  1.00800000E+00  0.00000000E+00
  1.60000000E+01  1.00800000E+00  1.00800000E+00  0.00000000E+00  1.60000000E+01
  1.00800000E+00  1.00800000E+00  0.00000000E+00  1.60000000E+01  1.00800000E+00
  1.00800000E+00  0.00000000E+00  1.60000000E+01  1.00800000E+00  1.00800000E+00
  0.00000000E+00  1.60000000E+01  1.00800000E+00  1.00800000E+00  0.00000000E+00
  1.60000000E+01  1.00800000E+00  1.00800000E+00  0.00000000E+00  1.60000000E+01
  1.00800000E+00  1.00800000E+00  0.00000000E+00  1.60000000E+01  1.00800000E+00
  1.00800000E+00  0.00000000E+00  1.60000000E+01  1.00800000E+00  1.00800000E+00
  0.00000000E+00  1.60000000E+01  1.00800000E+00  1.00800000E+00  0.00000000E+00
  1.60000000E+01  1.00800000E+00  1.00800000E+00  0.00000000E+00  1.60000000E+01
  1.00800000E+00  1.00800000E+00  0.00000000E+00  1.60000000E+01  1.00800000E+00
  1.00800000E+00  0.00000000E+00  1.60000000E+01  1.00800000E+00  1.00800000E+00
  0.00000000E+00  1.60000000E+01  1.00800000E+00  1.00800000E+00  0.00000000E+00
  1.60000000E+01  1.00800000E+00  1.00800000E+00  0.00000000E+00  1.60000000E+01
  1.00800000E+00  1.00800000E+00  0.00000000E+00  1.60000000E+01  1.00800000E+00
  1.00800000E+00  0.00000000E+00  1.60000000E+01  1.00800000E+00  1.00800000E+00
  0.00000000E+00  1.60000000E+01  1.00800000E+00  1.00800000E+00  0.00000000E+00
  1.60000000E+01  1.00800000E+00  1.00800000E+00  0.00000000E+00  1.60000000E+01
  1.00800000E+00  1.00800000E+00  0.00000000E+00  1.60000000E+01  1.00800000E+00
  1.00800000E+00  0.00000000E+00  1.60000000E+01  1.00800000E+00  1.00800000E+00
  0.00000000E+00  1.60000000E+01  1.00800000E+00  1.00800000E+00  0.00000000E+00
  1.60000000E+01  1.00800000E+00  1.00800000E+00  0.00000000E+00  1.60000000E+01
  1.00800000E+00  1.00800000E+00  0.00000000E+00  1.60000000E+01  1.00800000E+00
  1.00800000E+00  0.00000000E+00  1.60000000E+01  1.00800000E+00  1.00800000E+00
  0.00000000E+00  1.60000000E+01  1.00800000E+00  1.00800000E+00  0.00000000E+00
  1.60000000E+01  1.00800000E+00  1.00800000E+00  0.00000000E+00  1.60000000E+01
  1.00800000E+00  1.00800000E+00  0.00000000E+00  1.60000000E+01  1.00800000E+00
  1.00800000E+00  0.00000000E+00  1.60000000E+01  1.00800000E+00  1.00800000E+00
  0.00000000E+00  1.60000000E+01  1.00800000E+00  1.00800000E+00  0.00000000E+00
  1.60000000E+01  1.00800000E+00  1.00800000E+00  0.00000000E+00  1.60000000E+01
  1.00800000E+00  1.00800000E+00  0.00000000E+00  1.60000000E+01  1.00800000E+00
  1.00800000E+00  0.00000000E+00  1.60000000E+01  1.00800000E+00  1.00800000E+00
  0.00000000E+00  1.60000000E+01  1.00800000E+00  1.00800000E+00  0.00000000E+00
  1.60000000E+01  1.00800000E+00  1.00800000E+00  0.00000000E+00  1.60000000E+01
  1.00800000E+00  1.00800000E+00  0.00000000E+00  1.60000000E+01  1.00800000E+00
  1.00800000E+00  0.00000000E+00  1.60000000E+01  1.00800000E+00  1.00800000E+00
  0.00000000E+00  1.60000000E+01  1.00800000E+00  1.00800000E+00  0.00000000E+00
  1.60000000E+01  1.00800000E+00  1.00800000E+00  0.00000000E+00  1.60000000E+01
  1.00800000E+00  1.00800000E+00  0.00000000E+00  1.60000000E+01  1.00800000E+00
  1.00800000E+00  0.00000000E+00  1.60000000E+01  1.00800000E+00  1.00800000E+00
  0.00000000E+00  1.60000000E+01  1.00800000E+00  1.00800000E+00  0.00000000E+00
  1.60000000E+01  1.00800000E+00  1.00800000E+00  0.00000000E+00  1.60000000E+01
  1.00800000E+00  1.00800000E+00  0.00000000E+00  1.60000000E+01  1.00800000E+00
  1.00800000E+00  0.00000000E+00  1.60000000E+01  1.00800000E+00  1.00800000E+00
  0.00000000E+00  1.60000000E+01  1.00800000E+00  1.00800000E+00  0.00000000E+00
  1.60000000E+01  1.00800000E+00  1.00800000E+00  0.00000000E+00  1.60000000E+01
  1.00800000E+00  1.00800000E+00  0.00000000E+00  1.60000000E+01  1.00800000E+00
  1.00800000E+00  0.00000000E+00  1.60000000E+01  1.00800000E+00  1.00800000E+00
  0.00000000E+00  1.60000000E+01  1.00800000E+00  1.00800000E+00  0.00000000E+00
  1.60000000E+01  1.00800000E+00  1.00800000E+00  0.00000000E+00  1.60000000E+01
  1.00800000E+00  1.00800000E+00  0.00000000E+00  1.60000000E+01  1.00800000E+00
  1.00800000E+00  0.00000000E+00  1.60000000E+01  1.00800000E+00  1.00800000E+00
  0.00000000E+00  1.60000000E+01  1.00800000E+00  1.00800000E+00  0.00000000E+00
  1.60000000E+01  1.00800000E+00  1.00800000E+00  0.00000000E+00  1.60000000E+01
  1.00800000E+00  1.00800000E+00  0.00000000E+00  1.60000000E+01  1.00800000E+00
  1.00800000E+00  0.00000000E+00  1.60000000E+01  1.00800000E+00  1.00800000E+00
  0.00000000E+00  1.60000000E+01  1.00800000E+00  1.00800000E+00  0.00000000E+00
  1.60000000E+01  1.00800000E+00  1.00800000E+00  0.00000000E+00  1.60000000E+01
  1.00800000E+00  1.00800000E+00  0.00000000E+00  1.60000000E+01  1.00800000E+00
  1.00800000E+00  0.00000000E+00  1.60000000E+01  1.00800000E+00  1.00800000E+00
  0.00000000E+00  1.60000000E+01  1.00800000E+00  1.00800000E+00  0.00000000E+00
  1.60000000E+01  1.00800000E+00  1.00800000E+00  0.00000000E+00  1.60000000E+01
  1.00800000E+00  1.00800000E+00  0.00000000E+00  1.60000000E+01  1.00800000E+00
  1.00800000E+00  0.00000000E+00  1.60000000E+01  1.00800000E+00  1.00800000E+00
  0.00000000E+00  1.60000000E+01  1.00800000E+00  1.00800000E+00  0.00000000E+00
  1.60000000E+01  1.00800000E+00  1.00800000E+00  0.00000000E+00  1.60000000E+01
  1.00800000E+00  1.00800000E+00  0.00000000E+00  1.60000000E+01  1.00800000E+00
  1.00800000E+00  0.00000000E+00  1.60000000E+01  1.00800000E+00  1.00800000E+00
  0.00000000E+00  1.60000000E+01  1.00800000E+00  1.00800000E+00  0.00000000E+00
  1.60000000E+01  1.00800000E+00  1.00800000E+00  0.00000000E+00  1.60000000E+01
  1.00800000E+00  1.00800000E+00  0.00000000E+00  1.60000000E+01  1.00800000E+00
  1.00800000E+00  0.00000000E+00  1.60000000E+01  1.00800000E+00  1.00800000E+00
  0.00000000E+00  1.60000000E+01  1.00800000E+00  1.00800000E+00  0.00000000E+00
  1.60000000E+01  1.00800000E+00  1.00800000E+00  0.00000000E+00  1.60000000E+01
  1.00800000E+00  1.00800000E+00  0.00000000E+00  1.60000000E+01  1.00800000E+00
  1.00800000E+00  0.00000000E+00  1.60000000E+01  1.00800000E+00  1.00800000E+00
  0.00000000E+00  1.60000000E+01  1.00800000E+00  1.00800000E+00  0.00000000E+00
  1.60000000E+01  1.00800000E+00  1.00800000E+00  0.00000000E+00  1.60000000E+01
  1.00800000E+00  1.00800000E+00  0.00000000E+00  1.60000000E+01  1.00800000E+00
  1.00800000E+00  0.00000000E+00  1.60000000E+01  1.00800000E+00  1.00800000E+00
  0.00000000E+00  1.60000000E+01  1.00800000E+00  1.00800000E+00  0.00000000E+00
  1.60000000E+01  1.00800000E+00  1.00800000E+00  0.00000000E+00  1.60000000E+01
  1.00800000E+00  1.00800000E+00  0.00000000E+00  1.60000000E+01  1.00800000E+00
  1.00800000E+00  0.00000000E+00  1.60000000E+01  1.00800000E+00  1.00800000E+00
  0.00000000E+00  1.60000000E+01  1.00800000E+00  1.00800000E+00  0.00000000E+00
  1.60000000E+01  1.00800000E+00  1.00800000E+00  0.00000000E+00  1.60000000E+01
  1.00800000E+00  1.00800000E+00  0.00000000E+00  1.60000000E+01  1.00800000E+00
  1.00800000E+00  0.00000000E+00  1.60000000E+01  1.00800000E+00  1.00800000E+00
  0.00000000E+00  1.60000000E+01  1.00800000E+00  1.00800000E+00  0.00000000E+00
  1.60000000E+01  1.00800000E+00  1.00800000E+00  0.00000000E+00  1.60000000E+01
  1.00800000E+00  1.00800000E+00  0.00000000E+00  1.60000000E+01  1.00800000E+00
  1.00800000E+00  0.00000000E+00  1.60000000E+01  1.00800000E+00  1.00800000E+00
  0.00000000E+00  1.60000000E+01  1.00800000E+00  1.00800000E+00  0.00000000E+00
  1.60000000E+01  1.00800000E+00  1.00800000E+00  0.00000000E+00  1.60000000E+01
  1.00800000E+00  1.00800000E+00  0.00000000E+00  1.60000000E+01  1.00800000E+00
  1.00800000E+00  0.00000000E+00  1.60000000E+01  1.00800000E+00  1.00800000E+00
  0.00000000E+00  1.60000000E+01  1.00800000E+00  1.00800000E+00  0.00000000E+00
  1.60000000E+01  1.00800000E+00  1.00800000E+00  0.00000000E+00  1.60000000E+01
  1.00800000E+00  1.00800000E+00  0.00000000E+00  1.60000000E+01  1.00800000E+00
  1.00800000E+00  0.00000000E+00  1.60000000E+01  1.00800000E+00  1.00800000E+00
  0.00000000E+00  1.60000000E+01  1.00800000E+00  1.00800000E+00  0.00000000E+00
  1.60000000E+01  1.00800000E+00  1.00800000E+00  0.00000000E+00  1.60000000E+01
  1.00800000E+00  1.00800000E+00  0.00000000E+00  1.60000000E+01  1.00800000E+00
  1.00800000E+00  0.00000000E+00  1.60000000E+01  1.00800000E+00  1.00800000E+00
  0.00000000E+00  1.60000000E+01  1.00800000E+00  1.00800000E+00  0.00000000E+00
  1.60000000E+01  1.00800000E+00  1.00800000E+00  0.00000000E+00  1.60000000E+01
  1.00800000E+00  1.00800000E+00  0.00000000E+00  1.60000000E+01  1.00800000E+00
  1.00800000E+00  0.00000000E+00  1.60000000E+01  1.00800000E+00  1.00800000E+00
  0.00000000E+00  1.60000000E+01  1.00800000E+00  1.00800000E+00  0.00000000E+00
  1.60000000E+01  1.00800000E+00  1.00800000E+00  0.00000000E+00  1.60000000E+01
  1.00800000E+00  1.00800000E+00  0.00000000E+00  1.60000000E+01  1.00800000E+00
  1.00800000E+00  0.00000000E+00  1.60000000E+01  1.00800000E+00  1.00800000E+00
  0.00000000E+00  1.60000000E+01  1.00800000E+00  1.00800000E+00  0.00000000E+00
  1.60000000E+01  1.00800000E+00  1.00800000E+00  0.00000000E+00  1.60000000E+01
  1.00800000E+00  1.00800000E+00  0.00000000E+00  1.60000000E+01  1.00800000E+00
  1.00800000E+00  0.00000000E+00  1.60000000E+01  1.00800000E+00  1.00800000E+00
  0.00000000E+00  1.60000000E+01  1.00800000E+00  1.00800000E+00  0.00000000E+00
  1.60000000E+01  1.00800000E+00  1.00800000E+00  0.00000000E+00  1.60000000E+01
  1.00800000E+00  1.00800000E+00  0.00000000E+00  1.60000000E+01  1.00800000E+00
  1.00800000E+00  0.00000000E+00  1.60000000E+01  1.00800000E+00  1.00800000E+00
  0.00000000E+00  1.60000000E+01  1.00800000E+00  1.00800000E+00  0.00000000E+00
  1.60000000E+01  1.00800000E+00  1.00800000E+00  0.00000000E+00  1.60000000E+01
  1.00800000E+00  1.00800000E+00  0.00000000E+00  1.60000000E+01  1.00800000E+00
  1.00800000E+00  0.00000000E+00  1.60000000E+01  1.00800000E+00  1.00800000E+00
  0.00000000E+00  1.60000000E+01  1.00800000E+00  1.00800000E+00  0.00000000E+00
  1.60000000E+01  1.00800000E+00  1.00800000E+00  0.00000000E+00  1.60000000E+01
  1.00800000E+00  1.00800000E+00  0.00000000E+00  1.60000000E+01  1.00800000E+00
  1.00800000E+00  0.00000000E+00  1.60000000E+01  1.00800000E+00  1.00800000E+00
  0.00000000E+00  1.60000000E+01  1.00800000E+00  1.00800000E+00  0.00000000E+00
  1.60000000E+01  1.00800000E+00  1.00800000E+00  0.00000000E+00  1.60000000E+01
  1.00800000E+00  1.00800000E+00  0.00000000E+00  1.60000000E+01  1.00800000E+00
  1.00800000E+00  0.00000000E+00  1.60000000E+01  1.00800000E+00  1.00800000E+00
  0.00000000E+00  1.60000000E+01  1.00800000E+00  1.00800000E+00  0.00000000E+00
  1.60000000E+01  1.00800000E+00  1.00800000E+00  0.00000000E+00  1.60000000E+01
  1.00800000E+00  1.00800000E+00  0.00000000E+00  1.60000000E+01  1.00800000E+00
  1.00800000E+00  0.00000000E+00  1.60000000E+01  1.00800000E+00  1.00800000E+00
  0.00000000E+00  1.60000000E+01  1.00800000E+00  1.00800000E+00  0.00000000E+00
  1.60000000E+01  1.00800000E+00  1.00800000E+00  0.00000000E+00  1.60000000E+01
  1.00800000E+00  1.00800000E+00  0.00000000E+00  1.60000000E+01  1.00800000E+00
  1.00800000E+00  0.00000000E+00  1.60000000E+01  1.00800000E+00  1.00800000E+00
  0.00000000E+00  1.60000000E+01  1.00800000E+00  1.00800000E+00  0.00000000E+00
  1.60000000E+01  1.00800000E+00  1.00800000E+00  0.00000000E+00  1.60000000E+01
  1.00800000E+00  1.00800000E+00  0.00000000E+00  1.60000000E+01  1.00800000E+00
  1.00800000E+00  0.00000000E+00  1.60000000E+01  1.00800000E+00  1.00800000E+00
  0.00000000E+00  1.60000000E+01  1.00800000E+00  1.00800000E+00  0.00000000E+00
  1.60000000E+01  1.00800000E+00  1.00800000E+00  0.00000000E+00  1.60000000E+01
  1.00800000E+00  1.00800000E+00  0.00000000E+00  1.60000000E+01  1.00800000E+00
  1.00800000E+00  0.00000000E+00  1.60000000E+01  1.00800000E+00  1.00800000E+00
  0.00000000E+00  1.60000000E+01  1.00800000E+00  1.00800000E+00  0.00000000E+00
  1.60000000E+01  1.00800000E+00  1.00800000E+00  0.00000000E+00  1.60000000E+01
  1.00800000E+00  1.00800000E+00  0.00000000E+00  1.60000000E+01  1.00800000E+00
  1.00800000E+00  0.00000000E+00  1.60000000E+01  1.00800000E+00  1.00800000E+00
  0.00000000E+00  1.60000000E+01  1.00800000E+00  1.00800000E+00  0.00000000E+00
  1.60000000E+01  1.00800000E+00  1.00800000E+00  0.00000000E+00  1.60000000E+01
  1.00800000E+00  1.00800000E+00  0.00000000E+00  1.60000000E+01  1.00800000E+00
  1.00800000E+00  0.00000000E+00  1.60000000E+01  1.00800000E+00  1.00800000E+00
  0.00000000E+00  1.60000000E+01  1.00800000E+00  1.00800000E+00  0.00000000E+00
  1.60000000E+01  1.00800000E+00  1.00800000E+00  0.00000000E+00  1.60000000E+01
  1.00800000E+00  1.00800000E+00  0.00000000E+00  1.60000000E+01  1.00800000E+00
  1.00800000E+00  0.00000000E+00  1.60000000E+01  1.00800000E+00  1.00800000E+00
  0.00000000E+00  1.60000000E+01  1.00800000E+00  1.00800000E+00  0.00000000E+00
  1.60000000E+01  1.00800000E+00  1.00800000E+00  0.00000000E+00  1.60000000E+01
  1.00800000E+00  1.00800000E+00  0.00000000E+00  1.60000000E+01  1.00800000E+00
  1.00800000E+00  0.00000000E+00  1.60000000E+01  1.00800000E+00  1.00800000E+00
  0.00000000E+00  1.60000000E+01  1.00800000E+00  1.00800000E+00  0.00000000E+00
  1.60000000E+01  1.00800000E+00  1.00800000E+00  0.00000000E+00  1.60000000E+01
  1.00800000E+00  1.00800000E+00  0.00000000E+00  1.60000000E+01  1.00800000E+00
  1.00800000E+00  0.00000000E+00  1.60000000E+01  1.00800000E+00  1.00800000E+00
  0.00000000E+00  1.60000000E+01  1.00800000E+00  1.00800000E+00  0.00000000E+00
  1.60000000E+01  1.00800000E+00  1.00800000E+00  0.00000000E+00  1.60000000E+01
  1.00800000E+00  1.00800000E+00  0.00000000E+00  1.60000000E+01  1.00800000E+00
  1.00800000E+00  0.00000000E+00  1.60000000E+01  1.00800000E+00  1.00800000E+00
  0.00000000E+00  1.60000000E+01  1.00800000E+00  1.00800000E+00  0.00000000E+00
  1.60000000E+01  1.00800000E+00  1.00800000E+00  0.00000000E+00  1.60000000E+01
  1.00800000E+00  1.00800000E+00  0.00000000E+00  1.60000000E+01  1.00800000E+00
  1.00800000E+00  0.00000000E+00  1.60000000E+01  1.00800000E+00  1.00800000E+00
  0.00000000E+00  1.60000000E+01  1.00800000E+00  1.00800000E+00  0.00000000E+00
  1.60000000E+01  1.00800000E+00  1.00800000E+00  0.00000000E+00  1.60000000E+01
  1.00800000E+00  1.00800000E+00  0.00000000E+00  1.60000000E+01  1.00800000E+00
  1.00800000E+00  0.00000000E+00  1.60000000E+01  1.00800000E+00  1.00800000E+00
  0.00000000E+00  1.60000000E+01  1.00800000E+00  1.00800000E+00  0.00000000E+00
  1.60000000E+01  1.00800000E+00  1.00800000E+00  0.00000000E+00  1.60000000E+01
  1.00800000E+00  1.00800000E+00  0.00000000E+00  1.60000000E+01  1.00800000E+00
  1.00800000E+00  0.00000000E+00  1.60000000E+01  1.00800000E+00  1.00800000E+00
  0.00000000E+00  1.60000000E+01  1.00800000E+00  1.00800000E+00  0.00000000E+00
  1.60000000E+01  1.00800000E+00  1.00800000E+00  0.00000000E+00  1.60000000E+01
  1.00800000E+00  1.00800000E+00  0.00000000E+00  1.60000000E+01  1.00800000E+00
  1.00800000E+00  0.00000000E+00  1.60000000E+01  1.00800000E+00  1.00800000E+00
  0.00000000E+00  1.60000000E+01  1.00800000E+00  1.00800000E+00  0.00000000E+00
  1.60000000E+01  1.00800000E+00  1.00800000E+00  0.00000000E+00  1.60000000E+01
  1.00800000E+00  1.00800000E+00  0.00000000E+00  1.60000000E+01  1.00800000E+00
  1.00800000E+00  0.00000000E+00  1.60000000E+01  1.00800000E+00  1.00800000E+00
  0.00000000E+00  1.60000000E+01  1.00800000E+00  1.00800000E+00  0.00000000E+00
  1.60000000E+01  1.00800000E+00  1.00800000E+00  0.00000000E+00  1.60000000E+01
  1.00800000E+00  1.00800000E+00  0.00000000E+00  1.60000000E+01  1.00800000E+00
  1.00800000E+00  0.00000000E+00  1.60000000E+01  1.00800000E+00  1.00800000E+00
  0.00000000E+00  1.60000000E+01  1.00800000E+00  1.00800000E+00  0.00000000E+00
  1.60000000E+01  1.00800000E+00  1.00800000E+00  0.00000000E+00  1.60000000E+01
  1.00800000E+00  1.00800000E+00  0.00000000E+00  1.60000000E+01  1.00800000E+00
  1.00800000E+00  0.00000000E+00  1.60000000E+01  1.00800000E+00  1.00800000E+00
  0.00000000E+00  1.60000000E+01  1.00800000E+00  1.00800000E+00  0.00000000E+00
  1.60000000E+01  1.00800000E+00  1.00800000E+00  0.00000000E+00  1.60000000E+01
  1.00800000E+00  1.00800000E+00  0.00000000E+00  1.60000000E+01  1.00800000E+00
  1.00800000E+00  0.00000000E+00  1.60000000E+01  1.00800000E+00  1.00800000E+00
  0.00000000E+00  1.60000000E+01  1.00800000E+00  1.00800000E+00  0.00000000E+00
  1.60000000E+01  1.00800000E+00  1.00800000E+00  0.00000000E+00  1.60000000E+01
  1.00800000E+00  1.00800000E+00  0.00000000E+00  1.60000000E+01  1.00800000E+00
  1.00800000E+00  0.00000000E+00  1.60000000E+01  1.00800000E+00  1.00800000E+00
  0.00000000E+00  1.60000000E+01  1.00800000E+00  1.00800000E+00  0.00000000E+00
  1.60000000E+01  1.00800000E+00  1.00800000E+00  0.00000000E+00  1.60000000E+01
  1.00800000E+00  1.00800000E+00  0.00000000E+00  1.60000000E+01  1.00800000E+00
  1.00800000E+00  0.00000000E+00  1.60000000E+01  1.00800000E+00  1.00800000E+00
  0.00000000E+00  1.60000000E+01  1.00800000E+00  1.00800000E+00  0.00000000E+00
  1.60000000E+01  1.00800000E+00  1.00800000E+00  0.00000000E+00  1.60000000E+01
  1.00800000E+00  1.00800000E+00  0.00000000E+00  1.60000000E+01  1.00800000E+00
  1.00800000E+00  0.00000000E+00  1.60000000E+01  1.00800000E+00  1.00800000E+00
  0.00000000E+00  1.60000000E+01  1.00800000E+00  1.00800000E+00  0.00000000E+00
  1.60000000E+01  1.00800000E+00  1.00800000E+00  0.00000000E+00  1.60000000E+01
  1.00800000E+00  1.00800000E+00  0.00000000E+00  1.60000000E+01  1.00800000E+00
  1.00800000E+00  0.00000000E+00  1.60000000E+01  1.00800000E+00  1.00800000E+00
  0.00000000E+00  1.60000000E+01  1.00800000E+00  1.00800000E+00  0.00000000E+00
  1.60000000E+01  1.00800000E+00  1.00800000E+00  0.00000000E+00  1.60000000E+01
  1.00800000E+00  1.00800000E+00  0.00000000E+00  1.60000000E+01  1.00800000E+00
  1.00800000E+00  0.00000000E+00  1.60000000E+01  1.00800000E+00  1.00800000E+00
  0.00000000E+00  1.60000000E+01  1.00800000E+00  1.00800000E+00  0.00000000E+00
  1.60000000E+01  1.00800000E+00  1.00800000E+00  0.00000000E+00  1.60000000E+01
  1.00800000E+00  1.00800000E+00  0.00000000E+00  1.60000000E+01  1.00800000E+00
  1.00800000E+00  0.00000000E+00  1.60000000E+01  1.00800000E+00  1.00800000E+00
  0.00000000E+00  1.60000000E+01  1.00800000E+00  1.00800000E+00  0.00000000E+00
  1.60000000E+01  1.00800000E+00  1.00800000E+00  0.00000000E+00  1.60000000E+01
  1.00800000E+00  1.00800000E+00  0.00000000E+00  1.60000000E+01  1.00800000E+00
  1.00800000E+00  0.00000000E+00  1.60000000E+01  1.00800000E+00  1.00800000E+00
  0.00000000E+00  1.60000000E+01  1.00800000E+00  1.00800000E+00  0.00000000E+00
  1.60000000E+01  1.00800000E+00  1.00800000E+00  0.00000000E+00  1.60000000E+01
  1.00800000E+00  1.00800000E+00  0.00000000E+00  1.60000000E+01  1.00800000E+00
  1.00800000E+00  0.00000000E+00  1.60000000E+01  1.00800000E+00  1.00800000E+00
  0.00000000E+00  1.60000000E+01  1.00800000E+00  1.00800000E+00  0.00000000E+00
  1.60000000E+01  1.00800000E+00  1.00800000E+00  0.00000000E+00  1.60000000E+01
  1.00800000E+00  1.00800000E+00  0.00000000E+00  1.60000000E+01  1.00800000E+00
  1.00800000E+00  0.00000000E+00  1.60000000E+01  1.00800000E+00  1.00800000E+00
  0.00000000E+00  1.60000000E+01  1.00800000E+00  1.00800000E+00  0.00000000E+00
  1.60000000E+01  1.00800000E+00  1.00800000E+00  0.00000000E+00  1.60000000E+01
  1.00800000E+00  1.00800000E+00  0.00000000E+00  1.60000000E+01  1.00800000E+00
  1.00800000E+00  0.00000000E+00  1.60000000E+01  1.00800000E+00  1.00800000E+00
  0.00000000E+00  1.60000000E+01  1.00800000E+00  1.00800000E+00  0.00000000E+00
  1.60000000E+01  1.00800000E+00  1.00800000E+00  0.00000000E+00  1.60000000E+01
  1.00800000E+00  1.00800000E+00  0.00000000E+00  1.60000000E+01  1.00800000E+00
  1.00800000E+00  0.00000000E+00  1.60000000E+01  1.00800000E+00  1.00800000E+00
  0.00000000E+00  1.60000000E+01  1.00800000E+00  1.00800000E+00  0.00000000E+00
  1.60000000E+01  1.00800000E+00  1.00800000E+00  0.00000000E+00  1.60000000E+01
  1.00800000E+00  1.00800000E+00  0.00000000E+00  1.60000000E+01  1.00800000E+00
  1.00800000E+00  0.00000000E+00  1.60000000E+01  1.00800000E+00  1.00800000E+00
  0.00000000E+00  1.60000000E+01  1.00800000E+00  1.00800000E+00  0.00000000E+00
  1.60000000E+01  1.00800000E+00  1.00800000E+00  0.00000000E+00  1.60000000E+01
  1.00800000E+00  1.00800000E+00  0.00000000E+00  1.60000000E+01  1.00800000E+00
  1.00800000E+00  0.00000000E+00  1.60000000E+01  1.00800000E+00  1.00800000E+00
  0.00000000E+00  1.60000000E+01  1.00800000E+00  1.00800000E+00  0.00000000E+00
  1.60000000E+01  1.00800000E+00  1.00800000E+00  0.00000000E+00  1.60000000E+01
  1.00800000E+00  1.00800000E+00  0.00000000E+00  1.60000000E+01  1.00800000E+00
  1.00800000E+00  0.00000000E+00  1.60000000E+01  1.00800000E+00  1.00800000E+00
  0.00000000E+00  1.60000000E+01  1.00800000E+00  1.00800000E+00  0.00000000E+00
  1.60000000E+01  1.00800000E+00  1.00800000E+00  0.00000000E+00  1.60000000E+01
  1.00800000E+00  1.00800000E+00  0.00000000E+00  1.60000000E+01  1.00800000E+00
  1.00800000E+00  0.00000000E+00  1.60000000E+01  1.00800000E+00  1.00800000E+00
  0.00000000E+00  1.60000000E+01  1.00800000E+00  1.00800000E+00  0.00000000E+00
  1.60000000E+01  1.00800000E+00  1.00800000E+00  0.00000000E+00  1.60000000E+01
  1.00800000E+00  1.00800000E+00  0.00000000E+00  1.60000000E+01  1.00800000E+00
  1.00800000E+00  0.00000000E+00  1.60000000E+01  1.00800000E+00  1.00800000E+00
  0.00000000E+00  1.60000000E+01  1.00800000E+00  1.00800000E+00  0.00000000E+00
  1.60000000E+01  1.00800000E+00  1.00800000E+00  0.00000000E+00  1.60000000E+01
  1.00800000E+00  1.00800000E+00  0.00000000E+00  1.60000000E+01  1.00800000E+00
  1.00800000E+00  0.00000000E+00  1.60000000E+01  1.00800000E+00  1.00800000E+00
  0.00000000E+00  1.60000000E+01  1.00800000E+00  1.00800000E+00  0.00000000E+00
  1.60000000E+01  1.00800000E+00  1.00800000E+00  0.00000000E+00  1.60000000E+01
  1.00800000E+00  1.00800000E+00  0.00000000E+00  1.60000000E+01  1.00800000E+00
  1.00800000E+00  0.00000000E+00  1.60000000E+01  1.00800000E+00  1.00800000E+00
  0.00000000E+00  1.60000000E+01  1.00800000E+00  1.00800000E+00  0.00000000E+00
  1.60000000E+01  1.00800000E+00  1.00800000E+00  0.00000000E+00  1.60000000E+01
  1.00800000E+00  1.00800000E+00  0.00000000E+00  1.60000000E+01  1.00800000E+00
  1.00800000E+00  0.00000000E+00  1.60000000E+01  1.00800000E+00  1.00800000E+00
  0.00000000E+00  1.60000000E+01  1.00800000E+00  1.00800000E+00  0.00000000E+00
  1.60000000E+01  1.00800000E+00  1.00800000E+00  0.00000000E+00  1.60000000E+01
  1.00800000E+00  1.00800000E+00  0.00000000E+00  1.60000000E+01  1.00800000E+00
  1.00800000E+00  0.00000000E+00  1.60000000E+01  1.00800000E+00  1.00800000E+00
  0.00000000E+00  1.60000000E+01  1.00800000E+00  1.00800000E+00  0.00000000E+00
  1.60000000E+01  1.00800000E+00  1.00800000E+00  0.00000000E+00  1.60000000E+01
  1.00800000E+00  1.00800000E+00  0.00000000E+00  1.60000000E+01  1.00800000E+00
  1.00800000E+00  0.00000000E+00  1.60000000E+01  1.00800000E+00  1.00800000E+00
  0.00000000E+00  1.60000000E+01  1.00800000E+00  1.00800000E+00  0.00000000E+00
  1.60000000E+01  1.00800000E+00  1.00800000E+00  0.00000000E+00  1.60000000E+01
  1.00800000E+00  1.00800000E+00  0.00000000E+00  1.60000000E+01  1.00800000E+00
  1.00800000E+00  0.00000000E+00  1.60000000E+01  1.00800000E+00  1.00800000E+00
  0.00000000E+00  1.60000000E+01  1.00800000E+00  1.00800000E+00  0.00000000E+00
  1.60000000E+01  1.00800000E+00  1.00800000E+00  0.00000000E+00  1.60000000E+01
  1.00800000E+00  1.00800000E+00  0.00000000E+00  1.60000000E+01  1.00800000E+00
  1.00800000E+00  0.00000000E+00  1.60000000E+01  1.00800000E+00  1.00800000E+00
  0.00000000E+00  1.60000000E+01  1.00800000E+00  1.00800000E+00  0.00000000E+00
  1.60000000E+01  1.00800000E+00  1.00800000E+00  0.00000000E+00  1.60000000E+01
  1.00800000E+00  1.00800000E+00  0.00000000E+00  1.60000000E+01  1.00800000E+00
  1.00800000E+00  0.00000000E+00  1.60000000E+01  1.00800000E+00  1.00800000E+00
  0.00000000E+00  1.60000000E+01  1.00800000E+00  1.00800000E+00  0.00000000E+00
  1.60000000E+01  1.00800000E+00  1.00800000E+00  0.00000000E+00  1.60000000E+01
  1.00800000E+00  1.00800000E+00  0.00000000E+00  1.60000000E+01  1.00800000E+00
  1.00800000E+00  0.00000000E+00  1.60000000E+01  1.00800000E+00  1.00800000E+00
  0.00000000E+00  1.60000000E+01  1.00800000E+00  1.00800000E+00  0.00000000E+00
  1.60000000E+01  1.00800000E+00  1.00800000E+00  0.00000000E+00  1.60000000E+01
  1.00800000E+00  1.00800000E+00  0.00000000E+00  1.60000000E+01  1.00800000E+00
  1.00800000E+00  0.00000000E+00  1.60000000E+01  1.00800000E+00  1.00800000E+00
  0.00000000E+00  1.60000000E+01  1.00800000E+00  1.00800000E+00  0.00000000E+00
  1.60000000E+01  1.00800000E+00  1.00800000E+00  0.00000000E+00  1.60000000E+01
  1.00800000E+00  1.00800000E+00  0.00000000E+00  1.60000000E+01  1.00800000E+00
  1.00800000E+00  0.00000000E+00  1.60000000E+01  1.00800000E+00  1.00800000E+00
  0.00000000E+00  1.60000000E+01  1.00800000E+00  1.00800000E+00  0.00000000E+00
  1.60000000E+01  1.00800000E+00  1.00800000E+00  0.00000000E+00  1.60000000E+01
  1.00800000E+00  1.00800000E+00  0.00000000E+00  1.60000000E+01  1.00800000E+00
  1.00800000E+00  0.00000000E+00  1.60000000E+01  1.00800000E+00  1.00800000E+00
  0.00000000E+00  1.60000000E+01  1.00800000E+00  1.00800000E+00  0.00000000E+00
  1.60000000E+01  1.00800000E+00  1.00800000E+00  0.00000000E+00  1.60000000E+01
  1.00800000E+00  1.00800000E+00  0.00000000E+00  1.60000000E+01  1.00800000E+00
  1.00800000E+00  0.00000000E+00  1.60000000E+01  1.00800000E+00  1.00800000E+00
  0.00000000E+00  1.60000000E+01  1.00800000E+00  1.00800000E+00  0.00000000E+00
  1.60000000E+01  1.00800000E+00  1.00800000E+00  0.00000000E+00  1.60000000E+01
  1.00800000E+00  1.00800000E+00  0.00000000E+00  1.60000000E+01  1.00800000E+00
  1.00800000E+00  0.00000000E+00  1.60000000E+01  1.00800000E+00  1.00800000E+00
  0.00000000E+00  1.60000000E+01  1.00800000E+00  1.00800000E+00  0.00000000E+00
  1.60000000E+01  1.00800000E+00  1.00800000E+00  0.00000000E+00  1.60000000E+01
  1.00800000E+00  1.00800000E+00  0.00000000E+00  1.60000000E+01  1.00800000E+00
  1.00800000E+00  0.00000000E+00  1.60000000E+01  1.00800000E+00  1.00800000E+00
  0.00000000E+00  1.60000000E+01  1.00800000E+00  1.00800000E+00  0.00000000E+00
  1.60000000E+01  1.00800000E+00  1.00800000E+00  0.00000000E+00  1.60000000E+01
  1.00800000E+00  1.00800000E+00  0.00000000E+00  1.60000000E+01  1.00800000E+00
  1.00800000E+00  0.00000000E+00  1.60000000E+01  1.00800000E+00  1.00800000E+00
  0.00000000E+00  1.60000000E+01  1.00800000E+00  1.00800000E+00  0.00000000E+00
  1.60000000E+01  1.00800000E+00  1.00800000E+00  0.00000000E+00  1.60000000E+01
  1.00800000E+00  1.00800000E+00  0.00000000E+00  1.60000000E+01  1.00800000E+00
  1.00800000E+00  0.00000000E+00  1.60000000E+01  1.00800000E+00  1.00800000E+00
  0.00000000E+00  1.60000000E+01  1.00800000E+00  1.00800000E+00  0.00000000E+00
  1.60000000E+01  1.00800000E+00  1.00800000E+00  0.00000000E+00  1.60000000E+01
  1.00800000E+00  1.00800000E+00  0.00000000E+00  1.60000000E+01  1.00800000E+00
  1.00800000E+00  0.00000000E+00  1.60000000E+01  1.00800000E+00  1.00800000E+00
  0.00000000E+00  1.60000000E+01  1.00800000E+00  1.00800000E+00  0.00000000E+00
  1.60000000E+01  1.00800000E+00  1.00800000E+00  0.00000000E+00  1.60000000E+01
  1.00800000E+00  1.00800000E+00  0.00000000E+00  1.60000000E+01  1.00800000E+00
  1.00800000E+00  0.00000000E+00  1.60000000E+01  1.00800000E+00  1.00800000E+00
  0.00000000E+00  1.60000000E+01  1.00800000E+00  1.00800000E+00  0.00000000E+00
  1.60000000E+01  1.00800000E+00  1.00800000E+00  0.00000000E+00  1.60000000E+01
  1.00800000E+00  1.00800000E+00  0.00000000E+00  1.60000000E+01  1.00800000E+00
  1.00800000E+00  0.00000000E+00  1.60000000E+01  1.00800000E+00  1.00800000E+00
  0.00000000E+00  1.60000000E+01  1.00800000E+00  1.00800000E+00  0.00000000E+00
  1.60000000E+01  1.00800000E+00  1.00800000E+00  0.00000000E+00  1.60000000E+01
  1.00800000E+00  1.00800000E+00  0.00000000E+00  1.60000000E+01  1.00800000E+00
  1.00800000E+00  0.00000000E+00  1.60000000E+01  1.00800000E+00  1.00800000E+00
  0.00000000E+00  1.60000000E+01  1.00800000E+00  1.00800000E+00  0.00000000E+00
  1.60000000E+01  1.00800000E+00  1.00800000E+00  0.00000000E+00  1.60000000E+01
  1.00800000E+00  1.00800000E+00  0.00000000E+00  1.60000000E+01  1.00800000E+00
  1.00800000E+00  0.00000000E+00  1.60000000E+01  1.00800000E+00  1.00800000E+00
  0.00000000E+00  1.60000000E+01  1.00800000E+00  1.00800000E+00  0.00000000E+00
  1.60000000E+01  1.00800000E+00  1.00800000E+00  0.00000000E+00  1.60000000E+01
  1.00800000E+00  1.00800000E+00  0.00000000E+00  1.60000000E+01  1.00800000E+00
  1.00800000E+00  0.00000000E+00  1.60000000E+01  1.00800000E+00  1.00800000E+00
  0.00000000E+00  1.60000000E+01  1.00800000E+00  1.00800000E+00  0.00000000E+00
  1.60000000E+01  1.00800000E+00  1.00800000E+00  0.00000000E+00  1.60000000E+01
  1.00800000E+00  1.00800000E+00  0.00000000E+00  1.60000000E+01  1.00800000E+00
  1.00800000E+00  0.00000000E+00  1.60000000E+01  1.00800000E+00  1.00800000E+00
  0.00000000E+00  1.60000000E+01  1.00800000E+00  1.00800000E+00  0.00000000E+00
  1.60000000E+01  1.00800000E+00  1.00800000E+00  0.00000000E+00  1.60000000E+01
  1.00800000E+00  1.00800000E+00  0.00000000E+00  1.60000000E+01  1.00800000E+00
  1.00800000E+00  0.00000000E+00  1.60000000E+01  1.00800000E+00  1.00800000E+00
  0.00000000E+00  1.60000000E+01  1.00800000E+00  1.00800000E+00  0.00000000E+00
  1.60000000E+01  1.00800000E+00  1.00800000E+00  0.00000000E+00  1.60000000E+01
  1.00800000E+00  1.00800000E+00  0.00000000E+00  1.60000000E+01  1.00800000E+00
  1.00800000E+00  0.00000000E+00  1.60000000E+01  1.00800000E+00  1.00800000E+00
  0.00000000E+00  1.60000000E+01  1.00800000E+00  1.00800000E+00  0.00000000E+00
  1.60000000E+01  1.00800000E+00  1.00800000E+00  0.00000000E+00  1.60000000E+01
  1.00800000E+00  1.00800000E+00  0.00000000E+00  1.60000000E+01  1.00800000E+00
  1.00800000E+00  0.00000000E+00  1.60000000E+01  1.00800000E+00  1.00800000E+00
  0.00000000E+00  1.60000000E+01  1.00800000E+00  1.00800000E+00  0.00000000E+00
  1.60000000E+01  1.00800000E+00  1.00800000E+00  0.00000000E+00  1.60000000E+01
  1.00800000E+00  1.00800000E+00  0.00000000E+00  1.60000000E+01  1.00800000E+00
  1.00800000E+00  0.00000000E+00  1.60000000E+01  1.00800000E+00  1.00800000E+00
  0.00000000E+00  1.60000000E+01  1.00800000E+00  1.00800000E+00  0.00000000E+00
  1.60000000E+01  1.00800000E+00  1.00800000E+00  0.00000000E+00  1.60000000E+01
  1.00800000E+00  1.00800000E+00  0.00000000E+00  1.60000000E+01  1.00800000E+00
  1.00800000E+00  0.00000000E+00  1.60000000E+01  1.00800000E+00  1.00800000E+00
  0.00000000E+00  1.60000000E+01  1.00800000E+00  1.00800000E+00  0.00000000E+00
  1.60000000E+01  1.00800000E+00  1.00800000E+00  0.00000000E+00  1.60000000E+01
  1.00800000E+00  1.00800000E+00  0.00000000E+00  1.60000000E+01  1.00800000E+00
  1.00800000E+00  0.00000000E+00  1.60000000E+01  1.00800000E+00  1.00800000E+00
  0.00000000E+00  1.60000000E+01  1.00800000E+00  1.00800000E+00  0.00000000E+00
  1.60000000E+01  1.00800000E+00  1.00800000E+00  0.00000000E+00  1.60000000E+01
  1.00800000E+00  1.00800000E+00  0.00000000E+00  1.60000000E+01  1.00800000E+00
  1.00800000E+00  0.00000000E+00  1.60000000E+01  1.00800000E+00  1.00800000E+00
  0.00000000E+00  1.60000000E+01  1.00800000E+00  1.00800000E+00  0.00000000E+00
  1.60000000E+01  1.00800000E+00  1.00800000E+00  0.00000000E+00  1.60000000E+01
  1.00800000E+00  1.00800000E+00  0.00000000E+00  1.60000000E+01  1.00800000E+00
  1.00800000E+00  0.00000000E+00  1.60000000E+01  1.00800000E+00  1.00800000E+00
  0.00000000E+00  1.60000000E+01  1.00800000E+00  1.00800000E+00  0.00000000E+00
  1.60000000E+01  1.00800000E+00  1.00800000E+00  0.00000000E+00  1.60000000E+01
  1.00800000E+00  1.00800000E+00  0.00000000E+00  1.60000000E+01  1.00800000E+00
  1.00800000E+00  0.00000000E+00  1.60000000E+01  1.00800000E+00  1.00800000E+00
  0.00000000E+00  1.60000000E+01  1.00800000E+00  1.00800000E+00  0.00000000E+00
  1.60000000E+01  1.00800000E+00  1.00800000E+00  0.00000000E+00  1.60000000E+01
  1.00800000E+00  1.00800000E+00  0.00000000E+00  1.60000000E+01  1.00800000E+00
  1.00800000E+00  0.00000000E+00  1.60000000E+01  1.00800000E+00  1.00800000E+00
  0.00000000E+00  1.60000000E+01  1.00800000E+00  1.00800000E+00  0.00000000E+00
  1.60000000E+01  1.00800000E+00  1.00800000E+00  0.00000000E+00  1.60000000E+01
  1.00800000E+00  1.00800000E+00  0.00000000E+00  1.60000000E+01  1.00800000E+00
  1.00800000E+00  0.00000000E+00  1.60000000E+01  1.00800000E+00  1.00800000E+00
  0.00000000E+00  1.60000000E+01  1.00800000E+00  1.00800000E+00  0.00000000E+00
  1.60000000E+01  1.00800000E+00  1.00800000E+00  0.00000000E+00  1.60000000E+01
  1.00800000E+00  1.00800000E+00  0.00000000E+00  1.60000000E+01  1.00800000E+00
  1.00800000E+00  0.00000000E+00  1.60000000E+01  1.00800000E+00  1.00800000E+00
  0.00000000E+00  1.60000000E+01  1.00800000E+00  1.00800000E+00  0.00000000E+00
  1.60000000E+01  1.00800000E+00  1.00800000E+00  0.00000000E+00  1.60000000E+01
  1.00800000E+00  1.00800000E+00  0.00000000E+00  1.60000000E+01  1.00800000E+00
  1.00800000E+00  0.00000000E+00  1.60000000E+01  1.00800000E+00  1.00800000E+00
  0.00000000E+00  1.60000000E+01  1.00800000E+00  1.00800000E+00  0.00000000E+00
  1.60000000E+01  1.00800000E+00  1.00800000E+00  0.00000000E+00  1.60000000E+01
  1.00800000E+00  1.00800000E+00  0.00000000E+00  1.60000000E+01  1.00800000E+00
  1.00800000E+00  0.00000000E+00  1.60000000E+01  1.00800000E+00  1.00800000E+00
  0.00000000E+00  1.60000000E+01  1.00800000E+00  1.00800000E+00  0.00000000E+00
  1.60000000E+01  1.00800000E+00  1.00800000E+00  0.00000000E+00  1.60000000E+01
  1.00800000E+00  1.00800000E+00  0.00000000E+00  1.60000000E+01  1.00800000E+00
  1.00800000E+00  0.00000000E+00  1.60000000E+01  1.00800000E+00  1.00800000E+00
  0.00000000E+00  1.60000000E+01  1.00800000E+00  1.00800000E+00  0.00000000E+00
  1.60000000E+01  1.00800000E+00  1.00800000E+00  0.00000000E+00  1.60000000E+01
  1.00800000E+00  1.00800000E+00  0.00000000E+00  1.60000000E+01  1.00800000E+00
  1.00800000E+00  0.00000000E+00  1.60000000E+01  1.00800000E+00  1.00800000E+00
  0.00000000E+00  1.60000000E+01  1.00800000E+00  1.00800000E+00  0.00000000E+00
  1.60000000E+01  1.00800000E+00  1.00800000E+00  0.00000000E+00  1.60000000E+01
  1.00800000E+00  1.00800000E+00  0.00000000E+00  1.60000000E+01  1.00800000E+00
  1.00800000E+00  0.00000000E+00  1.60000000E+01  1.00800000E+00  1.00800000E+00
  0.00000000E+00  1.60000000E+01  1.00800000E+00  1.00800000E+00  0.00000000E+00
  1.60000000E+01  1.00800000E+00  1.00800000E+00  0.00000000E+00  1.60000000E+01
  1.00800000E+00  1.00800000E+00  0.00000000E+00  1.60000000E+01  1.00800000E+00
  1.00800000E+00  0.00000000E+00  1.60000000E+01  1.00800000E+00  1.00800000E+00
  0.00000000E+00  1.60000000E+01  1.00800000E+00  1.00800000E+00  0.00000000E+00
  1.60000000E+01  1.00800000E+00  1.00800000E+00  0.00000000E+00  1.60000000E+01
  1.00800000E+00  1.00800000E+00  0.00000000E+00  1.60000000E+01  1.00800000E+00
  1.00800000E+00  0.00000000E+00  1.60000000E+01  1.00800000E+00  1.00800000E+00
  0.00000000E+00  1.60000000E+01  1.00800000E+00  1.00800000E+00  0.00000000E+00
  1.60000000E+01  1.00800000E+00  1.00800000E+00  0.00000000E+00  1.60000000E+01
  1.00800000E+00  1.00800000E+00  0.00000000E+00  1.60000000E+01  1.00800000E+00
  1.00800000E+00  0.00000000E+00  1.60000000E+01  1.00800000E+00  1.00800000E+00
  0.00000000E+00  1.60000000E+01  1.00800000E+00  1.00800000E+00  0.00000000E+00
  1.60000000E+01  1.00800000E+00  1.00800000E+00  0.00000000E+00  1.60000000E+01
  1.00800000E+00  1.00800000E+00  0.00000000E+00  1.60000000E+01  1.00800000E+00
  1.00800000E+00  0.00000000E+00  1.60000000E+01  1.00800000E+00  1.00800000E+00
  0.00000000E+00  1.60000000E+01  1.00800000E+00  1.00800000E+00  0.00000000E+00
  1.60000000E+01  1.00800000E+00  1.00800000E+00  0.00000000E+00  1.60000000E+01
  1.00800000E+00  1.00800000E+00  0.00000000E+00  1.60000000E+01  1.00800000E+00
  1.00800000E+00  0.00000000E+00  1.60000000E+01  1.00800000E+00  1.00800000E+00
  0.00000000E+00  1.60000000E+01  1.00800000E+00  1.00800000E+00  0.00000000E+00
  1.60000000E+01  1.00800000E+00  1.00800000E+00  0.00000000E+00  1.60000000E+01
  1.00800000E+00  1.00800000E+00  0.00000000E+00  1.60000000E+01  1.00800000E+00
  1.00800000E+00  0.00000000E+00  1.60000000E+01  1.00800000E+00  1.00800000E+00
  0.00000000E+00  1.60000000E+01  1.00800000E+00  1.00800000E+00  0.00000000E+00
  1.60000000E+01  1.00800000E+00  1.00800000E+00  0.00000000E+00  1.60000000E+01
  1.00800000E+00  1.00800000E+00  0.00000000E+00  1.60000000E+01  1.00800000E+00
  1.00800000E+00  0.00000000E+00  1.60000000E+01  1.00800000E+00  1.00800000E+00
  0.00000000E+00  1.60000000E+01  1.00800000E+00  1.00800000E+00  0.00000000E+00
  1.60000000E+01  1.00800000E+00  1.00800000E+00  0.00000000E+00  1.60000000E+01
  1.00800000E+00  1.00800000E+00  0.00000000E+00  1.60000000E+01  1.00800000E+00
  1.00800000E+00  0.00000000E+00  1.60000000E+01  1.00800000E+00  1.00800000E+00
  0.00000000E+00  1.60000000E+01  1.00800000E+00  1.00800000E+00  0.00000000E+00
  1.60000000E+01  1.00800000E+00  1.00800000E+00  0.00000000E+00  1.60000000E+01
  1.00800000E+00  1.00800000E+00  0.00000000E+00  1.60000000E+01  1.00800000E+00
  1.00800000E+00  0.00000000E+00  1.60000000E+01  1.00800000E+00  1.00800000E+00
  0.00000000E+00  1.60000000E+01  1.00800000E+00  1.00800000E+00  0.00000000E+00
  1.60000000E+01  1.00800000E+00  1.00800000E+00  0.00000000E+00  1.60000000E+01
  1.00800000E+00  1.00800000E+00  0.00000000E+00  1.60000000E+01  1.00800000E+00
  1.00800000E+00  0.00000000E+00  1.60000000E+01  1.00800000E+00  1.00800000E+00
  0.00000000E+00  1.60000000E+01  1.00800000E+00  1.00800000E+00  0.00000000E+00
  1.60000000E+01  1.00800000E+00  1.00800000E+00  0.00000000E+00  1.60000000E+01
  1.00800000E+00  1.00800000E+00  0.00000000E+00  1.60000000E+01  1.00800000E+00
  1.00800000E+00  0.00000000E+00  1.60000000E+01  1.00800000E+00  1.00800000E+00
  0.00000000E+00  1.60000000E+01  1.00800000E+00  1.00800000E+00  0.00000000E+00
  1.60000000E+01  1.00800000E+00  1.00800000E+00  0.00000000E+00  1.60000000E+01
  1.00800000E+00  1.00800000E+00  0.00000000E+00  1.60000000E+01  1.00800000E+00
  1.00800000E+00  0.00000000E+00  1.60000000E+01  1.00800000E+00  1.00800000E+00
  0.00000000E+00  1.60000000E+01  1.00800000E+00  1.00800000E+00  0.00000000E+00
  1.60000000E+01  1.00800000E+00  1.00800000E+00  0.00000000E+00  1.60000000E+01
  1.00800000E+00  1.00800000E+00  0.00000000E+00  1.60000000E+01  1.00800000E+00
  1.00800000E+00  0.00000000E+00  1.60000000E+01  1.00800000E+00  1.00800000E+00
  0.00000000E+00  1.60000000E+01  1.00800000E+00  1.00800000E+00  0.00000000E+00
  1.60000000E+01  1.00800000E+00  1.00800000E+00  0.00000000E+00  1.60000000E+01
  1.00800000E+00  1.00800000E+00  0.00000000E+00  1.60000000E+01  1.00800000E+00
  1.00800000E+00  0.00000000E+00  1.60000000E+01  1.00800000E+00  1.00800000E+00
  0.00000000E+00  1.60000000E+01  1.00800000E+00  1.00800000E+00  0.00000000E+00
  1.60000000E+01  1.00800000E+00  1.00800000E+00  0.00000000E+00  1.60000000E+01
  1.00800000E+00  1.00800000E+00  0.00000000E+00  1.60000000E+01  1.00800000E+00
  1.00800000E+00  0.00000000E+00  1.60000000E+01  1.00800000E+00  1.00800000E+00
  0.00000000E+00  1.60000000E+01  1.00800000E+00  1.00800000E+00  0.00000000E+00
  1.60000000E+01  1.00800000E+00  1.00800000E+00  0.00000000E+00  1.60000000E+01
  1.00800000E+00  1.00800000E+00  0.00000000E+00  1.60000000E+01  1.00800000E+00
  1.00800000E+00  0.00000000E+00  1.60000000E+01  1.00800000E+00  1.00800000E+00
  0.00000000E+00  1.60000000E+01  1.00800000E+00  1.00800000E+00  0.00000000E+00
  1.60000000E+01  1.00800000E+00  1.00800000E+00  0.00000000E+00  1.60000000E+01
  1.00800000E+00  1.00800000E+00  0.00000000E+00  1.60000000E+01  1.00800000E+00
  1.00800000E+00  0.00000000E+00  1.60000000E+01  1.00800000E+00  1.00800000E+00
  0.00000000E+00  1.60000000E+01  1.00800000E+00  1.00800000E+00  0.00000000E+00
  1.60000000E+01  1.00800000E+00  1.00800000E+00  0.00000000E+00  1.60000000E+01
  1.00800000E+00  1.00800000E+00  0.00000000E+00  1.60000000E+01  1.00800000E+00
  1.00800000E+00  0.00000000E+00  1.60000000E+01  1.00800000E+00  1.00800000E+00
  0.00000000E+00  1.60000000E+01  1.00800000E+00  1.00800000E+00  0.00000000E+00
  1.60000000E+01  1.00800000E+00  1.00800000E+00  0.00000000E+00  1.60000000E+01
  1.00800000E+00  1.00800000E+00  0.00000000E+00  1.60000000E+01  1.00800000E+00
  1.00800000E+00  0.00000000E+00  1.60000000E+01  1.00800000E+00  1.00800000E+00
  0.00000000E+00  1.60000000E+01  1.00800000E+00  1.00800000E+00  0.00000000E+00
  1.60000000E+01  1.00800000E+00  1.00800000E+00  0.00000000E+00  1.60000000E+01
  1.00800000E+00  1.00800000E+00  0.00000000E+00  1.60000000E+01  1.00800000E+00
  1.00800000E+00  0.00000000E+00  1.60000000E+01  1.00800000E+00  1.00800000E+00
  0.00000000E+00  1.60000000E+01  1.00800000E+00  1.00800000E+00  0.00000000E+00
  1.60000000E+01  1.00800000E+00  1.00800000E+00  0.00000000E+00  1.60000000E+01
  1.00800000E+00  1.00800000E+00  0.00000000E+00  1.60000000E+01  1.00800000E+00
  1.00800000E+00  0.00000000E+00  1.60000000E+01  1.00800000E+00  1.00800000E+00
  0.00000000E+00  1.60000000E+01  1.00800000E+00  1.00800000E+00  0.00000000E+00
  1.60000000E+01  1.00800000E+00  1.00800000E+00  0.00000000E+00  1.60000000E+01
  1.00800000E+00  1.00800000E+00  0.00000000E+00  1.60000000E+01  1.00800000E+00
  1.00800000E+00  0.00000000E+00  1.60000000E+01  1.00800000E+00  1.00800000E+00
  0.00000000E+00  1.60000000E+01  1.00800000E+00  1.00800000E+00  0.00000000E+00
  1.60000000E+01  1.00800000E+00  1.00800000E+00  0.00000000E+00  1.60000000E+01
  1.00800000E+00  1.00800000E+00  0.00000000E+00  1.60000000E+01  1.00800000E+00
  1.00800000E+00  0.00000000E+00  1.60000000E+01  1.00800000E+00  1.00800000E+00
  0.00000000E+00  1.60000000E+01  1.00800000E+00  1.00800000E+00  0.00000000E+00
  1.60000000E+01  1.00800000E+00  1.00800000E+00  0.00000000E+00  1.60000000E+01
  1.00800000E+00  1.00800000E+00  0.00000000E+00  1.60000000E+01  1.00800000E+00
  1.00800000E+00  0.00000000E+00  1.60000000E+01  1.00800000E+00  1.00800000E+00
  0.00000000E+00  1.60000000E+01  1.00800000E+00  1.00800000E+00  0.00000000E+00
  1.60000000E+01  1.00800000E+00  1.00800000E+00  0.00000000E+00  1.60000000E+01
  1.00800000E+00  1.00800000E+00  0.00000000E+00  1.60000000E+01  1.00800000E+00
  1.00800000E+00  0.00000000E+00  1.60000000E+01  1.00800000E+00  1.00800000E+00
  0.00000000E+00  1.60000000E+01  1.00800000E+00  1.00800000E+00  0.00000000E+00
  1.60000000E+01  1.00800000E+00  1.00800000E+00  0.00000000E+00  1.60000000E+01
  1.00800000E+00  1.00800000E+00  0.00000000E+00  1.60000000E+01  1.00800000E+00
  1.00800000E+00  0.00000000E+00  1.60000000E+01  1.00800000E+00  1.00800000E+00
  0.00000000E+00  1.60000000E+01  1.00800000E+00  1.00800000E+00  0.00000000E+00
  1.60000000E+01  1.00800000E+00  1.00800000E+00  0.00000000E+00  1.60000000E+01
  1.00800000E+00  1.00800000E+00  0.00000000E+00  1.60000000E+01  1.00800000E+00
  1.00800000E+00  0.00000000E+00  1.60000000E+01  1.00800000E+00  1.00800000E+00
  0.00000000E+00  1.60000000E+01  1.00800000E+00  1.00800000E+00  0.00000000E+00
  1.60000000E+01  1.00800000E+00  1.00800000E+00  0.00000000E+00  1.60000000E+01
  1.00800000E+00  1.00800000E+00  0.00000000E+00  1.60000000E+01  1.00800000E+00
  1.00800000E+00  0.00000000E+00  1.60000000E+01  1.00800000E+00  1.00800000E+00
  0.00000000E+00  1.60000000E+01  1.00800000E+00  1.00800000E+00  0.00000000E+00
  1.60000000E+01  1.00800000E+00  1.00800000E+00  0.00000000E+00  1.60000000E+01
  1.00800000E+00  1.00800000E+00  0.00000000E+00  1.60000000E+01  1.00800000E+00
  1.00800000E+00  0.00000000E+00  1.60000000E+01  1.00800000E+00  1.00800000E+00
  0.00000000E+00  1.60000000E+01  1.00800000E+00  1.00800000E+00  0.00000000E+00
  1.60000000E+01  1.00800000E+00  1.00800000E+00  0.00000000E+00  1.60000000E+01
  1.00800000E+00  1.00800000E+00  0.00000000E+00  1.60000000E+01  1.00800000E+00
  1.00800000E+00  0.00000000E+00  1.60000000E+01  1.00800000E+00  1.00800000E+00
  0.00000000E+00  1.60000000E+01  1.00800000E+00  1.00800000E+00  0.00000000E+00
  1.60000000E+01  1.00800000E+00  1.00800000E+00  0.00000000E+00  1.60000000E+01
  1.00800000E+00  1.00800000E+00  0.00000000E+00  1.60000000E+01  1.00800000E+00
  1.00800000E+00  0.00000000E+00  1.60000000E+01  1.00800000E+00  1.00800000E+00
  0.00000000E+00  1.60000000E+01  1.00800000E+00  1.00800000E+00  0.00000000E+00
  1.60000000E+01  1.00800000E+00  1.00800000E+00  0.00000000E+00  1.60000000E+01
  1.00800000E+00  1.00800000E+00  0.00000000E+00  1.60000000E+01  1.00800000E+00
  1.00800000E+00  0.00000000E+00  1.60000000E+01  1.00800000E+00  1.00800000E+00
  0.00000000E+00  1.60000000E+01  1.00800000E+00  1.00800000E+00  0.00000000E+00
  1.60000000E+01  1.00800000E+00  1.00800000E+00  0.00000000E+00  1.60000000E+01
  1.00800000E+00  1.00800000E+00  0.00000000E+00  1.60000000E+01  1.00800000E+00
  1.00800000E+00  0.00000000E+00  1.60000000E+01  1.00800000E+00  1.00800000E+00
  0.00000000E+00  1.60000000E+01  1.00800000E+00  1.00800000E+00  0.00000000E+00
  1.60000000E+01  1.00800000E+00  1.00800000E+00  0.00000000E+00  1.60000000E+01
  1.00800000E+00  1.00800000E+00  0.00000000E+00  1.60000000E+01  1.00800000E+00
  1.00800000E+00  0.00000000E+00  1.60000000E+01  1.00800000E+00  1.00800000E+00
  0.00000000E+00  1.60000000E+01  1.00800000E+00  1.00800000E+00  0.00000000E+00
  1.60000000E+01  1.00800000E+00  1.00800000E+00  0.00000000E+00  1.60000000E+01
  1.00800000E+00  1.00800000E+00  0.00000000E+00  1.60000000E+01  1.00800000E+00
  1.00800000E+00  0.00000000E+00  1.60000000E+01  1.00800000E+00  1.00800000E+00
  0.00000000E+00  1.60000000E+01  1.00800000E+00  1.00800000E+00  0.00000000E+00
  1.60000000E+01  1.00800000E+00  1.00800000E+00  0.00000000E+00  1.60000000E+01
  1.00800000E+00  1.00800000E+00  0.00000000E+00  1.60000000E+01  1.00800000E+00
  1.00800000E+00  0.00000000E+00  1.60000000E+01  1.00800000E+00  1.00800000E+00
  0.00000000E+00  1.60000000E+01  1.00800000E+00  1.00800000E+00  0.00000000E+00
  1.60000000E+01  1.00800000E+00  1.00800000E+00  0.00000000E+00  1.60000000E+01
  1.00800000E+00  1.00800000E+00  0.00000000E+00  1.60000000E+01  1.00800000E+00
  1.00800000E+00  0.00000000E+00  1.60000000E+01  1.00800000E+00  1.00800000E+00
  0.00000000E+00  1.60000000E+01  1.00800000E+00  1.00800000E+00  0.00000000E+00
  1.60000000E+01  1.00800000E+00  1.00800000E+00  0.00000000E+00  1.60000000E+01
  1.00800000E+00  1.00800000E+00  0.00000000E+00  1.60000000E+01  1.00800000E+00
  1.00800000E+00  0.00000000E+00  1.60000000E+01  1.00800000E+00  1.00800000E+00
  0.00000000E+00  1.60000000E+01  1.00800000E+00  1.00800000E+00  0.00000000E+00
  1.60000000E+01  1.00800000E+00  1.00800000E+00  0.00000000E+00  1.60000000E+01
  1.00800000E+00  1.00800000E+00  0.00000000E+00  1.60000000E+01  1.00800000E+00
  1.00800000E+00  0.00000000E+00  1.60000000E+01  1.00800000E+00  1.00800000E+00
  0.00000000E+00  1.60000000E+01  1.00800000E+00  1.00800000E+00  0.00000000E+00
  1.60000000E+01  1.00800000E+00  1.00800000E+00  0.00000000E+00  1.60000000E+01
  1.00800000E+00  1.00800000E+00  0.00000000E+00  1.60000000E+01  1.00800000E+00
  1.00800000E+00  0.00000000E+00  1.60000000E+01  1.00800000E+00  1.00800000E+00
  0.00000000E+00  1.60000000E+01  1.00800000E+00  1.00800000E+00  0.00000000E+00
  1.60000000E+01  1.00800000E+00  1.00800000E+00  0.00000000E+00  1.60000000E+01
  1.00800000E+00  1.00800000E+00  0.00000000E+00  1.60000000E+01  1.00800000E+00
  1.00800000E+00  0.00000000E+00  1.60000000E+01  1.00800000E+00  1.00800000E+00
  0.00000000E+00  1.60000000E+01  1.00800000E+00  1.00800000E+00  0.00000000E+00
  1.60000000E+01  1.00800000E+00  1.00800000E+00  0.00000000E+00  1.60000000E+01
  1.00800000E+00  1.00800000E+00  0.00000000E+00  1.60000000E+01  1.00800000E+00
  1.00800000E+00  0.00000000E+00  1.60000000E+01  1.00800000E+00  1.00800000E+00
  0.00000000E+00  1.60000000E+01  1.00800000E+00  1.00800000E+00  0.00000000E+00
  1.60000000E+01  1.00800000E+00  1.00800000E+00  0.00000000E+00  1.60000000E+01
  1.00800000E+00  1.00800000E+00  0.00000000E+00  1.60000000E+01  1.00800000E+00
  1.00800000E+00  0.00000000E+00  1.60000000E+01  1.00800000E+00  1.00800000E+00
  0.00000000E+00  1.60000000E+01  1.00800000E+00  1.00800000E+00  0.00000000E+00
  1.60000000E+01  1.00800000E+00  1.00800000E+00  0.00000000E+00  1.60000000E+01
  1.00800000E+00  1.00800000E+00  0.00000000E+00  1.60000000E+01  1.00800000E+00
  1.00800000E+00  0.00000000E+00  1.60000000E+01  1.00800000E+00  1.00800000E+00
  0.00000000E+00  1.60000000E+01  1.00800000E+00  1.00800000E+00  0.00000000E+00
  1.60000000E+01  1.00800000E+00  1.00800000E+00  0.00000000E+00  1.60000000E+01
  1.00800000E+00  1.00800000E+00  0.00000000E+00  1.60000000E+01  1.00800000E+00
  1.00800000E+00  0.00000000E+00  1.60000000E+01  1.00800000E+00  1.00800000E+00
  0.00000000E+00  1.60000000E+01  1.00800000E+00  1.00800000E+00  0.00000000E+00
  1.60000000E+01  1.00800000E+00  1.00800000E+00  0.00000000E+00  1.60000000E+01
  1.00800000E+00  1.00800000E+00  0.00000000E+00  1.60000000E+01  1.00800000E+00
  1.00800000E+00  0.00000000E+00  1.60000000E+01  1.00800000E+00  1.00800000E+00
  0.00000000E+00  1.60000000E+01  1.00800000E+00  1.00800000E+00  0.00000000E+00
  1.60000000E+01  1.00800000E+00  1.00800000E+00  0.00000000E+00  1.60000000E+01
  1.00800000E+00  1.00800000E+00  0.00000000E+00  1.60000000E+01  1.00800000E+00
  1.00800000E+00  0.00000000E+00  1.60000000E+01  1.00800000E+00  1.00800000E+00
  0.00000000E+00  1.60000000E+01  1.00800000E+00  1.00800000E+00  0.00000000E+00
  1.60000000E+01  1.00800000E+00  1.00800000E+00  0.00000000E+00  1.60000000E+01
  1.00800000E+00  1.00800000E+00  0.00000000E+00  1.60000000E+01  1.00800000E+00
  1.00800000E+00  0.00000000E+00  1.60000000E+01  1.00800000E+00  1.00800000E+00
  0.00000000E+00  1.60000000E+01  1.00800000E+00  1.00800000E+00  0.00000000E+00
  1.60000000E+01  1.00800000E+00  1.00800000E+00  0.00000000E+00  1.60000000E+01
  1.00800000E+00  1.00800000E+00  0.00000000E+00  1.60000000E+01  1.00800000E+00
  1.00800000E+00  0.00000000E+00  1.60000000E+01  1.00800000E+00  1.00800000E+00
  0.00000000E+00  1.60000000E+01  1.00800000E+00  1.00800000E+00  0.00000000E+00
  1.60000000E+01  1.00800000E+00  1.00800000E+00  0.00000000E+00  1.60000000E+01
  1.00800000E+00  1.00800000E+00  0.00000000E+00  1.60000000E+01  1.00800000E+00
  1.00800000E+00  0.00000000E+00  1.60000000E+01  1.00800000E+00  1.00800000E+00
  0.00000000E+00  1.60000000E+01  1.00800000E+00  1.00800000E+00  0.00000000E+00
  1.60000000E+01  1.00800000E+00  1.00800000E+00  0.00000000E+00  1.60000000E+01
  1.00800000E+00  1.00800000E+00  0.00000000E+00  1.60000000E+01  1.00800000E+00
  1.00800000E+00  0.00000000E+00  1.60000000E+01  1.00800000E+00  1.00800000E+00
  0.00000000E+00  1.60000000E+01  1.00800000E+00  1.00800000E+00  0.00000000E+00
  1.60000000E+01  1.00800000E+00  1.00800000E+00  0.00000000E+00  1.60000000E+01
  1.00800000E+00  1.00800000E+00  0.00000000E+00  1.60000000E+01  1.00800000E+00
  1.00800000E+00  0.00000000E+00  1.60000000E+01  1.00800000E+00  1.00800000E+00
  0.00000000E+00  1.60000000E+01  1.00800000E+00  1.00800000E+00  0.00000000E+00
  1.60000000E+01  1.00800000E+00  1.00800000E+00  0.00000000E+00  1.60000000E+01
  1.00800000E+00  1.00800000E+00  0.00000000E+00  1.60000000E+01  1.00800000E+00
  1.00800000E+00  0.00000000E+00  1.60000000E+01  1.00800000E+00  1.00800000E+00
  0.00000000E+00  1.60000000E+01  1.00800000E+00  1.00800000E+00  0.00000000E+00
  1.60000000E+01  1.00800000E+00  1.00800000E+00  0.00000000E+00  1.60000000E+01
  1.00800000E+00  1.00800000E+00  0.00000000E+00  1.60000000E+01  1.00800000E+00
  1.00800000E+00  0.00000000E+00  1.60000000E+01  1.00800000E+00  1.00800000E+00
  0.00000000E+00  1.60000000E+01  1.00800000E+00  1.00800000E+00  0.00000000E+00
  1.60000000E+01  1.00800000E+00  1.00800000E+00  0.00000000E+00  1.60000000E+01
  1.00800000E+00  1.00800000E+00  0.00000000E+00  1.60000000E+01  1.00800000E+00
  1.00800000E+00  0.00000000E+00  1.60000000E+01  1.00800000E+00  1.00800000E+00
  0.00000000E+00  1.60000000E+01  1.00800000E+00  1.00800000E+00  0.00000000E+00
  1.60000000E+01  1.00800000E+00  1.00800000E+00  0.00000000E+00  1.60000000E+01
  1.00800000E+00  1.00800000E+00  0.00000000E+00  1.60000000E+01  1.00800000E+00
  1.00800000E+00  0.00000000E+00  1.60000000E+01  1.00800000E+00  1.00800000E+00
  0.00000000E+00  1.60000000E+01  1.00800000E+00  1.00800000E+00  0.00000000E+00
  1.60000000E+01  1.00800000E+00  1.00800000E+00  0.00000000E+00  1.60000000E+01
  1.00800000E+00  1.00800000E+00  0.00000000E+00  1.60000000E+01  1.00800000E+00
  1.00800000E+00  0.00000000E+00  1.60000000E+01  1.00800000E+00  1.00800000E+00
  0.00000000E+00  1.60000000E+01  1.00800000E+00  1.00800000E+00  0.00000000E+00
  1.60000000E+01  1.00800000E+00  1.00800000E+00  0.00000000E+00  1.60000000E+01
  1.00800000E+00  1.00800000E+00  0.00000000E+00  1.60000000E+01  1.00800000E+00
  1.00800000E+00  0.00000000E+00  1.60000000E+01  1.00800000E+00  1.00800000E+00
  0.00000000E+00  1.60000000E+01  1.00800000E+00  1.00800000E+00  0.00000000E+00
  1.60000000E+01  1.00800000E+00  1.00800000E+00  0.00000000E+00  1.60000000E+01
  1.00800000E+00  1.00800000E+00  0.00000000E+00  1.60000000E+01  1.00800000E+00
  1.00800000E+00  0.00000000E+00  1.60000000E+01  1.00800000E+00  1.00800000E+00
  0.00000000E+00  1.60000000E+01  1.00800000E+00  1.00800000E+00  0.00000000E+00
  1.60000000E+01  1.00800000E+00  1.00800000E+00  0.00000000E+00  1.60000000E+01
  1.00800000E+00  1.00800000E+00  0.00000000E+00  1.60000000E+01  1.00800000E+00
  1.00800000E+00  0.00000000E+00  1.60000000E+01  1.00800000E+00  1.00800000E+00
  0.00000000E+00  1.60000000E+01  1.00800000E+00  1.00800000E+00  0.00000000E+00
  1.60000000E+01  1.00800000E+00  1.00800000E+00  0.00000000E+00  1.60000000E+01
  1.00800000E+00  1.00800000E+00  0.00000000E+00  1.60000000E+01  1.00800000E+00
  1.00800000E+00  0.00000000E+00  1.60000000E+01  1.00800000E+00  1.00800000E+00
  0.00000000E+00  1.60000000E+01  1.00800000E+00  1.00800000E+00  0.00000000E+00
  1.60000000E+01  1.00800000E+00  1.00800000E+00  0.00000000E+00  1.60000000E+01
  1.00800000E+00  1.00800000E+00  0.00000000E+00  1.60000000E+01  1.00800000E+00
  1.00800000E+00  0.00000000E+00  1.60000000E+01  1.00800000E+00  1.00800000E+00
  0.00000000E+00  1.60000000E+01  1.00800000E+00  1.00800000E+00  0.00000000E+00
  1.60000000E+01  1.00800000E+00  1.00800000E+00  0.00000000E+00  1.60000000E+01
  1.00800000E+00  1.00800000E+00  0.00000000E+00  1.60000000E+01  1.00800000E+00
  1.00800000E+00  0.00000000E+00  1.60000000E+01  1.00800000E+00  1.00800000E+00
  0.00000000E+00  1.60000000E+01  1.00800000E+00  1.00800000E+00  0.00000000E+00
  1.60000000E+01  1.00800000E+00  1.00800000E+00  0.00000000E+00  1.60000000E+01
  1.00800000E+00  1.00800000E+00  0.00000000E+00  1.60000000E+01  1.00800000E+00
  1.00800000E+00  0.00000000E+00  1.60000000E+01  1.00800000E+00  1.00800000E+00
  0.00000000E+00  1.60000000E+01  1.00800000E+00  1.00800000E+00  0.00000000E+00
  1.60000000E+01  1.00800000E+00  1.00800000E+00  0.00000000E+00  1.60000000E+01
  1.00800000E+00  1.00800000E+00  0.00000000E+00  1.60000000E+01  1.00800000E+00
  1.00800000E+00  0.00000000E+00  1.60000000E+01  1.00800000E+00  1.00800000E+00
  0.00000000E+00  1.60000000E+01  1.00800000E+00  1.00800000E+00  0.00000000E+00
  1.60000000E+01  1.00800000E+00  1.00800000E+00  0.00000000E+00  1.60000000E+01
  1.00800000E+00  1.00800000E+00  0.00000000E+00  1.60000000E+01  1.00800000E+00
  1.00800000E+00  0.00000000E+00  1.60000000E+01  1.00800000E+00  1.00800000E+00
  0.00000000E+00  1.60000000E+01  1.00800000E+00  1.00800000E+00  0.00000000E+00
  1.60000000E+01  1.00800000E+00  1.00800000E+00  0.00000000E+00  1.60000000E+01
  1.00800000E+00  1.00800000E+00  0.00000000E+00  1.60000000E+01  1.00800000E+00
  1.00800000E+00  0.00000000E+00  1.60000000E+01  1.00800000E+00  1.00800000E+00
  0.00000000E+00  1.60000000E+01  1.00800000E+00  1.00800000E+00  0.00000000E+00
  1.60000000E+01  1.00800000E+00  1.00800000E+00  0.00000000E+00  1.60000000E+01
  1.00800000E+00  1.00800000E+00  0.00000000E+00  1.60000000E+01  1.00800000E+00
  1.00800000E+00  0.00000000E+00  1.60000000E+01  1.00800000E+00  1.00800000E+00
  0.00000000E+00  1.60000000E+01  1.00800000E+00  1.00800000E+00  0.00000000E+00
  1.60000000E+01  1.00800000E+00  1.00800000E+00  0.00000000E+00  1.60000000E+01
  1.00800000E+00  1.00800000E+00  0.00000000E+00  1.60000000E+01  1.00800000E+00
  1.00800000E+00  0.00000000E+00  1.60000000E+01  1.00800000E+00  1.00800000E+00
  0.00000000E+00  1.60000000E+01  1.00800000E+00  1.00800000E+00  0.00000000E+00
  1.60000000E+01  1.00800000E+00  1.00800000E+00  0.00000000E+00  1.60000000E+01
  1.00800000E+00  1.00800000E+00  0.00000000E+00  1.60000000E+01  1.00800000E+00
  1.00800000E+00  0.00000000E+00  1.60000000E+01  1.00800000E+00  1.00800000E+00
  0.00000000E+00  1.60000000E+01  1.00800000E+00  1.00800000E+00  0.00000000E+00
  1.60000000E+01  1.00800000E+00  1.00800000E+00  0.00000000E+00  1.60000000E+01
  1.00800000E+00  1.00800000E+00  0.00000000E+00  1.60000000E+01  1.00800000E+00
  1.00800000E+00  0.00000000E+00  1.60000000E+01  1.00800000E+00  1.00800000E+00
  0.00000000E+00  1.60000000E+01  1.00800000E+00  1.00800000E+00  0.00000000E+00
  1.60000000E+01  1.00800000E+00  1.00800000E+00  0.00000000E+00  1.60000000E+01
  1.00800000E+00  1.00800000E+00  0.00000000E+00  1.60000000E+01  1.00800000E+00
  1.00800000E+00  0.00000000E+00  1.60000000E+01  1.00800000E+00  1.00800000E+00
  0.00000000E+00  1.60000000E+01  1.00800000E+00  1.00800000E+00  0.00000000E+00
  1.60000000E+01  1.00800000E+00  1.00800000E+00  0.00000000E+00  1.60000000E+01
  1.00800000E+00  1.00800000E+00  0.00000000E+00  1.60000000E+01  1.00800000E+00
  1.00800000E+00  0.00000000E+00  1.60000000E+01  1.00800000E+00  1.00800000E+00
  0.00000000E+00  1.60000000E+01  1.00800000E+00  1.00800000E+00  0.00000000E+00
  1.60000000E+01  1.00800000E+00  1.00800000E+00  0.00000000E+00  1.60000000E+01
  1.00800000E+00  1.00800000E+00  0.00000000E+00  1.60000000E+01  1.00800000E+00
  1.00800000E+00  0.00000000E+00  1.60000000E+01  1.00800000E+00  1.00800000E+00
  0.00000000E+00  1.60000000E+01  1.00800000E+00  1.00800000E+00  0.00000000E+00
  1.60000000E+01  1.00800000E+00  1.00800000E+00  0.00000000E+00  1.60000000E+01
  1.00800000E+00  1.00800000E+00  0.00000000E+00  1.60000000E+01  1.00800000E+00
  1.00800000E+00  0.00000000E+00  1.60000000E+01  1.00800000E+00  1.00800000E+00
  0.00000000E+00  1.60000000E+01  1.00800000E+00  1.00800000E+00  0.00000000E+00
  1.60000000E+01  1.00800000E+00  1.00800000E+00  0.00000000E+00  1.60000000E+01
  1.00800000E+00  1.00800000E+00  0.00000000E+00  1.60000000E+01  1.00800000E+00
  1.00800000E+00  0.00000000E+00  1.60000000E+01  1.00800000E+00  1.00800000E+00
  0.00000000E+00  1.60000000E+01  1.00800000E+00  1.00800000E+00  0.00000000E+00
  1.60000000E+01  1.00800000E+00  1.00800000E+00  0.00000000E+00  1.60000000E+01
  1.00800000E+00  1.00800000E+00  0.00000000E+00  1.60000000E+01  1.00800000E+00
  1.00800000E+00  0.00000000E+00  1.60000000E+01  1.00800000E+00  1.00800000E+00
  0.00000000E+00  1.60000000E+01  1.00800000E+00  1.00800000E+00  0.00000000E+00
  1.60000000E+01  1.00800000E+00  1.00800000E+00  0.00000000E+00  1.60000000E+01
  1.00800000E+00  1.00800000E+00  0.00000000E+00  1.60000000E+01  1.00800000E+00
  1.00800000E+00  0.00000000E+00  1.60000000E+01  1.00800000E+00  1.00800000E+00
  0.00000000E+00  1.60000000E+01  1.00800000E+00  1.00800000E+00  0.00000000E+00
  1.60000000E+01  1.00800000E+00  1.00800000E+00  0.00000000E+00  1.60000000E+01
  1.00800000E+00  1.00800000E+00  0.00000000E+00  1.60000000E+01  1.00800000E+00
  1.00800000E+00  0.00000000E+00  1.60000000E+01  1.00800000E+00  1.00800000E+00
  0.00000000E+00  1.60000000E+01  1.00800000E+00  1.00800000E+00  0.00000000E+00
  1.60000000E+01  1.00800000E+00  1.00800000E+00  0.00000000E+00  1.60000000E+01
  1.00800000E+00  1.00800000E+00  0.00000000E+00  1.60000000E+01  1.00800000E+00
  1.00800000E+00  0.00000000E+00  1.60000000E+01  1.00800000E+00  1.00800000E+00
  0.00000000E+00  1.60000000E+01  1.00800000E+00  1.00800000E+00  0.00000000E+00
  1.60000000E+01  1.00800000E+00  1.00800000E+00  0.00000000E+00  1.60000000E+01
  1.00800000E+00  1.00800000E+00  0.00000000E+00  1.60000000E+01  1.00800000E+00
  1.00800000E+00  0.00000000E+00  1.60000000E+01  1.00800000E+00  1.00800000E+00
  0.00000000E+00  1.60000000E+01  1.00800000E+00  1.00800000E+00  0.00000000E+00
  1.60000000E+01  1.00800000E+00  1.00800000E+00  0.00000000E+00  1.60000000E+01
  1.00800000E+00  1.00800000E+00  0.00000000E+00  1.60000000E+01  1.00800000E+00
  1.00800000E+00  0.00000000E+00  1.60000000E+01  1.00800000E+00  1.00800000E+00
  0.00000000E+00  1.60000000E+01  1.00800000E+00  1.00800000E+00  0.00000000E+00
  1.60000000E+01  1.00800000E+00  1.00800000E+00  0.00000000E+00  1.60000000E+01
  1.00800000E+00  1.00800000E+00  0.00000000E+00  1.60000000E+01  1.00800000E+00
  1.00800000E+00  0.00000000E+00  1.60000000E+01  1.00800000E+00  1.00800000E+00
  0.00000000E+00  1.60000000E+01  1.00800000E+00  1.00800000E+00  0.00000000E+00
  1.60000000E+01  1.00800000E+00  1.00800000E+00  0.00000000E+00  1.60000000E+01
  1.00800000E+00  1.00800000E+00  0.00000000E+00  1.60000000E+01  1.00800000E+00
  1.00800000E+00  0.00000000E+00  1.60000000E+01  1.00800000E+00  1.00800000E+00
  0.00000000E+00  1.60000000E+01  1.00800000E+00  1.00800000E+00  0.00000000E+00
  1.60000000E+01  1.00800000E+00  1.00800000E+00  0.00000000E+00  1.60000000E+01
  1.00800000E+00  1.00800000E+00  0.00000000E+00  1.60000000E+01  1.00800000E+00
  1.00800000E+00  0.00000000E+00  1.60000000E+01  1.00800000E+00  1.00800000E+00
  0.00000000E+00  1.60000000E+01  1.00800000E+00  1.00800000E+00  0.00000000E+00
  1.60000000E+01  1.00800000E+00  1.00800000E+00  0.00000000E+00  1.60000000E+01
  1.00800000E+00  1.00800000E+00  0.00000000E+00  1.60000000E+01  1.00800000E+00
  1.00800000E+00  0.00000000E+00  1.60000000E+01  1.00800000E+00  1.00800000E+00
  0.00000000E+00  1.60000000E+01  1.00800000E+00  1.00800000E+00  0.00000000E+00
  1.60000000E+01  1.00800000E+00  1.00800000E+00  0.00000000E+00  1.60000000E+01
  1.00800000E+00  1.00800000E+00  0.00000000E+00  1.60000000E+01  1.00800000E+00
  1.00800000E+00  0.00000000E+00  1.60000000E+01  1.00800000E+00  1.00800000E+00
  0.00000000E+00  1.60000000E+01  1.00800000E+00  1.00800000E+00  0.00000000E+00
  1.60000000E+01  1.00800000E+00  1.00800000E+00  0.00000000E+00  1.60000000E+01
  1.00800000E+00  1.00800000E+00  0.00000000E+00  1.60000000E+01  1.00800000E+00
  1.00800000E+00  0.00000000E+00  1.60000000E+01  1.00800000E+00  1.00800000E+00
  0.00000000E+00  1.60000000E+01  1.00800000E+00  1.00800000E+00  0.00000000E+00
  1.60000000E+01  1.00800000E+00  1.00800000E+00  0.00000000E+00  1.60000000E+01
  1.00800000E+00  1.00800000E+00  0.00000000E+00  1.60000000E+01  1.00800000E+00
  1.00800000E+00  0.00000000E+00  1.60000000E+01  1.00800000E+00  1.00800000E+00
  0.00000000E+00  1.60000000E+01  1.00800000E+00  1.00800000E+00  0.00000000E+00
  1.60000000E+01  1.00800000E+00  1.00800000E+00  0.00000000E+00  1.60000000E+01
  1.00800000E+00  1.00800000E+00  0.00000000E+00  1.60000000E+01  1.00800000E+00
  1.00800000E+00  0.00000000E+00  1.60000000E+01  1.00800000E+00  1.00800000E+00
  0.00000000E+00  1.60000000E+01  1.00800000E+00  1.00800000E+00  0.00000000E+00
  1.60000000E+01  1.00800000E+00  1.00800000E+00  0.00000000E+00  1.60000000E+01
  1.00800000E+00  1.00800000E+00  0.00000000E+00  1.60000000E+01  1.00800000E+00
  1.00800000E+00  0.00000000E+00  1.60000000E+01  1.00800000E+00  1.00800000E+00
  0.00000000E+00  1.60000000E+01  1.00800000E+00  1.00800000E+00  0.00000000E+00
  1.60000000E+01  1.00800000E+00  1.00800000E+00  0.00000000E+00  1.60000000E+01
  1.00800000E+00  1.00800000E+00  0.00000000E+00  1.60000000E+01  1.00800000E+00
  1.00800000E+00  0.00000000E+00  1.60000000E+01  1.00800000E+00  1.00800000E+00
  0.00000000E+00  1.60000000E+01  1.00800000E+00  1.00800000E+00  0.00000000E+00
  1.60000000E+01  1.00800000E+00  1.00800000E+00  0.00000000E+00  1.60000000E+01
  1.00800000E+00  1.00800000E+00  0.00000000E+00  1.60000000E+01  1.00800000E+00
  1.00800000E+00  0.00000000E+00  1.60000000E+01  1.00800000E+00  1.00800000E+00
  0.00000000E+00  1.60000000E+01  1.00800000E+00  1.00800000E+00  0.00000000E+00
  1.60000000E+01  1.00800000E+00  1.00800000E+00  0.00000000E+00  1.60000000E+01
  1.00800000E+00  1.00800000E+00  0.00000000E+00  1.60000000E+01  1.00800000E+00
  1.00800000E+00  0.00000000E+00  1.60000000E+01  1.00800000E+00  1.00800000E+00
  0.00000000E+00  1.60000000E+01  1.00800000E+00  1.00800000E+00  0.00000000E+00
  1.60000000E+01  1.00800000E+00  1.00800000E+00  0.00000000E+00  1.60000000E+01
  1.00800000E+00  1.00800000E+00  0.00000000E+00  1.60000000E+01  1.00800000E+00
  1.00800000E+00  0.00000000E+00  1.60000000E+01  1.00800000E+00  1.00800000E+00
  0.00000000E+00  1.60000000E+01  1.00800000E+00  1.00800000E+00  0.00000000E+00
  1.60000000E+01  1.00800000E+00  1.00800000E+00  0.00000000E+00  1.60000000E+01
  1.00800000E+00  1.00800000E+00  0.00000000E+00  1.60000000E+01  1.00800000E+00
  1.00800000E+00  0.00000000E+00  1.60000000E+01  1.00800000E+00  1.00800000E+00
  0.00000000E+00  1.60000000E+01  1.00800000E+00  1.00800000E+00  0.00000000E+00
  1.60000000E+01  1.00800000E+00  1.00800000E+00  0.00000000E+00  1.60000000E+01
  1.00800000E+00  1.00800000E+00  0.00000000E+00  1.60000000E+01  1.00800000E+00
  1.00800000E+00  0.00000000E+00  1.60000000E+01  1.00800000E+00  1.00800000E+00
  0.00000000E+00  1.60000000E+01  1.00800000E+00  1.00800000E+00  0.00000000E+00
  1.60000000E+01  1.00800000E+00  1.00800000E+00  0.00000000E+00  1.60000000E+01
  1.00800000E+00  1.00800000E+00  0.00000000E+00  1.60000000E+01  1.00800000E+00
  1.00800000E+00  0.00000000E+00  1.60000000E+01  1.00800000E+00  1.00800000E+00
  0.00000000E+00  1.60000000E+01  1.00800000E+00  1.00800000E+00  0.00000000E+00
  1.60000000E+01  1.00800000E+00  1.00800000E+00  0.00000000E+00  1.60000000E+01
  1.00800000E+00  1.00800000E+00  0.00000000E+00  1.60000000E+01  1.00800000E+00
  1.00800000E+00  0.00000000E+00  1.60000000E+01  1.00800000E+00  1.00800000E+00
  0.00000000E+00  1.60000000E+01  1.00800000E+00  1.00800000E+00  0.00000000E+00
  1.60000000E+01  1.00800000E+00  1.00800000E+00  0.00000000E+00  1.60000000E+01
  1.00800000E+00  1.00800000E+00  0.00000000E+00  1.60000000E+01  1.00800000E+00
  1.00800000E+00  0.00000000E+00  1.60000000E+01  1.00800000E+00  1.00800000E+00
  0.00000000E+00  1.60000000E+01  1.00800000E+00  1.00800000E+00  0.00000000E+00
  1.60000000E+01  1.00800000E+00  1.00800000E+00  0.00000000E+00  1.60000000E+01
  1.00800000E+00  1.00800000E+00  0.00000000E+00  1.60000000E+01  1.00800000E+00
  1.00800000E+00  0.00000000E+00  1.60000000E+01  1.00800000E+00  1.00800000E+00
  0.00000000E+00  1.60000000E+01  1.00800000E+00  1.00800000E+00  0.00000000E+00
  1.60000000E+01  1.00800000E+00  1.00800000E+00  0.00000000E+00  1.60000000E+01
  1.00800000E+00  1.00800000E+00  0.00000000E+00  1.60000000E+01  1.00800000E+00
  1.00800000E+00  0.00000000E+00  1.60000000E+01  1.00800000E+00  1.00800000E+00
  0.00000000E+00  1.60000000E+01  1.00800000E+00  1.00800000E+00  0.00000000E+00
  1.60000000E+01  1.00800000E+00  1.00800000E+00  0.00000000E+00  1.60000000E+01
  1.00800000E+00  1.00800000E+00  0.00000000E+00  1.60000000E+01  1.00800000E+00
  1.00800000E+00  0.00000000E+00  1.60000000E+01  1.00800000E+00  1.00800000E+00
  0.00000000E+00  1.60000000E+01  1.00800000E+00  1.00800000E+00  0.00000000E+00
  1.60000000E+01  1.00800000E+00  1.00800000E+00  0.00000000E+00  1.60000000E+01
  1.00800000E+00  1.00800000E+00  0.00000000E+00  1.60000000E+01  1.00800000E+00
  1.00800000E+00  0.00000000E+00  1.60000000E+01  1.00800000E+00  1.00800000E+00
  0.00000000E+00  1.60000000E+01  1.00800000E+00  1.00800000E+00  0.00000000E+00
  1.60000000E+01  1.00800000E+00  1.00800000E+00  0.00000000E+00  1.60000000E+01
  1.00800000E+00  1.00800000E+00  0.00000000E+00  1.60000000E+01  1.00800000E+00
  1.00800000E+00  0.00000000E+00  1.60000000E+01  1.00800000E+00  1.00800000E+00
  0.00000000E+00  1.60000000E+01  1.00800000E+00  1.00800000E+00  0.00000000E+00
  1.60000000E+01  1.00800000E+00  1.00800000E+00  0.00000000E+00  1.60000000E+01
  1.00800000E+00  1.00800000E+00  0.00000000E+00  1.60000000E+01  1.00800000E+00
  1.00800000E+00  0.00000000E+00  1.60000000E+01  1.00800000E+00  1.00800000E+00
  0.00000000E+00  1.60000000E+01  1.00800000E+00  1.00800000E+00  0.00000000E+00
  1.60000000E+01  1.00800000E+00  1.00800000E+00  0.00000000E+00  1.60000000E+01
  1.00800000E+00  1.00800000E+00  0.00000000E+00  1.60000000E+01  1.00800000E+00
  1.00800000E+00  0.00000000E+00  1.60000000E+01  1.00800000E+00  1.00800000E+00
  0.00000000E+00  1.60000000E+01  1.00800000E+00  1.00800000E+00  0.00000000E+00
  1.60000000E+01  1.00800000E+00  1.00800000E+00  0.00000000E+00  1.60000000E+01
  1.00800000E+00  1.00800000E+00  0.00000000E+00  1.60000000E+01  1.00800000E+00
  1.00800000E+00  0.00000000E+00  1.60000000E+01  1.00800000E+00  1.00800000E+00
  0.00000000E+00  1.60000000E+01  1.00800000E+00  1.00800000E+00  0.00000000E+00
  1.60000000E+01  1.00800000E+00  1.00800000E+00  0.00000000E+00  1.60000000E+01
  1.00800000E+00  1.00800000E+00  0.00000000E+00  1.60000000E+01  1.00800000E+00
  1.00800000E+00  0.00000000E+00  1.60000000E+01  1.00800000E+00  1.00800000E+00
  0.00000000E+00  1.60000000E+01  1.00800000E+00  1.00800000E+00  0.00000000E+00
  1.60000000E+01  1.00800000E+00  1.00800000E+00  0.00000000E+00  1.60000000E+01
  1.00800000E+00  1.00800000E+00  0.00000000E+00  1.60000000E+01  1.00800000E+00
  1.00800000E+00  0.00000000E+00  1.60000000E+01  1.00800000E+00  1.00800000E+00
  0.00000000E+00  1.60000000E+01  1.00800000E+00  1.00800000E+00  0.00000000E+00
  1.60000000E+01  1.00800000E+00  1.00800000E+00  0.00000000E+00  1.60000000E+01
  1.00800000E+00  1.00800000E+00  0.00000000E+00  1.60000000E+01  1.00800000E+00
  1.00800000E+00  0.00000000E+00  1.60000000E+01  1.00800000E+00  1.00800000E+00
  0.00000000E+00  1.60000000E+01  1.00800000E+00  1.00800000E+00  0.00000000E+00
  1.60000000E+01  1.00800000E+00  1.00800000E+00  0.00000000E+00  1.60000000E+01
  1.00800000E+00  1.00800000E+00  0.00000000E+00  1.60000000E+01  1.00800000E+00
  1.00800000E+00  0.00000000E+00  1.60000000E+01  1.00800000E+00  1.00800000E+00
  0.00000000E+00  1.60000000E+01  1.00800000E+00  1.00800000E+00  0.00000000E+00
  1.60000000E+01  1.00800000E+00  1.00800000E+00  0.00000000E+00  1.60000000E+01
  1.00800000E+00  1.00800000E+00  0.00000000E+00  1.60000000E+01  1.00800000E+00
  1.00800000E+00  0.00000000E+00  1.60000000E+01  1.00800000E+00  1.00800000E+00
  0.00000000E+00  1.60000000E+01  1.00800000E+00  1.00800000E+00  0.00000000E+00
  1.60000000E+01  1.00800000E+00  1.00800000E+00  0.00000000E+00  1.60000000E+01
  1.00800000E+00  1.00800000E+00  0.00000000E+00  1.60000000E+01  1.00800000E+00
  1.00800000E+00  0.00000000E+00  1.60000000E+01  1.00800000E+00  1.00800000E+00
  0.00000000E+00  1.60000000E+01  1.00800000E+00  1.00800000E+00  0.00000000E+00
  1.60000000E+01  1.00800000E+00  1.00800000E+00  0.00000000E+00  1.60000000E+01
  1.00800000E+00  1.00800000E+00  0.00000000E+00  1.60000000E+01  1.00800000E+00
  1.00800000E+00  0.00000000E+00  1.60000000E+01  1.00800000E+00  1.00800000E+00
  0.00000000E+00  1.60000000E+01  1.00800000E+00  1.00800000E+00  0.00000000E+00
  1.60000000E+01  1.00800000E+00  1.00800000E+00  0.00000000E+00  1.60000000E+01
  1.00800000E+00  1.00800000E+00  0.00000000E+00  1.60000000E+01  1.00800000E+00
  1.00800000E+00  0.00000000E+00  1.60000000E+01  1.00800000E+00  1.00800000E+00
  0.00000000E+00  1.60000000E+01  1.00800000E+00  1.00800000E+00  0.00000000E+00
  1.60000000E+01  1.00800000E+00  1.00800000E+00  0.00000000E+00  1.60000000E+01
  1.00800000E+00  1.00800000E+00  0.00000000E+00  1.60000000E+01  1.00800000E+00
  1.00800000E+00  0.00000000E+00  1.60000000E+01  1.00800000E+00  1.00800000E+00
  0.00000000E+00  1.60000000E+01  1.00800000E+00  1.00800000E+00  0.00000000E+00
  1.60000000E+01  1.00800000E+00  1.00800000E+00  0.00000000E+00  1.60000000E+01
  1.00800000E+00  1.00800000E+00  0.00000000E+00  1.60000000E+01  1.00800000E+00
  1.00800000E+00  0.00000000E+00  1.60000000E+01  1.00800000E+00  1.00800000E+00
  0.00000000E+00  1.60000000E+01  1.00800000E+00  1.00800000E+00  0.00000000E+00
  1.60000000E+01  1.00800000E+00  1.00800000E+00  0.00000000E+00  1.60000000E+01
  1.00800000E+00  1.00800000E+00  0.00000000E+00  1.60000000E+01  1.00800000E+00
  1.00800000E+00  0.00000000E+00  1.60000000E+01  1.00800000E+00  1.00800000E+00
  0.00000000E+00  1.60000000E+01  1.00800000E+00  1.00800000E+00  0.00000000E+00
  1.60000000E+01  1.00800000E+00  1.00800000E+00  0.00000000E+00  1.60000000E+01
  1.00800000E+00  1.00800000E+00  0.00000000E+00  1.60000000E+01  1.00800000E+00
  1.00800000E+00  0.00000000E+00  1.60000000E+01  1.00800000E+00  1.00800000E+00
  0.00000000E+00  1.60000000E+01  1.00800000E+00  1.00800000E+00  0.00000000E+00
  1.60000000E+01  1.00800000E+00  1.00800000E+00  0.00000000E+00  1.60000000E+01
  1.00800000E+00  1.00800000E+00  0.00000000E+00  1.60000000E+01  1.00800000E+00
  1.00800000E+00  0.00000000E+00  1.60000000E+01  1.00800000E+00  1.00800000E+00
  0.00000000E+00  1.60000000E+01  1.00800000E+00  1.00800000E+00  0.00000000E+00
  1.60000000E+01  1.00800000E+00  1.00800000E+00  0.00000000E+00  1.60000000E+01
  1.00800000E+00  1.00800000E+00  0.00000000E+00  1.60000000E+01  1.00800000E+00
  1.00800000E+00  0.00000000E+00  1.60000000E+01  1.00800000E+00  1.00800000E+00
  0.00000000E+00  1.60000000E+01  1.00800000E+00  1.00800000E+00  0.00000000E+00
  1.60000000E+01  1.00800000E+00  1.00800000E+00  0.00000000E+00  1.60000000E+01
  1.00800000E+00  1.00800000E+00  0.00000000E+00  1.60000000E+01  1.00800000E+00
  1.00800000E+00  0.00000000E+00  1.60000000E+01  1.00800000E+00  1.00800000E+00
  0.00000000E+00  1.60000000E+01  1.00800000E+00  1.00800000E+00  0.00000000E+00
  1.60000000E+01  1.00800000E+00  1.00800000E+00  0.00000000E+00  1.60000000E+01
  1.00800000E+00  1.00800000E+00  0.00000000E+00  1.60000000E+01  1.00800000E+00
  1.00800000E+00  0.00000000E+00  1.60000000E+01  1.00800000E+00  1.00800000E+00
  0.00000000E+00  1.60000000E+01  1.00800000E+00  1.00800000E+00  0.00000000E+00
  1.60000000E+01  1.00800000E+00  1.00800000E+00  0.00000000E+00  1.60000000E+01
  1.00800000E+00  1.00800000E+00  0.00000000E+00  1.60000000E+01  1.00800000E+00
  1.00800000E+00  0.00000000E+00  1.60000000E+01  1.00800000E+00  1.00800000E+00
  0.00000000E+00  1.60000000E+01  1.00800000E+00  1.00800000E+00  0.00000000E+00
  1.60000000E+01  1.00800000E+00  1.00800000E+00  0.00000000E+00  1.60000000E+01
  1.00800000E+00  1.00800000E+00  0.00000000E+00  1.60000000E+01  1.00800000E+00
  1.00800000E+00  0.00000000E+00  1.60000000E+01  1.00800000E+00  1.00800000E+00
  0.00000000E+00  1.60000000E+01  1.00800000E+00  1.00800000E+00  0.00000000E+00
  1.60000000E+01  1.00800000E+00  1.00800000E+00  0.00000000E+00  1.60000000E+01
  1.00800000E+00  1.00800000E+00  0.00000000E+00  1.60000000E+01  1.00800000E+00
  1.00800000E+00  0.00000000E+00  1.60000000E+01  1.00800000E+00  1.00800000E+00
  0.00000000E+00  1.60000000E+01  1.00800000E+00  1.00800000E+00  0.00000000E+00
  1.60000000E+01  1.00800000E+00  1.00800000E+00  0.00000000E+00  1.60000000E+01
  1.00800000E+00  1.00800000E+00  0.00000000E+00  1.60000000E+01  1.00800000E+00
  1.00800000E+00  0.00000000E+00  1.60000000E+01  1.00800000E+00  1.00800000E+00
  0.00000000E+00  1.60000000E+01  1.00800000E+00  1.00800000E+00  0.00000000E+00
  1.60000000E+01  1.00800000E+00  1.00800000E+00  0.00000000E+00  1.60000000E+01
  1.00800000E+00  1.00800000E+00  0.00000000E+00  1.60000000E+01  1.00800000E+00
  1.00800000E+00  0.00000000E+00  1.60000000E+01  1.00800000E+00  1.00800000E+00
  0.00000000E+00  1.60000000E+01  1.00800000E+00  1.00800000E+00  0.00000000E+00
  1.60000000E+01  1.00800000E+00  1.00800000E+00  0.00000000E+00  1.60000000E+01
  1.00800000E+00  1.00800000E+00  0.00000000E+00  1.60000000E+01  1.00800000E+00
  1.00800000E+00  0.00000000E+00  1.60000000E+01  1.00800000E+00  1.00800000E+00
  0.00000000E+00  1.60000000E+01  1.00800000E+00  1.00800000E+00  0.00000000E+00
  1.60000000E+01  1.00800000E+00  1.00800000E+00  0.00000000E+00  1.60000000E+01
  1.00800000E+00  1.00800000E+00  0.00000000E+00  1.60000000E+01  1.00800000E+00
  1.00800000E+00  0.00000000E+00  1.60000000E+01  1.00800000E+00  1.00800000E+00
  0.00000000E+00  1.60000000E+01  1.00800000E+00  1.00800000E+00  0.00000000E+00
  1.60000000E+01  1.00800000E+00  1.00800000E+00  0.00000000E+00  1.60000000E+01
  1.00800000E+00  1.00800000E+00  0.00000000E+00  1.60000000E+01  1.00800000E+00
  1.00800000E+00  0.00000000E+00  1.60000000E+01  1.00800000E+00  1.00800000E+00
  0.00000000E+00  1.60000000E+01  1.00800000E+00  1.00800000E+00  0.00000000E+00
  1.60000000E+01  1.00800000E+00  1.00800000E+00  0.00000000E+00  1.60000000E+01
  1.00800000E+00  1.00800000E+00  0.00000000E+00  1.60000000E+01  1.00800000E+00
  1.00800000E+00  0.00000000E+00  1.60000000E+01  1.00800000E+00  1.00800000E+00
  0.00000000E+00  1.60000000E+01  1.00800000E+00  1.00800000E+00  0.00000000E+00
  1.60000000E+01  1.00800000E+00  1.00800000E+00  0.00000000E+00  1.60000000E+01
  1.00800000E+00  1.00800000E+00  0.00000000E+00  1.60000000E+01  1.00800000E+00
  1.00800000E+00  0.00000000E+00  1.60000000E+01  1.00800000E+00  1.00800000E+00
  0.00000000E+00  1.60000000E+01  1.00800000E+00  1.00800000E+00  0.00000000E+00
  1.60000000E+01  1.00800000E+00  1.00800000E+00  0.00000000E+00  1.60000000E+01
  1.00800000E+00  1.00800000E+00  0.00000000E+00  1.60000000E+01  1.00800000E+00
  1.00800000E+00  0.00000000E+00  1.60000000E+01  1.00800000E+00  1.00800000E+00
  0.00000000E+00  1.60000000E+01  1.00800000E+00  1.00800000E+00  0.00000000E+00
  1.60000000E+01  1.00800000E+00  1.00800000E+00  0.00000000E+00  1.60000000E+01
  1.00800000E+00  1.00800000E+00  0.00000000E+00  1.60000000E+01  1.00800000E+00
  1.00800000E+00  0.00000000E+00  1.60000000E+01  1.00800000E+00  1.00800000E+00
  0.00000000E+00  1.60000000E+01  1.00800000E+00  1.00800000E+00  0.00000000E+00
  1.60000000E+01  1.00800000E+00  1.00800000E+00  0.00000000E+00  1.60000000E+01
  1.00800000E+00  1.00800000E+00  0.00000000E+00  1.60000000E+01  1.00800000E+00
  1.00800000E+00  0.00000000E+00  1.60000000E+01  1.00800000E+00  1.00800000E+00
  0.00000000E+00  1.60000000E+01  1.00800000E+00  1.00800000E+00  0.00000000E+00
  1.60000000E+01  1.00800000E+00  1.00800000E+00  0.00000000E+00  1.60000000E+01
  1.00800000E+00  1.00800000E+00  0.00000000E+00  1.60000000E+01  1.00800000E+00
  1.00800000E+00  0.00000000E+00  1.60000000E+01  1.00800000E+00  1.00800000E+00
  0.00000000E+00  1.60000000E+01  1.00800000E+00  1.00800000E+00  0.00000000E+00
  1.60000000E+01  1.00800000E+00  1.00800000E+00  0.00000000E+00  1.60000000E+01
  1.00800000E+00  1.00800000E+00  0.00000000E+00  1.60000000E+01  1.00800000E+00
  1.00800000E+00  0.00000000E+00  1.60000000E+01  1.00800000E+00  1.00800000E+00
  0.00000000E+00  1.60000000E+01  1.00800000E+00  1.00800000E+00  0.00000000E+00
  1.60000000E+01  1.00800000E+00  1.00800000E+00  0.00000000E+00  1.60000000E+01
  1.00800000E+00  1.00800000E+00  0.00000000E+00  1.60000000E+01  1.00800000E+00
  1.00800000E+00  0.00000000E+00  1.60000000E+01  1.00800000E+00  1.00800000E+00
  0.00000000E+00  1.60000000E+01  1.00800000E+00  1.00800000E+00  0.00000000E+00
  1.60000000E+01  1.00800000E+00  1.00800000E+00  0.00000000E+00  1.60000000E+01
  1.00800000E+00  1.00800000E+00  0.00000000E+00  1.60000000E+01  1.00800000E+00
  1.00800000E+00  0.00000000E+00  1.60000000E+01  1.00800000E+00  1.00800000E+00
  0.00000000E+00  1.60000000E+01  1.00800000E+00  1.00800000E+00  0.00000000E+00
  1.60000000E+01  1.00800000E+00  1.00800000E+00  0.00000000E+00  1.60000000E+01
  1.00800000E+00  1.00800000E+00  0.00000000E+00  1.60000000E+01  1.00800000E+00
  1.00800000E+00  0.00000000E+00  1.60000000E+01  1.00800000E+00  1.00800000E+00
  0.00000000E+00  1.60000000E+01  1.00800000E+00  1.00800000E+00  0.00000000E+00
  1.60000000E+01  1.00800000E+00  1.00800000E+00  0.00000000E+00  1.60000000E+01
  1.00800000E+00  1.00800000E+00  0.00000000E+00  1.60000000E+01  1.00800000E+00
  1.00800000E+00  0.00000000E+00  1.60000000E+01  1.00800000E+00  1.00800000E+00
  0.00000000E+00  1.60000000E+01  1.00800000E+00  1.00800000E+00  0.00000000E+00
  1.60000000E+01  1.00800000E+00  1.00800000E+00  0.00000000E+00  1.60000000E+01
  1.00800000E+00  1.00800000E+00  0.00000000E+00  1.60000000E+01  1.00800000E+00
  1.00800000E+00  0.00000000E+00  1.60000000E+01  1.00800000E+00  1.00800000E+00
  0.00000000E+00  1.60000000E+01  1.00800000E+00  1.00800000E+00  0.00000000E+00
  1.60000000E+01  1.00800000E+00  1.00800000E+00  0.00000000E+00  1.60000000E+01
  1.00800000E+00  1.00800000E+00  0.00000000E+00  1.60000000E+01  1.00800000E+00
  1.00800000E+00  0.00000000E+00  1.60000000E+01  1.00800000E+00  1.00800000E+00
  0.00000000E+00  1.60000000E+01  1.00800000E+00  1.00800000E+00  0.00000000E+00
  1.60000000E+01  1.00800000E+00  1.00800000E+00  0.00000000E+00  1.60000000E+01
  1.00800000E+00  1.00800000E+00  0.00000000E+00  1.60000000E+01  1.00800000E+00
  1.00800000E+00  0.00000000E+00  1.60000000E+01  1.00800000E+00  1.00800000E+00
  0.00000000E+00  1.60000000E+01  1.00800000E+00  1.00800000E+00  0.00000000E+00
  1.60000000E+01  1.00800000E+00  1.00800000E+00  0.00000000E+00  1.60000000E+01
  1.00800000E+00  1.00800000E+00  0.00000000E+00  1.60000000E+01  1.00800000E+00
  1.00800000E+00  0.00000000E+00  1.60000000E+01  1.00800000E+00  1.00800000E+00
  0.00000000E+00  1.60000000E+01  1.00800000E+00  1.00800000E+00  0.00000000E+00
  1.60000000E+01  1.00800000E+00  1.00800000E+00  0.00000000E+00  1.60000000E+01
  1.00800000E+00  1.00800000E+00  0.00000000E+00  1.60000000E+01  1.00800000E+00
  1.00800000E+00  0.00000000E+00  1.60000000E+01  1.00800000E+00  1.00800000E+00
  0.00000000E+00  1.60000000E+01  1.00800000E+00  1.00800000E+00  0.00000000E+00
  1.60000000E+01  1.00800000E+00  1.00800000E+00  0.00000000E+00  1.60000000E+01
  1.00800000E+00  1.00800000E+00  0.00000000E+00  1.60000000E+01  1.00800000E+00
  1.00800000E+00  0.00000000E+00  1.60000000E+01  1.00800000E+00  1.00800000E+00
  0.00000000E+00  1.60000000E+01  1.00800000E+00  1.00800000E+00  0.00000000E+00
  1.60000000E+01  1.00800000E+00  1.00800000E+00  0.00000000E+00  1.60000000E+01
  1.00800000E+00  1.00800000E+00  0.00000000E+00  1.60000000E+01  1.00800000E+00
  1.00800000E+00  0.00000000E+00  1.60000000E+01  1.00800000E+00  1.00800000E+00
  0.00000000E+00  1.60000000E+01  1.00800000E+00  1.00800000E+00  0.00000000E+00
  1.60000000E+01  1.00800000E+00  1.00800000E+00  0.00000000E+00  1.60000000E+01
  1.00800000E+00  1.00800000E+00  0.00000000E+00  1.60000000E+01  1.00800000E+00
  1.00800000E+00  0.00000000E+00  1.60000000E+01  1.00800000E+00  1.00800000E+00
  0.00000000E+00  1.60000000E+01  1.00800000E+00  1.00800000E+00  0.00000000E+00
  1.60000000E+01  1.00800000E+00  1.00800000E+00  0.00000000E+00  1.60000000E+01
  1.00800000E+00  1.00800000E+00  0.00000000E+00  1.60000000E+01  1.00800000E+00
  1.00800000E+00  0.00000000E+00  1.60000000E+01  1.00800000E+00  1.00800000E+00
  0.00000000E+00  1.60000000E+01  1.00800000E+00  1.00800000E+00  0.00000000E+00
  1.60000000E+01  1.00800000E+00  1.00800000E+00  0.00000000E+00  1.60000000E+01
  1.00800000E+00  1.00800000E+00  0.00000000E+00  1.60000000E+01  1.00800000E+00
  1.00800000E+00  0.00000000E+00  1.60000000E+01  1.00800000E+00  1.00800000E+00
  0.00000000E+00  1.60000000E+01  1.00800000E+00  1.00800000E+00  0.00000000E+00
  1.60000000E+01  1.00800000E+00  1.00800000E+00  0.00000000E+00  1.60000000E+01
  1.00800000E+00  1.00800000E+00  0.00000000E+00  1.60000000E+01  1.00800000E+00
  1.00800000E+00  0.00000000E+00  1.60000000E+01  1.00800000E+00  1.00800000E+00
  0.00000000E+00  1.60000000E+01  1.00800000E+00  1.00800000E+00  0.00000000E+00
  1.60000000E+01  1.00800000E+00  1.00800000E+00  0.00000000E+00  1.60000000E+01
  1.00800000E+00  1.00800000E+00  0.00000000E+00  1.60000000E+01  1.00800000E+00
  1.00800000E+00  0.00000000E+00  1.60000000E+01  1.00800000E+00  1.00800000E+00
  0.00000000E+00  1.60000000E+01  1.00800000E+00  1.00800000E+00  0.00000000E+00
  1.60000000E+01  1.00800000E+00  1.00800000E+00  0.00000000E+00  1.60000000E+01
  1.00800000E+00  1.00800000E+00  0.00000000E+00  1.60000000E+01  1.00800000E+00
  1.00800000E+00  0.00000000E+00  1.60000000E+01  1.00800000E+00  1.00800000E+00
  0.00000000E+00  1.60000000E+01  1.00800000E+00  1.00800000E+00  0.00000000E+00
  1.60000000E+01  1.00800000E+00  1.00800000E+00  0.00000000E+00  1.60000000E+01
  1.00800000E+00  1.00800000E+00  0.00000000E+00  1.60000000E+01  1.00800000E+00
  1.00800000E+00  0.00000000E+00  1.60000000E+01  1.00800000E+00  1.00800000E+00
  0.00000000E+00  1.60000000E+01  1.00800000E+00  1.00800000E+00  0.00000000E+00
  1.60000000E+01  1.00800000E+00  1.00800000E+00  0.00000000E+00  1.60000000E+01
  1.00800000E+00  1.00800000E+00  0.00000000E+00  1.60000000E+01  1.00800000E+00
  1.00800000E+00  0.00000000E+00  1.60000000E+01  1.00800000E+00  1.00800000E+00
  0.00000000E+00  1.60000000E+01  1.00800000E+00  1.00800000E+00  0.00000000E+00
  1.60000000E+01  1.00800000E+00  1.00800000E+00  0.00000000E+00  1.60000000E+01
  1.00800000E+00  1.00800000E+00  0.00000000E+00  1.60000000E+01  1.00800000E+00
  1.00800000E+00  0.00000000E+00  1.60000000E+01  1.00800000E+00  1.00800000E+00
  0.00000000E+00  1.60000000E+01  1.00800000E+00  1.00800000E+00  0.00000000E+00
  1.60000000E+01  1.00800000E+00  1.00800000E+00  0.00000000E+00  1.60000000E+01
  1.00800000E+00  1.00800000E+00  0.00000000E+00  1.60000000E+01  1.00800000E+00
  1.00800000E+00  0.00000000E+00  1.60000000E+01  1.00800000E+00  1.00800000E+00
  0.00000000E+00  1.60000000E+01  1.00800000E+00  1.00800000E+00  0.00000000E+00
  1.60000000E+01  1.00800000E+00  1.00800000E+00  0.00000000E+00  1.60000000E+01
  1.00800000E+00  1.00800000E+00  0.00000000E+00  1.60000000E+01  1.00800000E+00
  1.00800000E+00  0.00000000E+00  1.60000000E+01  1.00800000E+00  1.00800000E+00
  0.00000000E+00  1.60000000E+01  1.00800000E+00  1.00800000E+00  0.00000000E+00
  1.60000000E+01  1.00800000E+00  1.00800000E+00  0.00000000E+00  1.60000000E+01
  1.00800000E+00  1.00800000E+00  0.00000000E+00  1.60000000E+01  1.00800000E+00
  1.00800000E+00  0.00000000E+00  1.60000000E+01  1.00800000E+00  1.00800000E+00
  0.00000000E+00  1.60000000E+01  1.00800000E+00  1.00800000E+00  0.00000000E+00
  1.60000000E+01  1.00800000E+00  1.00800000E+00  0.00000000E+00  1.60000000E+01
  1.00800000E+00  1.00800000E+00  0.00000000E+00  1.60000000E+01  1.00800000E+00
  1.00800000E+00  0.00000000E+00  1.60000000E+01  1.00800000E+00  1.00800000E+00
  0.00000000E+00  1.60000000E+01  1.00800000E+00  1.00800000E+00  0.00000000E+00
  1.60000000E+01  1.00800000E+00  1.00800000E+00  0.00000000E+00  1.60000000E+01
  1.00800000E+00  1.00800000E+00  0.00000000E+00  1.60000000E+01  1.00800000E+00
  1.00800000E+00  0.00000000E+00  1.60000000E+01  1.00800000E+00  1.00800000E+00
  0.00000000E+00  1.60000000E+01  1.00800000E+00  1.00800000E+00  0.00000000E+00
  1.60000000E+01  1.00800000E+00  1.00800000E+00  0.00000000E+00  1.60000000E+01
  1.00800000E+00  1.00800000E+00  0.00000000E+00  1.60000000E+01  1.00800000E+00
  1.00800000E+00  0.00000000E+00  1.60000000E+01  1.00800000E+00  1.00800000E+00
  0.00000000E+00  1.60000000E+01  1.00800000E+00  1.00800000E+00  0.00000000E+00
  1.60000000E+01  1.00800000E+00  1.00800000E+00  0.00000000E+00  1.60000000E+01
  1.00800000E+00  1.00800000E+00  0.00000000E+00  1.60000000E+01  1.00800000E+00
  1.00800000E+00  0.00000000E+00  1.60000000E+01  1.00800000E+00  1.00800000E+00
  0.00000000E+00  1.60000000E+01  1.00800000E+00  1.00800000E+00  0.00000000E+00
  1.60000000E+01  1.00800000E+00  1.00800000E+00  0.00000000E+00  1.60000000E+01
  1.00800000E+00  1.00800000E+00  0.00000000E+00  1.60000000E+01  1.00800000E+00
  1.00800000E+00  0.00000000E+00  1.60000000E+01  1.00800000E+00  1.00800000E+00
  0.00000000E+00  1.60000000E+01  1.00800000E+00  1.00800000E+00  0.00000000E+00
  1.60000000E+01  1.00800000E+00  1.00800000E+00  0.00000000E+00  1.60000000E+01
  1.00800000E+00  1.00800000E+00  0.00000000E+00  1.60000000E+01  1.00800000E+00
  1.00800000E+00  0.00000000E+00  1.60000000E+01  1.00800000E+00  1.00800000E+00
  0.00000000E+00  1.60000000E+01  1.00800000E+00  1.00800000E+00  0.00000000E+00
  1.60000000E+01  1.00800000E+00  1.00800000E+00  0.00000000E+00  1.60000000E+01
  1.00800000E+00  1.00800000E+00  0.00000000E+00  1.60000000E+01  1.00800000E+00
  1.00800000E+00  0.00000000E+00  1.60000000E+01  1.00800000E+00  1.00800000E+00
  0.00000000E+00  1.60000000E+01  1.00800000E+00  1.00800000E+00  0.00000000E+00
  1.60000000E+01  1.00800000E+00  1.00800000E+00  0.00000000E+00  1.60000000E+01
  1.00800000E+00  1.00800000E+00  0.00000000E+00  1.60000000E+01  1.00800000E+00
  1.00800000E+00  0.00000000E+00  1.60000000E+01  1.00800000E+00  1.00800000E+00
  0.00000000E+00  1.60000000E+01  1.00800000E+00  1.00800000E+00  0.00000000E+00
  1.60000000E+01  1.00800000E+00  1.00800000E+00  0.00000000E+00  1.60000000E+01
  1.00800000E+00  1.00800000E+00  0.00000000E+00  1.60000000E+01  1.00800000E+00
  1.00800000E+00  0.00000000E+00  1.60000000E+01  1.00800000E+00  1.00800000E+00
  0.00000000E+00  1.60000000E+01  1.00800000E+00  1.00800000E+00  0.00000000E+00
  1.60000000E+01  1.00800000E+00  1.00800000E+00  0.00000000E+00  1.60000000E+01
  1.00800000E+00  1.00800000E+00  0.00000000E+00  1.60000000E+01  1.00800000E+00
  1.00800000E+00  0.00000000E+00  1.60000000E+01  1.00800000E+00  1.00800000E+00
  0.00000000E+00  1.60000000E+01  1.00800000E+00  1.00800000E+00  0.00000000E+00
  1.60000000E+01  1.00800000E+00  1.00800000E+00  0.00000000E+00  1.60000000E+01
  1.00800000E+00  1.00800000E+00  0.00000000E+00  1.60000000E+01  1.00800000E+00
  1.00800000E+00  0.00000000E+00  1.60000000E+01  1.00800000E+00  1.00800000E+00
  0.00000000E+00  1.60000000E+01  1.00800000E+00  1.00800000E+00  0.00000000E+00
  1.60000000E+01  1.00800000E+00  1.00800000E+00  0.00000000E+00  1.60000000E+01
  1.00800000E+00  1.00800000E+00  0.00000000E+00  1.60000000E+01  1.00800000E+00
  1.00800000E+00  0.00000000E+00  1.60000000E+01  1.00800000E+00  1.00800000E+00
  0.00000000E+00  1.60000000E+01  1.00800000E+00  1.00800000E+00  0.00000000E+00
  1.60000000E+01  1.00800000E+00  1.00800000E+00  0.00000000E+00  1.60000000E+01
  1.00800000E+00  1.00800000E+00  0.00000000E+00  1.60000000E+01  1.00800000E+00
  1.00800000E+00  0.00000000E+00  1.60000000E+01  1.00800000E+00  1.00800000E+00
  0.00000000E+00  1.60000000E+01  1.00800000E+00  1.00800000E+00  0.00000000E+00
  1.60000000E+01  1.00800000E+00  1.00800000E+00  0.00000000E+00  1.60000000E+01
  1.00800000E+00  1.00800000E+00  0.00000000E+00  1.60000000E+01  1.00800000E+00
  1.00800000E+00  0.00000000E+00  1.60000000E+01  1.00800000E+00  1.00800000E+00
  0.00000000E+00  1.60000000E+01  1.00800000E+00  1.00800000E+00  0.00000000E+00
  1.60000000E+01  1.00800000E+00  1.00800000E+00  0.00000000E+00  1.60000000E+01
  1.00800000E+00  1.00800000E+00  0.00000000E+00  1.60000000E+01  1.00800000E+00
  1.00800000E+00  0.00000000E+00  1.60000000E+01  1.00800000E+00  1.00800000E+00
  0.00000000E+00  1.60000000E+01  1.00800000E+00  1.00800000E+00  0.00000000E+00
  1.60000000E+01  1.00800000E+00  1.00800000E+00  0.00000000E+00  1.60000000E+01
  1.00800000E+00  1.00800000E+00  0.00000000E+00  1.60000000E+01  1.00800000E+00
  1.00800000E+00  0.00000000E+00  1.60000000E+01  1.00800000E+00  1.00800000E+00
  0.00000000E+00  1.60000000E+01  1.00800000E+00  1.00800000E+00  0.00000000E+00
  1.60000000E+01  1.00800000E+00  1.00800000E+00  0.00000000E+00  1.60000000E+01
  1.00800000E+00  1.00800000E+00  0.00000000E+00  1.60000000E+01  1.00800000E+00
  1.00800000E+00  0.00000000E+00  1.60000000E+01  1.00800000E+00  1.00800000E+00
  0.00000000E+00  1.60000000E+01  1.00800000E+00  1.00800000E+00  0.00000000E+00
  1.60000000E+01  1.00800000E+00  1.00800000E+00  0.00000000E+00  1.60000000E+01
  1.00800000E+00  1.00800000E+00  0.00000000E+00  1.60000000E+01  1.00800000E+00
  1.00800000E+00  0.00000000E+00  1.60000000E+01  1.00800000E+00  1.00800000E+00
  0.00000000E+00  1.60000000E+01  1.00800000E+00  1.00800000E+00  0.00000000E+00
  1.60000000E+01  1.00800000E+00  1.00800000E+00  0.00000000E+00  1.60000000E+01
  1.00800000E+00  1.00800000E+00  0.00000000E+00  1.60000000E+01  1.00800000E+00
  1.00800000E+00  0.00000000E+00  1.60000000E+01  1.00800000E+00  1.00800000E+00
  0.00000000E+00  1.60000000E+01  1.00800000E+00  1.00800000E+00  0.00000000E+00
  1.60000000E+01  1.00800000E+00  1.00800000E+00  0.00000000E+00  1.60000000E+01
  1.00800000E+00  1.00800000E+00  0.00000000E+00  1.60000000E+01  1.00800000E+00
  1.00800000E+00  0.00000000E+00  1.60000000E+01  1.00800000E+00  1.00800000E+00
  0.00000000E+00  1.60000000E+01  1.00800000E+00  1.00800000E+00  0.00000000E+00
  1.60000000E+01  1.00800000E+00  1.00800000E+00  0.00000000E+00  1.60000000E+01
  1.00800000E+00  1.00800000E+00  0.00000000E+00  1.60000000E+01  1.00800000E+00
  1.00800000E+00  0.00000000E+00  1.60000000E+01  1.00800000E+00  1.00800000E+00
  0.00000000E+00  1.60000000E+01  1.00800000E+00  1.00800000E+00  0.00000000E+00
  1.60000000E+01  1.00800000E+00  1.00800000E+00  0.00000000E+00  1.60000000E+01
  1.00800000E+00  1.00800000E+00  0.00000000E+00  1.60000000E+01  1.00800000E+00
  1.00800000E+00  0.00000000E+00  1.60000000E+01  1.00800000E+00  1.00800000E+00
  0.00000000E+00  1.60000000E+01  1.00800000E+00  1.00800000E+00  0.00000000E+00
  1.60000000E+01  1.00800000E+00  1.00800000E+00  0.00000000E+00  1.60000000E+01
  1.00800000E+00  1.00800000E+00  0.00000000E+00  1.60000000E+01  1.00800000E+00
  1.00800000E+00  0.00000000E+00  1.60000000E+01  1.00800000E+00  1.00800000E+00
  0.00000000E+00  1.60000000E+01  1.00800000E+00  1.00800000E+00  0.00000000E+00
  1.60000000E+01  1.00800000E+00  1.00800000E+00  0.00000000E+00  1.60000000E+01
  1.00800000E+00  1.00800000E+00  0.00000000E+00  1.60000000E+01  1.00800000E+00
  1.00800000E+00  0.00000000E+00  1.60000000E+01  1.00800000E+00  1.00800000E+00
  0.00000000E+00  1.60000000E+01  1.00800000E+00  1.00800000E+00  0.00000000E+00
  1.60000000E+01  1.00800000E+00  1.00800000E+00  0.00000000E+00  1.60000000E+01
  1.00800000E+00  1.00800000E+00  0.00000000E+00  1.60000000E+01  1.00800000E+00
  1.00800000E+00  0.00000000E+00  1.60000000E+01  1.00800000E+00  1.00800000E+00
  0.00000000E+00  1.60000000E+01  1.00800000E+00  1.00800000E+00  0.00000000E+00
  1.60000000E+01  1.00800000E+00  1.00800000E+00  0.00000000E+00  1.60000000E+01
  1.00800000E+00  1.00800000E+00  0.00000000E+00  1.60000000E+01  1.00800000E+00
  1.00800000E+00  0.00000000E+00  1.60000000E+01  1.00800000E+00  1.00800000E+00
  0.00000000E+00  1.60000000E+01  1.00800000E+00  1.00800000E+00  0.00000000E+00
  1.60000000E+01  1.00800000E+00  1.00800000E+00  0.00000000E+00  1.60000000E+01
  1.00800000E+00  1.00800000E+00  0.00000000E+00  1.60000000E+01  1.00800000E+00
  1.00800000E+00  0.00000000E+00  1.60000000E+01  1.00800000E+00  1.00800000E+00
  0.00000000E+00  1.60000000E+01  1.00800000E+00  1.00800000E+00  0.00000000E+00
  1.60000000E+01  1.00800000E+00  1.00800000E+00  0.00000000E+00  1.60000000E+01
  1.00800000E+00  1.00800000E+00  0.00000000E+00  1.60000000E+01  1.00800000E+00
  1.00800000E+00  0.00000000E+00  1.60000000E+01  1.00800000E+00  1.00800000E+00
  0.00000000E+00  1.60000000E+01  1.00800000E+00  1.00800000E+00  0.00000000E+00
  1.60000000E+01  1.00800000E+00  1.00800000E+00  0.00000000E+00  1.60000000E+01
  1.00800000E+00  1.00800000E+00  0.00000000E+00  1.60000000E+01  1.00800000E+00
  1.00800000E+00  0.00000000E+00  1.60000000E+01  1.00800000E+00  1.00800000E+00
  0.00000000E+00  1.60000000E+01  1.00800000E+00  1.00800000E+00  0.00000000E+00
  1.60000000E+01  1.00800000E+00  1.00800000E+00  0.00000000E+00  1.60000000E+01
  1.00800000E+00  1.00800000E+00  0.00000000E+00  1.60000000E+01  1.00800000E+00
  1.00800000E+00  0.00000000E+00  1.60000000E+01  1.00800000E+00  1.00800000E+00
  0.00000000E+00  1.60000000E+01  1.00800000E+00  1.00800000E+00  0.00000000E+00
  1.60000000E+01  1.00800000E+00  1.00800000E+00  0.00000000E+00  1.60000000E+01
  1.00800000E+00  1.00800000E+00  0.00000000E+00  1.60000000E+01  1.00800000E+00
  1.00800000E+00  0.00000000E+00  1.60000000E+01  1.00800000E+00  1.00800000E+00
  0.00000000E+00  1.60000000E+01  1.00800000E+00  1.00800000E+00  0.00000000E+00
  1.60000000E+01  1.00800000E+00  1.00800000E+00  0.00000000E+00  1.60000000E+01
  1.00800000E+00  1.00800000E+00  0.00000000E+00  1.60000000E+01  1.00800000E+00
  1.00800000E+00  0.00000000E+00  1.60000000E+01  1.00800000E+00  1.00800000E+00
  0.00000000E+00  1.60000000E+01  1.00800000E+00  1.00800000E+00  0.00000000E+00
  1.60000000E+01  1.00800000E+00  1.00800000E+00  0.00000000E+00  1.60000000E+01
  1.00800000E+00  1.00800000E+00  0.00000000E+00  1.60000000E+01  1.00800000E+00
  1.00800000E+00  0.00000000E+00  1.60000000E+01  1.00800000E+00  1.00800000E+00
  0.00000000E+00  1.60000000E+01  1.00800000E+00  1.00800000E+00  0.00000000E+00
  1.60000000E+01  1.00800000E+00  1.00800000E+00  0.00000000E+00  1.60000000E+01
  1.00800000E+00  1.00800000E+00  0.00000000E+00  1.60000000E+01  1.00800000E+00
  1.00800000E+00  0.00000000E+00  1.60000000E+01  1.00800000E+00  1.00800000E+00
  0.00000000E+00  1.60000000E+01  1.00800000E+00  1.00800000E+00  0.00000000E+00
  1.60000000E+01  1.00800000E+00  1.00800000E+00  0.00000000E+00  1.60000000E+01
  1.00800000E+00  1.00800000E+00  0.00000000E+00  1.60000000E+01  1.00800000E+00
  1.00800000E+00  0.00000000E+00  1.60000000E+01  1.00800000E+00  1.00800000E+00
  0.00000000E+00  1.60000000E+01  1.00800000E+00  1.00800000E+00  0.00000000E+00
  1.60000000E+01  1.00800000E+00  1.00800000E+00  0.00000000E+00  1.60000000E+01
  1.00800000E+00  1.00800000E+00  0.00000000E+00  1.60000000E+01  1.00800000E+00
  1.00800000E+00  0.00000000E+00  1.60000000E+01  1.00800000E+00  1.00800000E+00
  0.00000000E+00  1.60000000E+01  1.00800000E+00  1.00800000E+00  0.00000000E+00
  1.60000000E+01  1.00800000E+00  1.00800000E+00  0.00000000E+00  1.60000000E+01
  1.00800000E+00  1.00800000E+00  0.00000000E+00  1.60000000E+01  1.00800000E+00
  1.00800000E+00  0.00000000E+00  1.60000000E+01  1.00800000E+00  1.00800000E+00
  0.00000000E+00  1.60000000E+01  1.00800000E+00  1.00800000E+00  0.00000000E+00
  1.60000000E+01  1.00800000E+00  1.00800000E+00  0.00000000E+00  1.60000000E+01
  1.00800000E+00  1.00800000E+00  0.00000000E+00  1.60000000E+01  1.00800000E+00
  1.00800000E+00  0.00000000E+00  1.60000000E+01  1.00800000E+00  1.00800000E+00
  0.00000000E+00  1.60000000E+01  1.00800000E+00  1.00800000E+00  0.00000000E+00
  1.60000000E+01  1.00800000E+00  1.00800000E+00  0.00000000E+00  1.60000000E+01
  1.00800000E+00  1.00800000E+00  0.00000000E+00  1.60000000E+01  1.00800000E+00
  1.00800000E+00  0.00000000E+00  1.60000000E+01  1.00800000E+00  1.00800000E+00
  0.00000000E+00  1.60000000E+01  1.00800000E+00  1.00800000E+00  0.00000000E+00
  1.60000000E+01  1.00800000E+00  1.00800000E+00  0.00000000E+00  1.60000000E+01
  1.00800000E+00  1.00800000E+00  0.00000000E+00  1.60000000E+01  1.00800000E+00
  1.00800000E+00  0.00000000E+00  1.60000000E+01  1.00800000E+00  1.00800000E+00
  0.00000000E+00  1.60000000E+01  1.00800000E+00  1.00800000E+00  0.00000000E+00
  1.60000000E+01  1.00800000E+00  1.00800000E+00  0.00000000E+00  1.60000000E+01
  1.00800000E+00  1.00800000E+00  0.00000000E+00  1.60000000E+01  1.00800000E+00
  1.00800000E+00  0.00000000E+00  1.60000000E+01  1.00800000E+00  1.00800000E+00
  0.00000000E+00  1.60000000E+01  1.00800000E+00  1.00800000E+00  0.00000000E+00
  1.60000000E+01  1.00800000E+00  1.00800000E+00  0.00000000E+00  1.60000000E+01
  1.00800000E+00  1.00800000E+00  0.00000000E+00  1.60000000E+01  1.00800000E+00
  1.00800000E+00  0.00000000E+00  1.60000000E+01  1.00800000E+00  1.00800000E+00
  0.00000000E+00  1.60000000E+01  1.00800000E+00  1.00800000E+00  0.00000000E+00
  1.60000000E+01  1.00800000E+00  1.00800000E+00  0.00000000E+00  1.60000000E+01
  1.00800000E+00  1.00800000E+00  0.00000000E+00  1.60000000E+01  1.00800000E+00
  1.00800000E+00  0.00000000E+00  1.60000000E+01  1.00800000E+00  1.00800000E+00
  0.00000000E+00  1.60000000E+01  1.00800000E+00  1.00800000E+00  0.00000000E+00
  1.60000000E+01  1.00800000E+00  1.00800000E+00  0.00000000E+00  1.60000000E+01
  1.00800000E+00  1.00800000E+00  0.00000000E+00  1.60000000E+01  1.00800000E+00
  1.00800000E+00  0.00000000E+00  1.60000000E+01  1.00800000E+00  1.00800000E+00
  0.00000000E+00  1.60000000E+01  1.00800000E+00  1.00800000E+00  0.00000000E+00
  1.60000000E+01  1.00800000E+00  1.00800000E+00  0.00000000E+00  1.60000000E+01
  1.00800000E+00  1.00800000E+00  0.00000000E+00  1.60000000E+01  1.00800000E+00
  1.00800000E+00  0.00000000E+00  1.60000000E+01  1.00800000E+00  1.00800000E+00
  0.00000000E+00  1.60000000E+01  1.00800000E+00  1.00800000E+00  0.00000000E+00
  1.60000000E+01  1.00800000E+00  1.00800000E+00  0.00000000E+00  1.60000000E+01
  1.00800000E+00  1.00800000E+00  0.00000000E+00  1.60000000E+01  1.00800000E+00
  1.00800000E+00  0.00000000E+00  1.60000000E+01  1.00800000E+00  1.00800000E+00
  0.00000000E+00  1.60000000E+01  1.00800000E+00  1.00800000E+00  0.00000000E+00
  1.60000000E+01  1.00800000E+00  1.00800000E+00  0.00000000E+00  1.60000000E+01
  1.00800000E+00  1.00800000E+00  0.00000000E+00  1.60000000E+01  1.00800000E+00
  1.00800000E+00  0.00000000E+00  1.60000000E+01  1.00800000E+00  1.00800000E+00
  0.00000000E+00  1.60000000E+01  1.00800000E+00  1.00800000E+00  0.00000000E+00
  1.60000000E+01  1.00800000E+00  1.00800000E+00  0.00000000E+00  1.60000000E+01
  1.00800000E+00  1.00800000E+00  0.00000000E+00  1.60000000E+01  1.00800000E+00
  1.00800000E+00  0.00000000E+00  1.60000000E+01  1.00800000E+00  1.00800000E+00
  0.00000000E+00  1.60000000E+01  1.00800000E+00  1.00800000E+00  0.00000000E+00
  1.60000000E+01  1.00800000E+00  1.00800000E+00  0.00000000E+00  1.60000000E+01
  1.00800000E+00  1.00800000E+00  0.00000000E+00  1.60000000E+01  1.00800000E+00
  1.00800000E+00  0.00000000E+00  1.60000000E+01  1.00800000E+00  1.00800000E+00
  0.00000000E+00  1.60000000E+01  1.00800000E+00  1.00800000E+00  0.00000000E+00
  1.60000000E+01  1.00800000E+00  1.00800000E+00  0.00000000E+00  1.60000000E+01
  1.00800000E+00  1.00800000E+00  0.00000000E+00  1.60000000E+01  1.00800000E+00
  1.00800000E+00  0.00000000E+00  1.60000000E+01  1.00800000E+00  1.00800000E+00
  0.00000000E+00  1.60000000E+01  1.00800000E+00  1.00800000E+00  0.00000000E+00
  1.60000000E+01  1.00800000E+00  1.00800000E+00  0.00000000E+00  1.60000000E+01
  1.00800000E+00  1.00800000E+00  0.00000000E+00  1.60000000E+01  1.00800000E+00
  1.00800000E+00  0.00000000E+00  1.60000000E+01  1.00800000E+00  1.00800000E+00
  0.00000000E+00  1.60000000E+01  1.00800000E+00  1.00800000E+00  0.00000000E+00
  1.60000000E+01  1.00800000E+00  1.00800000E+00  0.00000000E+00  1.60000000E+01
  1.00800000E+00  1.00800000E+00  0.00000000E+00  1.60000000E+01  1.00800000E+00
  1.00800000E+00  0.00000000E+00  1.60000000E+01  1.00800000E+00  1.00800000E+00
  0.00000000E+00  1.60000000E+01  1.00800000E+00  1.00800000E+00  0.00000000E+00
  1.60000000E+01  1.00800000E+00  1.00800000E+00  0.00000000E+00  1.60000000E+01
  1.00800000E+00  1.00800000E+00  0.00000000E+00  1.60000000E+01  1.00800000E+00
  1.00800000E+00  0.00000000E+00  1.60000000E+01  1.00800000E+00  1.00800000E+00
  0.00000000E+00  1.60000000E+01  1.00800000E+00  1.00800000E+00  0.00000000E+00
  1.60000000E+01  1.00800000E+00  1.00800000E+00  0.00000000E+00  1.60000000E+01
  1.00800000E+00  1.00800000E+00  0.00000000E+00  1.60000000E+01  1.00800000E+00
  1.00800000E+00  0.00000000E+00  1.60000000E+01  1.00800000E+00  1.00800000E+00
  0.00000000E+00  1.60000000E+01  1.00800000E+00  1.00800000E+00  0.00000000E+00
  1.60000000E+01  1.00800000E+00  1.00800000E+00  0.00000000E+00  1.60000000E+01
  1.00800000E+00  1.00800000E+00  0.00000000E+00  1.60000000E+01  1.00800000E+00
  1.00800000E+00  0.00000000E+00  1.60000000E+01  1.00800000E+00  1.00800000E+00
  0.00000000E+00  1.60000000E+01  1.00800000E+00  1.00800000E+00  0.00000000E+00
  1.60000000E+01  1.00800000E+00  1.00800000E+00  0.00000000E+00  1.60000000E+01
  1.00800000E+00  1.00800000E+00  0.00000000E+00  1.60000000E+01  1.00800000E+00
  1.00800000E+00  0.00000000E+00  1.60000000E+01  1.00800000E+00  1.00800000E+00
  0.00000000E+00  1.60000000E+01  1.00800000E+00  1.00800000E+00  0.00000000E+00
  1.60000000E+01  1.00800000E+00  1.00800000E+00  0.00000000E+00  1.60000000E+01
  1.00800000E+00  1.00800000E+00  0.00000000E+00  1.60000000E+01  1.00800000E+00
  1.00800000E+00  0.00000000E+00  1.60000000E+01  1.00800000E+00  1.00800000E+00
  0.00000000E+00  1.60000000E+01  1.00800000E+00  1.00800000E+00  0.00000000E+00
  1.60000000E+01  1.00800000E+00  1.00800000E+00  0.00000000E+00  1.60000000E+01
  1.00800000E+00  1.00800000E+00  0.00000000E+00  1.60000000E+01  1.00800000E+00
  1.00800000E+00  0.00000000E+00  1.60000000E+01  1.00800000E+00  1.00800000E+00
  0.00000000E+00  1.60000000E+01  1.00800000E+00  1.00800000E+00  0.00000000E+00
  1.60000000E+01  1.00800000E+00  1.00800000E+00  0.00000000E+00  1.60000000E+01
  1.00800000E+00  1.00800000E+00  0.00000000E+00  1.60000000E+01  1.00800000E+00
  1.00800000E+00  0.00000000E+00  1.60000000E+01  1.00800000E+00  1.00800000E+00
  0.00000000E+00  1.60000000E+01  1.00800000E+00  1.00800000E+00  0.00000000E+00
  1.60000000E+01  1.00800000E+00  1.00800000E+00  0.00000000E+00  1.60000000E+01
  1.00800000E+00  1.00800000E+00  0.00000000E+00  1.60000000E+01  1.00800000E+00
  1.00800000E+00  0.00000000E+00  1.60000000E+01  1.00800000E+00  1.00800000E+00
  0.00000000E+00  1.60000000E+01  1.00800000E+00  1.00800000E+00  0.00000000E+00
  1.60000000E+01  1.00800000E+00  1.00800000E+00  0.00000000E+00  1.60000000E+01
  1.00800000E+00  1.00800000E+00  0.00000000E+00  1.60000000E+01  1.00800000E+00
  1.00800000E+00  0.00000000E+00  1.60000000E+01  1.00800000E+00  1.00800000E+00
  0.00000000E+00  1.60000000E+01  1.00800000E+00  1.00800000E+00  0.00000000E+00
  1.60000000E+01  1.00800000E+00  1.00800000E+00  0.00000000E+00  1.60000000E+01
  1.00800000E+00  1.00800000E+00  0.00000000E+00  1.60000000E+01  1.00800000E+00
  1.00800000E+00  0.00000000E+00  1.60000000E+01  1.00800000E+00  1.00800000E+00
  0.00000000E+00  1.60000000E+01  1.00800000E+00  1.00800000E+00  0.00000000E+00
  1.60000000E+01  1.00800000E+00  1.00800000E+00  0.00000000E+00  1.60000000E+01
  1.00800000E+00  1.00800000E+00  0.00000000E+00  1.60000000E+01  1.00800000E+00
  1.00800000E+00  0.00000000E+00  1.60000000E+01  1.00800000E+00  1.00800000E+00
  0.00000000E+00  1.60000000E+01  1.00800000E+00  1.00800000E+00  0.00000000E+00
  1.60000000E+01  1.00800000E+00  1.00800000E+00  0.00000000E+00  1.60000000E+01
  1.00800000E+00  1.00800000E+00  0.00000000E+00  1.60000000E+01  1.00800000E+00
  1.00800000E+00  0.00000000E+00  1.60000000E+01  1.00800000E+00  1.00800000E+00
  0.00000000E+00  1.60000000E+01  1.00800000E+00  1.00800000E+00  0.00000000E+00
  1.60000000E+01  1.00800000E+00  1.00800000E+00  0.00000000E+00  1.60000000E+01
  1.00800000E+00  1.00800000E+00  0.00000000E+00  1.60000000E+01  1.00800000E+00
  1.00800000E+00  0.00000000E+00  1.60000000E+01  1.00800000E+00  1.00800000E+00
  0.00000000E+00  1.60000000E+01  1.00800000E+00  1.00800000E+00  0.00000000E+00
  1.60000000E+01  1.00800000E+00  1.00800000E+00  0.00000000E+00  1.60000000E+01
  1.00800000E+00  1.00800000E+00  0.00000000E+00  1.60000000E+01  1.00800000E+00
  1.00800000E+00  0.00000000E+00  1.60000000E+01  1.00800000E+00  1.00800000E+00
  0.00000000E+00  1.60000000E+01  1.00800000E+00  1.00800000E+00  0.00000000E+00
  1.60000000E+01  1.00800000E+00  1.00800000E+00  0.00000000E+00  1.60000000E+01
  1.00800000E+00  1.00800000E+00  0.00000000E+00  1.60000000E+01  1.00800000E+00
  1.00800000E+00  0.00000000E+00  1.60000000E+01  1.00800000E+00  1.00800000E+00
  0.00000000E+00  1.60000000E+01  1.00800000E+00  1.00800000E+00  0.00000000E+00
  1.60000000E+01  1.00800000E+00  1.00800000E+00  0.00000000E+00  1.60000000E+01
  1.00800000E+00  1.00800000E+00  0.00000000E+00  1.60000000E+01  1.00800000E+00
  1.00800000E+00  0.00000000E+00  1.60000000E+01  1.00800000E+00  1.00800000E+00
  0.00000000E+00  1.60000000E+01  1.00800000E+00  1.00800000E+00  0.00000000E+00
  1.60000000E+01  1.00800000E+00  1.00800000E+00  0.00000000E+00  1.60000000E+01
  1.00800000E+00  1.00800000E+00  0.00000000E+00  1.60000000E+01  1.00800000E+00
  1.00800000E+00  0.00000000E+00  1.60000000E+01  1.00800000E+00  1.00800000E+00
  0.00000000E+00  1.60000000E+01  1.00800000E+00  1.00800000E+00  0.00000000E+00
  1.60000000E+01  1.00800000E+00  1.00800000E+00  0.00000000E+00  1.60000000E+01
  1.00800000E+00  1.00800000E+00  0.00000000E+00  1.60000000E+01  1.00800000E+00
  1.00800000E+00  0.00000000E+00  1.60000000E+01  1.00800000E+00  1.00800000E+00
  0.00000000E+00  1.60000000E+01  1.00800000E+00  1.00800000E+00  0.00000000E+00
  1.60000000E+01  1.00800000E+00  1.00800000E+00  0.00000000E+00  1.60000000E+01
  1.00800000E+00  1.00800000E+00  0.00000000E+00  1.60000000E+01  1.00800000E+00
  1.00800000E+00  0.00000000E+00  1.60000000E+01  1.00800000E+00  1.00800000E+00
  0.00000000E+00  1.60000000E+01  1.00800000E+00  1.00800000E+00  0.00000000E+00
  1.60000000E+01  1.00800000E+00  1.00800000E+00  0.00000000E+00  1.60000000E+01
  1.00800000E+00  1.00800000E+00  0.00000000E+00  1.60000000E+01  1.00800000E+00
  1.00800000E+00  0.00000000E+00  1.60000000E+01  1.00800000E+00  1.00800000E+00
  0.00000000E+00  1.60000000E+01  1.00800000E+00  1.00800000E+00  0.00000000E+00
  1.60000000E+01  1.00800000E+00  1.00800000E+00  0.00000000E+00  1.60000000E+01
  1.00800000E+00  1.00800000E+00  0.00000000E+00  1.60000000E+01  1.00800000E+00
  1.00800000E+00  0.00000000E+00  1.60000000E+01  1.00800000E+00  1.00800000E+00
  0.00000000E+00  1.60000000E+01  1.00800000E+00  1.00800000E+00  0.00000000E+00
  1.60000000E+01  1.00800000E+00  1.00800000E+00  0.00000000E+00  1.60000000E+01
  1.00800000E+00  1.00800000E+00  0.00000000E+00  1.60000000E+01  1.00800000E+00
  1.00800000E+00  0.00000000E+00  1.60000000E+01  1.00800000E+00  1.00800000E+00
  0.00000000E+00  1.60000000E+01  1.00800000E+00  1.00800000E+00  0.00000000E+00
  1.60000000E+01  1.00800000E+00  1.00800000E+00  0.00000000E+00  1.60000000E+01
  1.00800000E+00  1.00800000E+00  0.00000000E+00  1.60000000E+01  1.00800000E+00
  1.00800000E+00  0.00000000E+00  1.60000000E+01  1.00800000E+00  1.00800000E+00
  0.00000000E+00  1.60000000E+01  1.00800000E+00  1.00800000E+00  0.00000000E+00
  1.60000000E+01  1.00800000E+00  1.00800000E+00  0.00000000E+00  1.60000000E+01
  1.00800000E+00  1.00800000E+00  0.00000000E+00  1.60000000E+01  1.00800000E+00
  1.00800000E+00  0.00000000E+00  1.60000000E+01  1.00800000E+00  1.00800000E+00
  0.00000000E+00  1.60000000E+01  1.00800000E+00  1.00800000E+00  0.00000000E+00
  1.60000000E+01  1.00800000E+00  1.00800000E+00  0.00000000E+00  1.60000000E+01
  1.00800000E+00  1.00800000E+00  0.00000000E+00  1.60000000E+01  1.00800000E+00
  1.00800000E+00  0.00000000E+00  1.60000000E+01  1.00800000E+00  1.00800000E+00
  0.00000000E+00  1.60000000E+01  1.00800000E+00  1.00800000E+00  0.00000000E+00
  1.60000000E+01  1.00800000E+00  1.00800000E+00  0.00000000E+00  1.60000000E+01
  1.00800000E+00  1.00800000E+00  0.00000000E+00  1.60000000E+01  1.00800000E+00
  1.00800000E+00  0.00000000E+00  1.60000000E+01  1.00800000E+00  1.00800000E+00
  0.00000000E+00  1.60000000E+01  1.00800000E+00  1.00800000E+00  0.00000000E+00
  1.60000000E+01  1.00800000E+00  1.00800000E+00  0.00000000E+00  1.60000000E+01
  1.00800000E+00  1.00800000E+00  0.00000000E+00  1.60000000E+01  1.00800000E+00
  1.00800000E+00  0.00000000E+00  1.60000000E+01  1.00800000E+00  1.00800000E+00
  0.00000000E+00  1.60000000E+01  1.00800000E+00  1.00800000E+00  0.00000000E+00
  1.60000000E+01  1.00800000E+00  1.00800000E+00  0.00000000E+00  1.60000000E+01
  1.00800000E+00  1.00800000E+00  0.00000000E+00  1.60000000E+01  1.00800000E+00
  1.00800000E+00  0.00000000E+00  1.60000000E+01  1.00800000E+00  1.00800000E+00
  0.00000000E+00  1.60000000E+01  1.00800000E+00  1.00800000E+00  0.00000000E+00
  1.60000000E+01  1.00800000E+00  1.00800000E+00  0.00000000E+00  1.60000000E+01
  1.00800000E+00  1.00800000E+00  0.00000000E+00  1.60000000E+01  1.00800000E+00
  1.00800000E+00  0.00000000E+00  1.60000000E+01  1.00800000E+00  1.00800000E+00
  0.00000000E+00  1.60000000E+01  1.00800000E+00  1.00800000E+00  0.00000000E+00
  1.60000000E+01  1.00800000E+00  1.00800000E+00  0.00000000E+00  1.60000000E+01
  1.00800000E+00  1.00800000E+00  0.00000000E+00  1.60000000E+01  1.00800000E+00
  1.00800000E+00  0.00000000E+00  1.60000000E+01  1.00800000E+00  1.00800000E+00
  0.00000000E+00  1.60000000E+01  1.00800000E+00  1.00800000E+00  0.00000000E+00
  1.60000000E+01  1.00800000E+00  1.00800000E+00  0.00000000E+00  1.60000000E+01
  1.00800000E+00  1.00800000E+00  0.00000000E+00  1.60000000E+01  1.00800000E+00
  1.00800000E+00  0.00000000E+00  1.60000000E+01  1.00800000E+00  1.00800000E+00
  0.00000000E+00  1.60000000E+01  1.00800000E+00  1.00800000E+00  0.00000000E+00
  1.60000000E+01  1.00800000E+00  1.00800000E+00  0.00000000E+00  1.60000000E+01
  1.00800000E+00  1.00800000E+00  0.00000000E+00  1.60000000E+01  1.00800000E+00
  1.00800000E+00  0.00000000E+00  1.60000000E+01  1.00800000E+00  1.00800000E+00
  0.00000000E+00  1.60000000E+01  1.00800000E+00  1.00800000E+00  0.00000000E+00
  1.60000000E+01  1.00800000E+00  1.00800000E+00  0.00000000E+00  1.60000000E+01
  1.00800000E+00  1.00800000E+00  0.00000000E+00  1.60000000E+01  1.00800000E+00
  1.00800000E+00  0.00000000E+00  1.60000000E+01  1.00800000E+00  1.00800000E+00
  0.00000000E+00  1.60000000E+01  1.00800000E+00  1.00800000E+00  0.00000000E+00
  1.60000000E+01  1.00800000E+00  1.00800000E+00  0.00000000E+00  1.60000000E+01
  1.00800000E+00  1.00800000E+00  0.00000000E+00  1.60000000E+01  1.00800000E+00
  1.00800000E+00  0.00000000E+00  1.60000000E+01  1.00800000E+00  1.00800000E+00
  0.00000000E+00  1.60000000E+01  1.00800000E+00  1.00800000E+00  0.00000000E+00
  1.60000000E+01  1.00800000E+00  1.00800000E+00  0.00000000E+00  1.60000000E+01
  1.00800000E+00  1.00800000E+00  0.00000000E+00  1.60000000E+01  1.00800000E+00
  1.00800000E+00  0.00000000E+00  1.60000000E+01  1.00800000E+00  1.00800000E+00
  0.00000000E+00  1.60000000E+01  1.00800000E+00  1.00800000E+00  0.00000000E+00
  1.60000000E+01  1.00800000E+00  1.00800000E+00  0.00000000E+00  1.60000000E+01
  1.00800000E+00  1.00800000E+00  0.00000000E+00  1.60000000E+01  1.00800000E+00
  1.00800000E+00  0.00000000E+00  1.60000000E+01  1.00800000E+00  1.00800000E+00
  0.00000000E+00  1.60000000E+01  1.00800000E+00  1.00800000E+00  0.00000000E+00
  1.60000000E+01  1.00800000E+00  1.00800000E+00  0.00000000E+00  1.60000000E+01
  1.00800000E+00  1.00800000E+00  0.00000000E+00  1.60000000E+01  1.00800000E+00
  1.00800000E+00  0.00000000E+00  1.60000000E+01  1.00800000E+00  1.00800000E+00
  0.00000000E+00  1.60000000E+01  1.00800000E+00  1.00800000E+00  0.00000000E+00
  1.60000000E+01  1.00800000E+00  1.00800000E+00  0.00000000E+00  1.60000000E+01
  1.00800000E+00  1.00800000E+00  0.00000000E+00  1.60000000E+01  1.00800000E+00
  1.00800000E+00  0.00000000E+00  1.60000000E+01  1.00800000E+00  1.00800000E+00
  0.00000000E+00  1.60000000E+01  1.00800000E+00  1.00800000E+00  0.00000000E+00
  1.60000000E+01  1.00800000E+00  1.00800000E+00  0.00000000E+00  1.60000000E+01
  1.00800000E+00  1.00800000E+00  0.00000000E+00  1.60000000E+01  1.00800000E+00
  1.00800000E+00  0.00000000E+00  1.60000000E+01  1.00800000E+00  1.00800000E+00
  0.00000000E+00  1.60000000E+01  1.00800000E+00  1.00800000E+00  0.00000000E+00
  1.60000000E+01  1.00800000E+00  1.00800000E+00  0.00000000E+00  1.60000000E+01
  1.00800000E+00  1.00800000E+00  0.00000000E+00  1.60000000E+01  1.00800000E+00
  1.00800000E+00  0.00000000E+00  1.60000000E+01  1.00800000E+00  1.00800000E+00
  0.00000000E+00  1.60000000E+01  1.00800000E+00  1.00800000E+00  0.00000000E+00
  1.60000000E+01  1.00800000E+00  1.00800000E+00  0.00000000E+00  1.60000000E+01
  1.00800000E+00  1.00800000E+00  0.00000000E+00  1.60000000E+01  1.00800000E+00
  1.00800000E+00  0.00000000E+00  1.60000000E+01  1.00800000E+00  1.00800000E+00
  0.00000000E+00  1.60000000E+01  1.00800000E+00  1.00800000E+00  0.00000000E+00
  1.60000000E+01  1.00800000E+00  1.00800000E+00  0.00000000E+00  1.60000000E+01
  1.00800000E+00  1.00800000E+00  0.00000000E+00  1.60000000E+01  1.00800000E+00
  1.00800000E+00  0.00000000E+00  1.60000000E+01  1.00800000E+00  1.00800000E+00
  0.00000000E+00  1.60000000E+01  1.00800000E+00  1.00800000E+00  0.00000000E+00
  1.60000000E+01  1.00800000E+00  1.00800000E+00  0.00000000E+00  1.60000000E+01
  1.00800000E+00  1.00800000E+00  0.00000000E+00  1.60000000E+01  1.00800000E+00
  1.00800000E+00  0.00000000E+00  1.60000000E+01  1.00800000E+00  1.00800000E+00
  0.00000000E+00  1.60000000E+01  1.00800000E+00  1.00800000E+00  0.00000000E+00
  1.60000000E+01  1.00800000E+00  1.00800000E+00  0.00000000E+00  1.60000000E+01
  1.00800000E+00  1.00800000E+00  0.00000000E+00  1.60000000E+01  1.00800000E+00
  1.00800000E+00  0.00000000E+00  1.60000000E+01  1.00800000E+00  1.00800000E+00
  0.00000000E+00  1.60000000E+01  1.00800000E+00  1.00800000E+00  0.00000000E+00
  1.60000000E+01  1.00800000E+00  1.00800000E+00  0.00000000E+00  1.60000000E+01
  1.00800000E+00  1.00800000E+00  0.00000000E+00  1.60000000E+01  1.00800000E+00
  1.00800000E+00  0.00000000E+00  1.60000000E+01  1.00800000E+00  1.00800000E+00
  0.00000000E+00  1.60000000E+01  1.00800000E+00  1.00800000E+00  0.00000000E+00
  1.60000000E+01  1.00800000E+00  1.00800000E+00  0.00000000E+00  1.60000000E+01
  1.00800000E+00  1.00800000E+00  0.00000000E+00  1.60000000E+01  1.00800000E+00
  1.00800000E+00  0.00000000E+00  1.60000000E+01  1.00800000E+00  1.00800000E+00
  0.00000000E+00  1.60000000E+01  1.00800000E+00  1.00800000E+00  0.00000000E+00
  1.60000000E+01  1.00800000E+00  1.00800000E+00  0.00000000E+00  1.60000000E+01
  1.00800000E+00  1.00800000E+00  0.00000000E+00  1.60000000E+01  1.00800000E+00
  1.00800000E+00  0.00000000E+00  1.60000000E+01  1.00800000E+00  1.00800000E+00
  0.00000000E+00  1.60000000E+01  1.00800000E+00  1.00800000E+00  0.00000000E+00
  1.60000000E+01  1.00800000E+00  1.00800000E+00  0.00000000E+00  1.60000000E+01
  1.00800000E+00  1.00800000E+00  0.00000000E+00  1.60000000E+01  1.00800000E+00
  1.00800000E+00  0.00000000E+00  1.60000000E+01  1.00800000E+00  1.00800000E+00
  0.00000000E+00  1.60000000E+01  1.00800000E+00  1.00800000E+00  0.00000000E+00
  1.60000000E+01  1.00800000E+00  1.00800000E+00  0.00000000E+00  1.60000000E+01
  1.00800000E+00  1.00800000E+00  0.00000000E+00  1.60000000E+01  1.00800000E+00
  1.00800000E+00  0.00000000E+00  1.60000000E+01  1.00800000E+00  1.00800000E+00
  0.00000000E+00  1.60000000E+01  1.00800000E+00  1.00800000E+00  0.00000000E+00
  1.60000000E+01  1.00800000E+00  1.00800000E+00  0.00000000E+00  1.60000000E+01
  1.00800000E+00  1.00800000E+00  0.00000000E+00  1.60000000E+01  1.00800000E+00
  1.00800000E+00  0.00000000E+00  1.60000000E+01  1.00800000E+00  1.00800000E+00
  0.00000000E+00  1.60000000E+01  1.00800000E+00  1.00800000E+00  0.00000000E+00
  1.60000000E+01  1.00800000E+00  1.00800000E+00  0.00000000E+00  1.60000000E+01
  1.00800000E+00  1.00800000E+00  0.00000000E+00  1.60000000E+01  1.00800000E+00
  1.00800000E+00  0.00000000E+00  1.60000000E+01  1.00800000E+00  1.00800000E+00
  0.00000000E+00  1.60000000E+01  1.00800000E+00  1.00800000E+00  0.00000000E+00
  1.60000000E+01  1.00800000E+00  1.00800000E+00  0.00000000E+00  1.60000000E+01
  1.00800000E+00  1.00800000E+00  0.00000000E+00  1.60000000E+01  1.00800000E+00
  1.00800000E+00  0.00000000E+00  1.60000000E+01  1.00800000E+00  1.00800000E+00
  0.00000000E+00  1.60000000E+01  1.00800000E+00  1.00800000E+00  0.00000000E+00
  1.60000000E+01  1.00800000E+00  1.00800000E+00  0.00000000E+00  1.60000000E+01
  1.00800000E+00  1.00800000E+00  0.00000000E+00  1.60000000E+01  1.00800000E+00
  1.00800000E+00  0.00000000E+00  1.60000000E+01  1.00800000E+00  1.00800000E+00
  0.00000000E+00  1.60000000E+01  1.00800000E+00  1.00800000E+00  0.00000000E+00
  1.60000000E+01  1.00800000E+00  1.00800000E+00  0.00000000E+00  1.60000000E+01
  1.00800000E+00  1.00800000E+00  0.00000000E+00  1.60000000E+01  1.00800000E+00
  1.00800000E+00  0.00000000E+00  1.60000000E+01  1.00800000E+00  1.00800000E+00
  0.00000000E+00  1.60000000E+01  1.00800000E+00  1.00800000E+00  0.00000000E+00
  1.60000000E+01  1.00800000E+00  1.00800000E+00  0.00000000E+00  1.60000000E+01
  1.00800000E+00  1.00800000E+00  0.00000000E+00  1.60000000E+01  1.00800000E+00
  1.00800000E+00  0.00000000E+00  1.60000000E+01  1.00800000E+00  1.00800000E+00
  0.00000000E+00  1.60000000E+01  1.00800000E+00  1.00800000E+00  0.00000000E+00
  1.60000000E+01  1.00800000E+00  1.00800000E+00  0.00000000E+00  1.60000000E+01
  1.00800000E+00  1.00800000E+00  0.00000000E+00  1.60000000E+01  1.00800000E+00
  1.00800000E+00  0.00000000E+00  1.60000000E+01  1.00800000E+00  1.00800000E+00
  0.00000000E+00  1.60000000E+01  1.00800000E+00  1.00800000E+00  0.00000000E+00
  1.60000000E+01  1.00800000E+00  1.00800000E+00  0.00000000E+00  1.60000000E+01
  1.00800000E+00  1.00800000E+00  0.00000000E+00  1.60000000E+01  1.00800000E+00
  1.00800000E+00  0.00000000E+00  1.60000000E+01  1.00800000E+00  1.00800000E+00
  0.00000000E+00  1.60000000E+01  1.00800000E+00  1.00800000E+00  0.00000000E+00
  1.60000000E+01  1.00800000E+00  1.00800000E+00  0.00000000E+00  1.60000000E+01
  1.00800000E+00  1.00800000E+00  0.00000000E+00  1.60000000E+01  1.00800000E+00
  1.00800000E+00  0.00000000E+00  1.60000000E+01  1.00800000E+00  1.00800000E+00
  0.00000000E+00  1.60000000E+01  1.00800000E+00  1.00800000E+00  0.00000000E+00
  1.60000000E+01  1.00800000E+00  1.00800000E+00  0.00000000E+00  1.60000000E+01
  1.00800000E+00  1.00800000E+00  0.00000000E+00  1.60000000E+01  1.00800000E+00
  1.00800000E+00  0.00000000E+00  1.60000000E+01  1.00800000E+00  1.00800000E+00
  0.00000000E+00  1.60000000E+01  1.00800000E+00  1.00800000E+00  0.00000000E+00
  1.60000000E+01  1.00800000E+00  1.00800000E+00  0.00000000E+00  1.60000000E+01
  1.00800000E+00  1.00800000E+00  0.00000000E+00  1.60000000E+01  1.00800000E+00
  1.00800000E+00  0.00000000E+00  1.60000000E+01  1.00800000E+00  1.00800000E+00
  0.00000000E+00  1.60000000E+01  1.00800000E+00  1.00800000E+00  0.00000000E+00
  1.60000000E+01  1.00800000E+00  1.00800000E+00  0.00000000E+00  1.60000000E+01
  1.00800000E+00  1.00800000E+00  0.00000000E+00  1.60000000E+01  1.00800000E+00
  1.00800000E+00  0.00000000E+00  1.60000000E+01  1.00800000E+00  1.00800000E+00
  0.00000000E+00  1.60000000E+01  1.00800000E+00  1.00800000E+00  0.00000000E+00
  1.60000000E+01  1.00800000E+00  1.00800000E+00  0.00000000E+00  1.60000000E+01
  1.00800000E+00  1.00800000E+00  0.00000000E+00  1.60000000E+01  1.00800000E+00
  1.00800000E+00  0.00000000E+00  1.60000000E+01  1.00800000E+00  1.00800000E+00
  0.00000000E+00  1.60000000E+01  1.00800000E+00  1.00800000E+00  0.00000000E+00
  1.60000000E+01  1.00800000E+00  1.00800000E+00  0.00000000E+00  1.60000000E+01
  1.00800000E+00  1.00800000E+00  0.00000000E+00  1.60000000E+01  1.00800000E+00
  1.00800000E+00  0.00000000E+00  1.60000000E+01  1.00800000E+00  1.00800000E+00
  0.00000000E+00  1.60000000E+01  1.00800000E+00  1.00800000E+00  0.00000000E+00
  1.60000000E+01  1.00800000E+00  1.00800000E+00  0.00000000E+00  1.60000000E+01
  1.00800000E+00  1.00800000E+00  0.00000000E+00  1.60000000E+01  1.00800000E+00
  1.00800000E+00  0.00000000E+00  1.60000000E+01  1.00800000E+00  1.00800000E+00
  0.00000000E+00  1.60000000E+01  1.00800000E+00  1.00800000E+00  0.00000000E+00
  1.60000000E+01  1.00800000E+00  1.00800000E+00  0.00000000E+00  1.60000000E+01
  1.00800000E+00  1.00800000E+00  0.00000000E+00  1.60000000E+01  1.00800000E+00
  1.00800000E+00  0.00000000E+00  1.60000000E+01  1.00800000E+00  1.00800000E+00
  0.00000000E+00  1.60000000E+01  1.00800000E+00  1.00800000E+00  0.00000000E+00
  1.60000000E+01  1.00800000E+00  1.00800000E+00  0.00000000E+00  1.60000000E+01
  1.00800000E+00  1.00800000E+00  0.00000000E+00  1.60000000E+01  1.00800000E+00
  1.00800000E+00  0.00000000E+00  1.60000000E+01  1.00800000E+00  1.00800000E+00
  0.00000000E+00  1.60000000E+01  1.00800000E+00  1.00800000E+00  0.00000000E+00
  1.60000000E+01  1.00800000E+00  1.00800000E+00  0.00000000E+00  1.60000000E+01
  1.00800000E+00  1.00800000E+00  0.00000000E+00  1.60000000E+01  1.00800000E+00
  1.00800000E+00  0.00000000E+00  1.60000000E+01  1.00800000E+00  1.00800000E+00
  0.00000000E+00  1.60000000E+01  1.00800000E+00  1.00800000E+00  0.00000000E+00
  1.60000000E+01  1.00800000E+00  1.00800000E+00  0.00000000E+00  1.60000000E+01
  1.00800000E+00  1.00800000E+00  0.00000000E+00  1.60000000E+01  1.00800000E+00
  1.00800000E+00  0.00000000E+00  1.60000000E+01  1.00800000E+00  1.00800000E+00
  0.00000000E+00  1.60000000E+01  1.00800000E+00  1.00800000E+00  0.00000000E+00
  1.60000000E+01  1.00800000E+00  1.00800000E+00  0.00000000E+00  1.60000000E+01
  1.00800000E+00  1.00800000E+00  0.00000000E+00  1.60000000E+01  1.00800000E+00
  1.00800000E+00  0.00000000E+00  1.60000000E+01  1.00800000E+00  1.00800000E+00
  0.00000000E+00  1.60000000E+01  1.00800000E+00  1.00800000E+00  0.00000000E+00
  1.60000000E+01  1.00800000E+00  1.00800000E+00  0.00000000E+00  1.60000000E+01
  1.00800000E+00  1.00800000E+00  0.00000000E+00  1.60000000E+01  1.00800000E+00
  1.00800000E+00  0.00000000E+00  1.60000000E+01  1.00800000E+00  1.00800000E+00
  0.00000000E+00  1.60000000E+01  1.00800000E+00  1.00800000E+00  0.00000000E+00
  1.60000000E+01  1.00800000E+00  1.00800000E+00  0.00000000E+00  1.60000000E+01
  1.00800000E+00  1.00800000E+00  0.00000000E+00  1.60000000E+01  1.00800000E+00
  1.00800000E+00  0.00000000E+00  1.60000000E+01  1.00800000E+00  1.00800000E+00
  0.00000000E+00  1.60000000E+01  1.00800000E+00  1.00800000E+00  0.00000000E+00
  1.60000000E+01  1.00800000E+00  1.00800000E+00  0.00000000E+00  1.60000000E+01
  1.00800000E+00  1.00800000E+00  0.00000000E+00  1.60000000E+01  1.00800000E+00
  1.00800000E+00  0.00000000E+00  1.60000000E+01  1.00800000E+00  1.00800000E+00
  0.00000000E+00  1.60000000E+01  1.00800000E+00  1.00800000E+00  0.00000000E+00
  1.60000000E+01  1.00800000E+00  1.00800000E+00  0.00000000E+00  1.60000000E+01
  1.00800000E+00  1.00800000E+00  0.00000000E+00  1.60000000E+01  1.00800000E+00
  1.00800000E+00  0.00000000E+00  1.60000000E+01  1.00800000E+00  1.00800000E+00
  0.00000000E+00  1.60000000E+01  1.00800000E+00  1.00800000E+00  0.00000000E+00
  1.60000000E+01  1.00800000E+00  1.00800000E+00  0.00000000E+00  1.60000000E+01
  1.00800000E+00  1.00800000E+00  0.00000000E+00  1.60000000E+01  1.00800000E+00
  1.00800000E+00  0.00000000E+00  1.60000000E+01  1.00800000E+00  1.00800000E+00
  0.00000000E+00  1.60000000E+01  1.00800000E+00  1.00800000E+00  0.00000000E+00
  1.60000000E+01  1.00800000E+00  1.00800000E+00  0.00000000E+00  1.60000000E+01
  1.00800000E+00  1.00800000E+00  0.00000000E+00  1.60000000E+01  1.00800000E+00
  1.00800000E+00  0.00000000E+00  1.60000000E+01  1.00800000E+00  1.00800000E+00
  0.00000000E+00  1.60000000E+01  1.00800000E+00  1.00800000E+00  0.00000000E+00
  1.60000000E+01  1.00800000E+00  1.00800000E+00  0.00000000E+00  1.60000000E+01
  1.00800000E+00  1.00800000E+00  0.00000000E+00  1.60000000E+01  1.00800000E+00
  1.00800000E+00  0.00000000E+00  1.60000000E+01  1.00800000E+00  1.00800000E+00
  0.00000000E+00  1.60000000E+01  1.00800000E+00  1.00800000E+00  0.00000000E+00
  1.60000000E+01  1.00800000E+00  1.00800000E+00  0.00000000E+00  1.60000000E+01
  1.00800000E+00  1.00800000E+00  0.00000000E+00  1.60000000E+01  1.00800000E+00
  1.00800000E+00  0.00000000E+00  1.60000000E+01  1.00800000E+00  1.00800000E+00
  0.00000000E+00  1.60000000E+01  1.00800000E+00  1.00800000E+00  0.00000000E+00
  1.60000000E+01  1.00800000E+00  1.00800000E+00  0.00000000E+00  1.60000000E+01
  1.00800000E+00  1.00800000E+00  0.00000000E+00  1.60000000E+01  1.00800000E+00
  1.00800000E+00  0.00000000E+00  1.60000000E+01  1.00800000E+00  1.00800000E+00
  0.00000000E+00  1.60000000E+01  1.00800000E+00  1.00800000E+00  0.00000000E+00
  1.60000000E+01  1.00800000E+00  1.00800000E+00  0.00000000E+00  1.60000000E+01
  1.00800000E+00  1.00800000E+00  0.00000000E+00  1.60000000E+01  1.00800000E+00
  1.00800000E+00  0.00000000E+00  1.60000000E+01  1.00800000E+00  1.00800000E+00
  0.00000000E+00  1.60000000E+01  1.00800000E+00  1.00800000E+00  0.00000000E+00
  1.60000000E+01  1.00800000E+00  1.00800000E+00  0.00000000E+00  1.60000000E+01
  1.00800000E+00  1.00800000E+00  0.00000000E+00  1.60000000E+01  1.00800000E+00
  1.00800000E+00  0.00000000E+00  1.60000000E+01  1.00800000E+00  1.00800000E+00
  0.00000000E+00  1.60000000E+01  1.00800000E+00  1.00800000E+00  0.00000000E+00
  1.60000000E+01  1.00800000E+00  1.00800000E+00  0.00000000E+00  1.60000000E+01
  1.00800000E+00  1.00800000E+00  0.00000000E+00  1.60000000E+01  1.00800000E+00
  1.00800000E+00  0.00000000E+00  1.60000000E+01  1.00800000E+00  1.00800000E+00
  0.00000000E+00  1.60000000E+01  1.00800000E+00  1.00800000E+00  0.00000000E+00
  1.60000000E+01  1.00800000E+00  1.00800000E+00  0.00000000E+00  1.60000000E+01
  1.00800000E+00  1.00800000E+00  0.00000000E+00  1.60000000E+01  1.00800000E+00
  1.00800000E+00  0.00000000E+00  1.60000000E+01  1.00800000E+00  1.00800000E+00
  0.00000000E+00  1.60000000E+01  1.00800000E+00  1.00800000E+00  0.00000000E+00
  1.60000000E+01  1.00800000E+00  1.00800000E+00  0.00000000E+00  1.60000000E+01
  1.00800000E+00  1.00800000E+00  0.00000000E+00  1.60000000E+01  1.00800000E+00
  1.00800000E+00  0.00000000E+00  1.60000000E+01  1.00800000E+00  1.00800000E+00
  0.00000000E+00  1.60000000E+01  1.00800000E+00  1.00800000E+00  0.00000000E+00
  1.60000000E+01  1.00800000E+00  1.00800000E+00  0.00000000E+00  1.60000000E+01
  1.00800000E+00  1.00800000E+00  0.00000000E+00  1.60000000E+01  1.00800000E+00
  1.00800000E+00  0.00000000E+00  1.60000000E+01  1.00800000E+00  1.00800000E+00
  0.00000000E+00  1.60000000E+01  1.00800000E+00  1.00800000E+00  0.00000000E+00
  1.60000000E+01  1.00800000E+00  1.00800000E+00  0.00000000E+00  1.60000000E+01
  1.00800000E+00  1.00800000E+00  0.00000000E+00  1.60000000E+01  1.00800000E+00
  1.00800000E+00  0.00000000E+00  1.60000000E+01  1.00800000E+00  1.00800000E+00
  0.00000000E+00  1.60000000E+01  1.00800000E+00  1.00800000E+00  0.00000000E+00
  1.60000000E+01  1.00800000E+00  1.00800000E+00  0.00000000E+00  1.60000000E+01
  1.00800000E+00  1.00800000E+00  0.00000000E+00  1.60000000E+01  1.00800000E+00
  1.00800000E+00  0.00000000E+00  1.60000000E+01  1.00800000E+00  1.00800000E+00
  0.00000000E+00  1.60000000E+01  1.00800000E+00  1.00800000E+00  0.00000000E+00
  1.60000000E+01  1.00800000E+00  1.00800000E+00  0.00000000E+00  1.60000000E+01
  1.00800000E+00  1.00800000E+00  0.00000000E+00  1.60000000E+01  1.00800000E+00
  1.00800000E+00  0.00000000E+00  1.60000000E+01  1.00800000E+00  1.00800000E+00
  0.00000000E+00  1.60000000E+01  1.00800000E+00  1.00800000E+00  0.00000000E+00
  1.60000000E+01  1.00800000E+00  1.00800000E+00  0.00000000E+00  1.60000000E+01
  1.00800000E+00  1.00800000E+00  0.00000000E+00  1.60000000E+01  1.00800000E+00
  1.00800000E+00  0.00000000E+00  1.60000000E+01  1.00800000E+00  1.00800000E+00
  0.00000000E+00  1.60000000E+01  1.00800000E+00  1.00800000E+00  0.00000000E+00
  1.60000000E+01  1.00800000E+00  1.00800000E+00  0.00000000E+00  1.60000000E+01
  1.00800000E+00  1.00800000E+00  0.00000000E+00  1.60000000E+01  1.00800000E+00
  1.00800000E+00  0.00000000E+00  1.60000000E+01  1.00800000E+00  1.00800000E+00
  0.00000000E+00  1.60000000E+01  1.00800000E+00  1.00800000E+00  0.00000000E+00
  1.60000000E+01  1.00800000E+00  1.00800000E+00  0.00000000E+00  1.60000000E+01
  1.00800000E+00  1.00800000E+00  0.00000000E+00  1.60000000E+01  1.00800000E+00
  1.00800000E+00  0.00000000E+00  1.60000000E+01  1.00800000E+00  1.00800000E+00
  0.00000000E+00  1.60000000E+01  1.00800000E+00  1.00800000E+00  0.00000000E+00
  1.60000000E+01  1.00800000E+00  1.00800000E+00  0.00000000E+00  1.60000000E+01
  1.00800000E+00  1.00800000E+00  0.00000000E+00  1.60000000E+01  1.00800000E+00
  1.00800000E+00  0.00000000E+00  1.60000000E+01  1.00800000E+00  1.00800000E+00
  0.00000000E+00  1.60000000E+01  1.00800000E+00  1.00800000E+00  0.00000000E+00
  1.60000000E+01  1.00800000E+00  1.00800000E+00  0.00000000E+00  1.60000000E+01
  1.00800000E+00  1.00800000E+00  0.00000000E+00  1.60000000E+01  1.00800000E+00
  1.00800000E+00  0.00000000E+00  1.60000000E+01  1.00800000E+00  1.00800000E+00
  0.00000000E+00  1.60000000E+01  1.00800000E+00  1.00800000E+00  0.00000000E+00
  1.60000000E+01  1.00800000E+00  1.00800000E+00  0.00000000E+00  1.60000000E+01
  1.00800000E+00  1.00800000E+00  0.00000000E+00  1.60000000E+01  1.00800000E+00
  1.00800000E+00  0.00000000E+00  1.60000000E+01  1.00800000E+00  1.00800000E+00
  0.00000000E+00  1.60000000E+01  1.00800000E+00  1.00800000E+00  0.00000000E+00
  1.60000000E+01  1.00800000E+00  1.00800000E+00  0.00000000E+00  1.60000000E+01
  1.00800000E+00  1.00800000E+00  0.00000000E+00  1.60000000E+01  1.00800000E+00
  1.00800000E+00  0.00000000E+00  1.60000000E+01  1.00800000E+00  1.00800000E+00
  0.00000000E+00  1.60000000E+01  1.00800000E+00  1.00800000E+00  0.00000000E+00
  1.60000000E+01  1.00800000E+00  1.00800000E+00  0.00000000E+00  1.60000000E+01
  1.00800000E+00  1.00800000E+00  0.00000000E+00  1.60000000E+01  1.00800000E+00
  1.00800000E+00  0.00000000E+00  1.60000000E+01  1.00800000E+00  1.00800000E+00
  0.00000000E+00  1.60000000E+01  1.00800000E+00  1.00800000E+00  0.00000000E+00
  1.60000000E+01  1.00800000E+00  1.00800000E+00  0.00000000E+00  1.60000000E+01
  1.00800000E+00  1.00800000E+00  0.00000000E+00  1.60000000E+01  1.00800000E+00
  1.00800000E+00  0.00000000E+00  1.60000000E+01  1.00800000E+00  1.00800000E+00
  0.00000000E+00  1.60000000E+01  1.00800000E+00  1.00800000E+00  0.00000000E+00
  1.60000000E+01  1.00800000E+00  1.00800000E+00  0.00000000E+00  1.60000000E+01
  1.00800000E+00  1.00800000E+00  0.00000000E+00  1.60000000E+01  1.00800000E+00
  1.00800000E+00  0.00000000E+00  1.60000000E+01  1.00800000E+00  1.00800000E+00
  0.00000000E+00  1.60000000E+01  1.00800000E+00  1.00800000E+00  0.00000000E+00
  1.60000000E+01  1.00800000E+00  1.00800000E+00  0.00000000E+00  1.60000000E+01
  1.00800000E+00  1.00800000E+00  0.00000000E+00  1.60000000E+01  1.00800000E+00
  1.00800000E+00  0.00000000E+00  1.60000000E+01  1.00800000E+00  1.00800000E+00
  0.00000000E+00  1.60000000E+01  1.00800000E+00  1.00800000E+00  0.00000000E+00
  1.60000000E+01  1.00800000E+00  1.00800000E+00  0.00000000E+00  1.60000000E+01
  1.00800000E+00  1.00800000E+00  0.00000000E+00  1.60000000E+01  1.00800000E+00
  1.00800000E+00  0.00000000E+00  1.60000000E+01  1.00800000E+00  1.00800000E+00
  0.00000000E+00  1.60000000E+01  1.00800000E+00  1.00800000E+00  0.00000000E+00
  1.60000000E+01  1.00800000E+00  1.00800000E+00  0.00000000E+00  1.60000000E+01
  1.00800000E+00  1.00800000E+00  0.00000000E+00  1.60000000E+01  1.00800000E+00
  1.00800000E+00  0.00000000E+00  1.60000000E+01  1.00800000E+00  1.00800000E+00
  0.00000000E+00  1.60000000E+01  1.00800000E+00  1.00800000E+00  0.00000000E+00
  1.60000000E+01  1.00800000E+00  1.00800000E+00  0.00000000E+00  1.60000000E+01
  1.00800000E+00  1.00800000E+00  0.00000000E+00  1.60000000E+01  1.00800000E+00
  1.00800000E+00  0.00000000E+00  1.60000000E+01  1.00800000E+00  1.00800000E+00
  0.00000000E+00  1.60000000E+01  1.00800000E+00  1.00800000E+00  0.00000000E+00
  1.60000000E+01  1.00800000E+00  1.00800000E+00  0.00000000E+00  1.60000000E+01
  1.00800000E+00  1.00800000E+00  0.00000000E+00  1.60000000E+01  1.00800000E+00
  1.00800000E+00  0.00000000E+00  1.60000000E+01  1.00800000E+00  1.00800000E+00
  0.00000000E+00  1.60000000E+01  1.00800000E+00  1.00800000E+00  0.00000000E+00
  1.60000000E+01  1.00800000E+00  1.00800000E+00  0.00000000E+00  1.60000000E+01
  1.00800000E+00  1.00800000E+00  0.00000000E+00  1.60000000E+01  1.00800000E+00
  1.00800000E+00  0.00000000E+00  1.60000000E+01  1.00800000E+00  1.00800000E+00
  0.00000000E+00  1.60000000E+01  1.00800000E+00  1.00800000E+00  0.00000000E+00
  1.60000000E+01  1.00800000E+00  1.00800000E+00  0.00000000E+00  1.60000000E+01
  1.00800000E+00  1.00800000E+00  0.00000000E+00  1.60000000E+01  1.00800000E+00
  1.00800000E+00  0.00000000E+00  1.60000000E+01  1.00800000E+00  1.00800000E+00
  0.00000000E+00  1.60000000E+01  1.00800000E+00  1.00800000E+00  0.00000000E+00
  1.60000000E+01  1.00800000E+00  1.00800000E+00  0.00000000E+00  1.60000000E+01
  1.00800000E+00  1.00800000E+00  0.00000000E+00  1.60000000E+01  1.00800000E+00
  1.00800000E+00  0.00000000E+00  1.60000000E+01  1.00800000E+00  1.00800000E+00
  0.00000000E+00  1.60000000E+01  1.00800000E+00  1.00800000E+00  0.00000000E+00
  1.60000000E+01  1.00800000E+00  1.00800000E+00  0.00000000E+00  1.60000000E+01
  1.00800000E+00  1.00800000E+00  0.00000000E+00  1.60000000E+01  1.00800000E+00
  1.00800000E+00  0.00000000E+00  1.60000000E+01  1.00800000E+00  1.00800000E+00
  0.00000000E+00  1.60000000E+01  1.00800000E+00  1.00800000E+00  0.00000000E+00
  1.60000000E+01  1.00800000E+00  1.00800000E+00  0.00000000E+00  1.60000000E+01
  1.00800000E+00  1.00800000E+00  0.00000000E+00  1.60000000E+01  1.00800000E+00
  1.00800000E+00  0.00000000E+00  1.60000000E+01  1.00800000E+00  1.00800000E+00
  0.00000000E+00  1.60000000E+01  1.00800000E+00  1.00800000E+00  0.00000000E+00
  1.60000000E+01  1.00800000E+00  1.00800000E+00  0.00000000E+00  1.60000000E+01
  1.00800000E+00  1.00800000E+00  0.00000000E+00  1.60000000E+01  1.00800000E+00
  1.00800000E+00  0.00000000E+00  1.60000000E+01  1.00800000E+00  1.00800000E+00
  0.00000000E+00  1.60000000E+01  1.00800000E+00  1.00800000E+00  0.00000000E+00
  1.60000000E+01  1.00800000E+00  1.00800000E+00  0.00000000E+00  1.60000000E+01
  1.00800000E+00  1.00800000E+00  0.00000000E+00  1.60000000E+01  1.00800000E+00
  1.00800000E+00  0.00000000E+00  1.60000000E+01  1.00800000E+00  1.00800000E+00
  0.00000000E+00  1.60000000E+01  1.00800000E+00  1.00800000E+00  0.00000000E+00
  1.60000000E+01  1.00800000E+00  1.00800000E+00  0.00000000E+00  1.60000000E+01
  1.00800000E+00  1.00800000E+00  0.00000000E+00  1.60000000E+01  1.00800000E+00
  1.00800000E+00  0.00000000E+00  1.60000000E+01  1.00800000E+00  1.00800000E+00
  0.00000000E+00  1.60000000E+01  1.00800000E+00  1.00800000E+00  0.00000000E+00
  1.60000000E+01  1.00800000E+00  1.00800000E+00  0.00000000E+00  1.60000000E+01
  1.00800000E+00  1.00800000E+00  0.00000000E+00  1.60000000E+01  1.00800000E+00
  1.00800000E+00  0.00000000E+00  1.60000000E+01  1.00800000E+00  1.00800000E+00
  0.00000000E+00  1.60000000E+01  1.00800000E+00  1.00800000E+00  0.00000000E+00
  1.60000000E+01  1.00800000E+00  1.00800000E+00  0.00000000E+00  1.60000000E+01
  1.00800000E+00  1.00800000E+00  0.00000000E+00  1.60000000E+01  1.00800000E+00
  1.00800000E+00  0.00000000E+00  1.60000000E+01  1.00800000E+00  1.00800000E+00
  0.00000000E+00  1.60000000E+01  1.00800000E+00  1.00800000E+00  0.00000000E+00
  1.60000000E+01  1.00800000E+00  1.00800000E+00  0.00000000E+00  1.60000000E+01
  1.00800000E+00  1.00800000E+00  0.00000000E+00  1.60000000E+01  1.00800000E+00
  1.00800000E+00  0.00000000E+00  1.60000000E+01  1.00800000E+00  1.00800000E+00
  0.00000000E+00  1.60000000E+01  1.00800000E+00  1.00800000E+00  0.00000000E+00
  1.60000000E+01  1.00800000E+00  1.00800000E+00  0.00000000E+00  1.60000000E+01
  1.00800000E+00  1.00800000E+00  0.00000000E+00  1.60000000E+01  1.00800000E+00
  1.00800000E+00  0.00000000E+00  1.60000000E+01  1.00800000E+00  1.00800000E+00
  0.00000000E+00  1.60000000E+01  1.00800000E+00  1.00800000E+00  0.00000000E+00
  1.60000000E+01  1.00800000E+00  1.00800000E+00  0.00000000E+00  1.60000000E+01
  1.00800000E+00  1.00800000E+00  0.00000000E+00  1.60000000E+01  1.00800000E+00
  1.00800000E+00  0.00000000E+00  1.60000000E+01  1.00800000E+00  1.00800000E+00
  0.00000000E+00  1.60000000E+01  1.00800000E+00  1.00800000E+00  0.00000000E+00
  1.60000000E+01  1.00800000E+00  1.00800000E+00  0.00000000E+00  1.60000000E+01
  1.00800000E+00  1.00800000E+00  0.00000000E+00  1.60000000E+01  1.00800000E+00
  1.00800000E+00  0.00000000E+00  1.60000000E+01  1.00800000E+00  1.00800000E+00
  0.00000000E+00  1.60000000E+01  1.00800000E+00  1.00800000E+00  0.00000000E+00
  1.60000000E+01  1.00800000E+00  1.00800000E+00  0.00000000E+00  1.60000000E+01
  1.00800000E+00  1.00800000E+00  0.00000000E+00  1.60000000E+01  1.00800000E+00
  1.00800000E+00  0.00000000E+00  1.60000000E+01  1.00800000E+00  1.00800000E+00
  0.00000000E+00  1.60000000E+01  1.00800000E+00  1.00800000E+00  0.00000000E+00
  1.60000000E+01  1.00800000E+00  1.00800000E+00  0.00000000E+00  1.60000000E+01
  1.00800000E+00  1.00800000E+00  0.00000000E+00  1.60000000E+01  1.00800000E+00
  1.00800000E+00  0.00000000E+00  1.60000000E+01  1.00800000E+00  1.00800000E+00
  0.00000000E+00  1.60000000E+01  1.00800000E+00  1.00800000E+00  0.00000000E+00
  1.60000000E+01  1.00800000E+00  1.00800000E+00  0.00000000E+00  1.60000000E+01
  1.00800000E+00  1.00800000E+00  0.00000000E+00  1.60000000E+01  1.00800000E+00
  1.00800000E+00  0.00000000E+00  1.60000000E+01  1.00800000E+00  1.00800000E+00
  0.00000000E+00  1.60000000E+01  1.00800000E+00  1.00800000E+00  0.00000000E+00
  1.60000000E+01  1.00800000E+00  1.00800000E+00  0.00000000E+00  1.60000000E+01
  1.00800000E+00  1.00800000E+00  0.00000000E+00  1.60000000E+01  1.00800000E+00
  1.00800000E+00  0.00000000E+00  1.60000000E+01  1.00800000E+00  1.00800000E+00
  0.00000000E+00  1.60000000E+01  1.00800000E+00  1.00800000E+00  0.00000000E+00
  1.60000000E+01  1.00800000E+00  1.00800000E+00  0.00000000E+00  1.60000000E+01
  1.00800000E+00  1.00800000E+00  0.00000000E+00  1.60000000E+01  1.00800000E+00
  1.00800000E+00  0.00000000E+00  1.60000000E+01  1.00800000E+00  1.00800000E+00
  0.00000000E+00  1.60000000E+01  1.00800000E+00  1.00800000E+00  0.00000000E+00
  1.60000000E+01  1.00800000E+00  1.00800000E+00  0.00000000E+00  1.60000000E+01
  1.00800000E+00  1.00800000E+00  0.00000000E+00  1.60000000E+01  1.00800000E+00
  1.00800000E+00  0.00000000E+00  1.60000000E+01  1.00800000E+00  1.00800000E+00
  0.00000000E+00  1.60000000E+01  1.00800000E+00  1.00800000E+00  0.00000000E+00
  1.60000000E+01  1.00800000E+00  1.00800000E+00  0.00000000E+00  1.60000000E+01
  1.00800000E+00  1.00800000E+00  0.00000000E+00  1.60000000E+01  1.00800000E+00
  1.00800000E+00  0.00000000E+00  1.60000000E+01  1.00800000E+00  1.00800000E+00
  0.00000000E+00  1.60000000E+01  1.00800000E+00  1.00800000E+00  0.00000000E+00
  1.60000000E+01  1.00800000E+00  1.00800000E+00  0.00000000E+00  1.60000000E+01
  1.00800000E+00  1.00800000E+00  0.00000000E+00  1.60000000E+01  1.00800000E+00
  1.00800000E+00  0.00000000E+00  1.60000000E+01  1.00800000E+00  1.00800000E+00
  0.00000000E+00  1.60000000E+01  1.00800000E+00  1.00800000E+00  0.00000000E+00
  1.60000000E+01  1.00800000E+00  1.00800000E+00  0.00000000E+00  1.60000000E+01
  1.00800000E+00  1.00800000E+00  0.00000000E+00  1.60000000E+01  1.00800000E+00
  1.00800000E+00  0.00000000E+00  1.60000000E+01  1.00800000E+00  1.00800000E+00
  0.00000000E+00  1.60000000E+01  1.00800000E+00  1.00800000E+00  0.00000000E+00
  1.60000000E+01  1.00800000E+00  1.00800000E+00  0.00000000E+00  1.60000000E+01
  1.00800000E+00  1.00800000E+00  0.00000000E+00  1.60000000E+01  1.00800000E+00
  1.00800000E+00  0.00000000E+00  1.60000000E+01  1.00800000E+00  1.00800000E+00
  0.00000000E+00  1.60000000E+01  1.00800000E+00  1.00800000E+00  0.00000000E+00
  1.60000000E+01  1.00800000E+00  1.00800000E+00  0.00000000E+00  1.60000000E+01
  1.00800000E+00  1.00800000E+00  0.00000000E+00  1.60000000E+01  1.00800000E+00
  1.00800000E+00  0.00000000E+00  1.60000000E+01  1.00800000E+00  1.00800000E+00
  0.00000000E+00  1.60000000E+01  1.00800000E+00  1.00800000E+00  0.00000000E+00
  1.60000000E+01  1.00800000E+00  1.00800000E+00  0.00000000E+00  1.60000000E+01
  1.00800000E+00  1.00800000E+00  0.00000000E+00  1.60000000E+01  1.00800000E+00
  1.00800000E+00  0.00000000E+00  1.60000000E+01  1.00800000E+00  1.00800000E+00
  0.00000000E+00  1.60000000E+01  1.00800000E+00  1.00800000E+00  0.00000000E+00
  1.60000000E+01  1.00800000E+00  1.00800000E+00  0.00000000E+00  1.60000000E+01
  1.00800000E+00  1.00800000E+00  0.00000000E+00  1.60000000E+01  1.00800000E+00
  1.00800000E+00  0.00000000E+00  1.60000000E+01  1.00800000E+00  1.00800000E+00
  0.00000000E+00  1.60000000E+01  1.00800000E+00  1.00800000E+00  0.00000000E+00
  1.60000000E+01  1.00800000E+00  1.00800000E+00  0.00000000E+00  1.60000000E+01
  1.00800000E+00  1.00800000E+00  0.00000000E+00  1.60000000E+01  1.00800000E+00
  1.00800000E+00  0.00000000E+00  1.60000000E+01  1.00800000E+00  1.00800000E+00
  0.00000000E+00  1.60000000E+01  1.00800000E+00  1.00800000E+00  0.00000000E+00
  1.60000000E+01  1.00800000E+00  1.00800000E+00  0.00000000E+00  1.60000000E+01
  1.00800000E+00  1.00800000E+00  0.00000000E+00  1.60000000E+01  1.00800000E+00
  1.00800000E+00  0.00000000E+00  1.60000000E+01  1.00800000E+00  1.00800000E+00
  0.00000000E+00  1.60000000E+01  1.00800000E+00  1.00800000E+00  0.00000000E+00
  1.60000000E+01  1.00800000E+00  1.00800000E+00  0.00000000E+00  1.60000000E+01
  1.00800000E+00  1.00800000E+00  0.00000000E+00  1.60000000E+01  1.00800000E+00
  1.00800000E+00  0.00000000E+00  1.60000000E+01  1.00800000E+00  1.00800000E+00
  0.00000000E+00  1.60000000E+01  1.00800000E+00  1.00800000E+00  0.00000000E+00
  1.60000000E+01  1.00800000E+00  1.00800000E+00  0.00000000E+00  1.60000000E+01
  1.00800000E+00  1.00800000E+00  0.00000000E+00  1.60000000E+01  1.00800000E+00
  1.00800000E+00  0.00000000E+00  1.60000000E+01  1.00800000E+00  1.00800000E+00
  0.00000000E+00  1.60000000E+01  1.00800000E+00  1.00800000E+00  0.00000000E+00
  1.60000000E+01  1.00800000E+00  1.00800000E+00  0.00000000E+00  1.60000000E+01
  1.00800000E+00  1.00800000E+00  0.00000000E+00  1.60000000E+01  1.00800000E+00
  1.00800000E+00  0.00000000E+00  1.60000000E+01  1.00800000E+00  1.00800000E+00
  0.00000000E+00  1.60000000E+01  1.00800000E+00  1.00800000E+00  0.00000000E+00
  1.60000000E+01  1.00800000E+00  1.00800000E+00  0.00000000E+00  1.60000000E+01
  1.00800000E+00  1.00800000E+00  0.00000000E+00  1.60000000E+01  1.00800000E+00
  1.00800000E+00  0.00000000E+00  1.60000000E+01  1.00800000E+00  1.00800000E+00
  0.00000000E+00  1.60000000E+01  1.00800000E+00  1.00800000E+00  0.00000000E+00
  1.60000000E+01  1.00800000E+00  1.00800000E+00  0.00000000E+00  1.60000000E+01
  1.00800000E+00  1.00800000E+00  0.00000000E+00  1.60000000E+01  1.00800000E+00
  1.00800000E+00  0.00000000E+00  1.60000000E+01  1.00800000E+00  1.00800000E+00
  0.00000000E+00  1.60000000E+01  1.00800000E+00  1.00800000E+00  0.00000000E+00
  1.60000000E+01  1.00800000E+00  1.00800000E+00  0.00000000E+00  1.60000000E+01
  1.00800000E+00  1.00800000E+00  0.00000000E+00  1.60000000E+01  1.00800000E+00
  1.00800000E+00  0.00000000E+00  1.60000000E+01  1.00800000E+00  1.00800000E+00
  0.00000000E+00  1.60000000E+01  1.00800000E+00  1.00800000E+00  0.00000000E+00
  1.60000000E+01  1.00800000E+00  1.00800000E+00  0.00000000E+00  1.60000000E+01
  1.00800000E+00  1.00800000E+00  0.00000000E+00  1.60000000E+01  1.00800000E+00
  1.00800000E+00  0.00000000E+00  1.60000000E+01  1.00800000E+00  1.00800000E+00
  0.00000000E+00  1.60000000E+01  1.00800000E+00  1.00800000E+00  0.00000000E+00
  1.60000000E+01  1.00800000E+00  1.00800000E+00  0.00000000E+00  1.60000000E+01
  1.00800000E+00  1.00800000E+00  0.00000000E+00  1.60000000E+01  1.00800000E+00
  1.00800000E+00  0.00000000E+00  1.60000000E+01  1.00800000E+00  1.00800000E+00
  0.00000000E+00  1.60000000E+01  1.00800000E+00  1.00800000E+00  0.00000000E+00
  1.60000000E+01  1.00800000E+00  1.00800000E+00  0.00000000E+00  1.60000000E+01
  1.00800000E+00  1.00800000E+00  0.00000000E+00  1.60000000E+01  1.00800000E+00
  1.00800000E+00  0.00000000E+00  1.60000000E+01  1.00800000E+00  1.00800000E+00
  0.00000000E+00  1.60000000E+01  1.00800000E+00  1.00800000E+00  0.00000000E+00
  1.60000000E+01  1.00800000E+00  1.00800000E+00  0.00000000E+00  1.60000000E+01
  1.00800000E+00  1.00800000E+00  0.00000000E+00  1.60000000E+01  1.00800000E+00
  1.00800000E+00  0.00000000E+00  1.60000000E+01  1.00800000E+00  1.00800000E+00
  0.00000000E+00  1.60000000E+01  1.00800000E+00  1.00800000E+00  0.00000000E+00
  1.60000000E+01  1.00800000E+00  1.00800000E+00  0.00000000E+00  1.60000000E+01
  1.00800000E+00  1.00800000E+00  0.00000000E+00  1.60000000E+01  1.00800000E+00
  1.00800000E+00  0.00000000E+00  1.60000000E+01  1.00800000E+00  1.00800000E+00
  0.00000000E+00  1.60000000E+01  1.00800000E+00  1.00800000E+00  0.00000000E+00
  1.60000000E+01  1.00800000E+00  1.00800000E+00  0.00000000E+00  1.60000000E+01
  1.00800000E+00  1.00800000E+00  0.00000000E+00  1.60000000E+01  1.00800000E+00
  1.00800000E+00  0.00000000E+00  1.60000000E+01  1.00800000E+00  1.00800000E+00
  0.00000000E+00  1.60000000E+01  1.00800000E+00  1.00800000E+00  0.00000000E+00
  1.60000000E+01  1.00800000E+00  1.00800000E+00  0.00000000E+00  1.60000000E+01
  1.00800000E+00  1.00800000E+00  0.00000000E+00  1.60000000E+01  1.00800000E+00
  1.00800000E+00  0.00000000E+00  1.60000000E+01  1.00800000E+00  1.00800000E+00
  0.00000000E+00  1.60000000E+01  1.00800000E+00  1.00800000E+00  0.00000000E+00
  1.60000000E+01  1.00800000E+00  1.00800000E+00  0.00000000E+00  1.60000000E+01
  1.00800000E+00  1.00800000E+00  0.00000000E+00  1.60000000E+01  1.00800000E+00
  1.00800000E+00  0.00000000E+00  1.60000000E+01  1.00800000E+00  1.00800000E+00
  0.00000000E+00  1.60000000E+01  1.00800000E+00  1.00800000E+00  0.00000000E+00
  1.60000000E+01  1.00800000E+00  1.00800000E+00  0.00000000E+00  1.60000000E+01
  1.00800000E+00  1.00800000E+00  0.00000000E+00  1.60000000E+01  1.00800000E+00
  1.00800000E+00  0.00000000E+00  1.60000000E+01  1.00800000E+00  1.00800000E+00
  0.00000000E+00  1.60000000E+01  1.00800000E+00  1.00800000E+00  0.00000000E+00
  1.60000000E+01  1.00800000E+00  1.00800000E+00  0.00000000E+00  1.60000000E+01
  1.00800000E+00  1.00800000E+00  0.00000000E+00  1.60000000E+01  1.00800000E+00
  1.00800000E+00  0.00000000E+00  1.60000000E+01  1.00800000E+00  1.00800000E+00
  0.00000000E+00  1.60000000E+01  1.00800000E+00  1.00800000E+00  0.00000000E+00
  1.60000000E+01  1.00800000E+00  1.00800000E+00  0.00000000E+00  1.60000000E+01
  1.00800000E+00  1.00800000E+00  0.00000000E+00  1.60000000E+01  1.00800000E+00
  1.00800000E+00  0.00000000E+00  1.60000000E+01  1.00800000E+00  1.00800000E+00
  0.00000000E+00  1.60000000E+01  1.00800000E+00  1.00800000E+00  0.00000000E+00
  1.60000000E+01  1.00800000E+00  1.00800000E+00  0.00000000E+00  1.60000000E+01
  1.00800000E+00  1.00800000E+00  0.00000000E+00  1.60000000E+01  1.00800000E+00
  1.00800000E+00  0.00000000E+00  1.60000000E+01  1.00800000E+00  1.00800000E+00
  0.00000000E+00  1.60000000E+01  1.00800000E+00  1.00800000E+00  0.00000000E+00
  1.60000000E+01  1.00800000E+00  1.00800000E+00  0.00000000E+00  1.60000000E+01
  1.00800000E+00  1.00800000E+00  0.00000000E+00  1.60000000E+01  1.00800000E+00
  1.00800000E+00  0.00000000E+00  1.60000000E+01  1.00800000E+00  1.00800000E+00
  0.00000000E+00  1.60000000E+01  1.00800000E+00  1.00800000E+00  0.00000000E+00
  1.60000000E+01  1.00800000E+00  1.00800000E+00  0.00000000E+00  1.60000000E+01
  1.00800000E+00  1.00800000E+00  0.00000000E+00  1.60000000E+01  1.00800000E+00
  1.00800000E+00  0.00000000E+00  1.60000000E+01  1.00800000E+00  1.00800000E+00
  0.00000000E+00  1.60000000E+01  1.00800000E+00  1.00800000E+00  0.00000000E+00
  1.60000000E+01  1.00800000E+00  1.00800000E+00  0.00000000E+00  1.60000000E+01
  1.00800000E+00  1.00800000E+00  0.00000000E+00  1.60000000E+01  1.00800000E+00
  1.00800000E+00  0.00000000E+00  1.60000000E+01  1.00800000E+00  1.00800000E+00
  0.00000000E+00  1.60000000E+01  1.00800000E+00  1.00800000E+00  0.00000000E+00
  1.60000000E+01  1.00800000E+00  1.00800000E+00  0.00000000E+00  1.60000000E+01
  1.00800000E+00  1.00800000E+00  0.00000000E+00  1.60000000E+01  1.00800000E+00
  1.00800000E+00  0.00000000E+00  1.60000000E+01  1.00800000E+00  1.00800000E+00
  0.00000000E+00  1.60000000E+01  1.00800000E+00  1.00800000E+00  0.00000000E+00
  1.60000000E+01  1.00800000E+00  1.00800000E+00  0.00000000E+00  1.60000000E+01
  1.00800000E+00  1.00800000E+00  0.00000000E+00  1.60000000E+01  1.00800000E+00
  1.00800000E+00  0.00000000E+00  1.60000000E+01  1.00800000E+00  1.00800000E+00
  0.00000000E+00  1.60000000E+01  1.00800000E+00  1.00800000E+00  0.00000000E+00
  1.60000000E+01  1.00800000E+00  1.00800000E+00  0.00000000E+00  1.60000000E+01
  1.00800000E+00  1.00800000E+00  0.00000000E+00  1.60000000E+01  1.00800000E+00
  1.00800000E+00  0.00000000E+00  1.60000000E+01  1.00800000E+00  1.00800000E+00
  0.00000000E+00  1.60000000E+01  1.00800000E+00  1.00800000E+00  0.00000000E+00
  1.60000000E+01  1.00800000E+00  1.00800000E+00  0.00000000E+00  1.60000000E+01
  1.00800000E+00  1.00800000E+00  0.00000000E+00  1.60000000E+01  1.00800000E+00
  1.00800000E+00  0.00000000E+00  1.60000000E+01  1.00800000E+00  1.00800000E+00
  0.00000000E+00  1.60000000E+01  1.00800000E+00  1.00800000E+00  0.00000000E+00
  1.60000000E+01  1.00800000E+00  1.00800000E+00  0.00000000E+00  1.60000000E+01
  1.00800000E+00  1.00800000E+00  0.00000000E+00  1.60000000E+01  1.00800000E+00
  1.00800000E+00  0.00000000E+00  1.60000000E+01  1.00800000E+00  1.00800000E+00
  0.00000000E+00  1.60000000E+01  1.00800000E+00  1.00800000E+00  0.00000000E+00
  1.60000000E+01  1.00800000E+00  1.00800000E+00  0.00000000E+00  1.60000000E+01
  1.00800000E+00  1.00800000E+00  0.00000000E+00  1.60000000E+01  1.00800000E+00
  1.00800000E+00  0.00000000E+00  1.60000000E+01  1.00800000E+00  1.00800000E+00
  0.00000000E+00  1.60000000E+01  1.00800000E+00  1.00800000E+00  0.00000000E+00
  1.60000000E+01  1.00800000E+00  1.00800000E+00  0.00000000E+00  1.60000000E+01
  1.00800000E+00  1.00800000E+00  0.00000000E+00  1.60000000E+01  1.00800000E+00
  1.00800000E+00  0.00000000E+00  1.60000000E+01  1.00800000E+00  1.00800000E+00
  0.00000000E+00  1.60000000E+01  1.00800000E+00  1.00800000E+00  0.00000000E+00
  1.60000000E+01  1.00800000E+00  1.00800000E+00  0.00000000E+00  1.60000000E+01
  1.00800000E+00  1.00800000E+00  0.00000000E+00  1.60000000E+01  1.00800000E+00
  1.00800000E+00  0.00000000E+00  1.60000000E+01  1.00800000E+00  1.00800000E+00
  0.00000000E+00  1.60000000E+01  1.00800000E+00  1.00800000E+00  0.00000000E+00
  1.60000000E+01  1.00800000E+00  1.00800000E+00  0.00000000E+00  1.60000000E+01
  1.00800000E+00  1.00800000E+00  0.00000000E+00  1.60000000E+01  1.00800000E+00
  1.00800000E+00  0.00000000E+00  1.60000000E+01  1.00800000E+00  1.00800000E+00
  0.00000000E+00  1.60000000E+01  1.00800000E+00  1.00800000E+00  0.00000000E+00
  1.60000000E+01  1.00800000E+00  1.00800000E+00  0.00000000E+00  1.60000000E+01
  1.00800000E+00  1.00800000E+00  0.00000000E+00  1.60000000E+01  1.00800000E+00
  1.00800000E+00  0.00000000E+00  1.60000000E+01  1.00800000E+00  1.00800000E+00
  0.00000000E+00  1.60000000E+01  1.00800000E+00  1.00800000E+00  0.00000000E+00
  1.60000000E+01  1.00800000E+00  1.00800000E+00  0.00000000E+00  1.60000000E+01
  1.00800000E+00  1.00800000E+00  0.00000000E+00  1.60000000E+01  1.00800000E+00
  1.00800000E+00  0.00000000E+00  1.60000000E+01  1.00800000E+00  1.00800000E+00
  0.00000000E+00  1.60000000E+01  1.00800000E+00  1.00800000E+00  0.00000000E+00
  1.60000000E+01  1.00800000E+00  1.00800000E+00  0.00000000E+00  1.60000000E+01
  1.00800000E+00  1.00800000E+00  0.00000000E+00  1.60000000E+01  1.00800000E+00
  1.00800000E+00  0.00000000E+00  1.60000000E+01  1.00800000E+00  1.00800000E+00
  0.00000000E+00  1.60000000E+01  1.00800000E+00  1.00800000E+00  0.00000000E+00
  1.60000000E+01  1.00800000E+00  1.00800000E+00  0.00000000E+00  1.60000000E+01
  1.00800000E+00  1.00800000E+00  0.00000000E+00  1.60000000E+01  1.00800000E+00
  1.00800000E+00  0.00000000E+00  1.60000000E+01  1.00800000E+00  1.00800000E+00
  0.00000000E+00  1.60000000E+01  1.00800000E+00  1.00800000E+00  0.00000000E+00
  1.60000000E+01  1.00800000E+00  1.00800000E+00  0.00000000E+00  1.60000000E+01
  1.00800000E+00  1.00800000E+00  0.00000000E+00  1.60000000E+01  1.00800000E+00
  1.00800000E+00  0.00000000E+00  1.60000000E+01  1.00800000E+00  1.00800000E+00
  0.00000000E+00  1.60000000E+01  1.00800000E+00  1.00800000E+00  0.00000000E+00
  1.60000000E+01  1.00800000E+00  1.00800000E+00  0.00000000E+00  1.60000000E+01
  1.00800000E+00  1.00800000E+00  0.00000000E+00  1.60000000E+01  1.00800000E+00
  1.00800000E+00  0.00000000E+00  1.60000000E+01  1.00800000E+00  1.00800000E+00
  0.00000000E+00  1.60000000E+01  1.00800000E+00  1.00800000E+00  0.00000000E+00
  1.60000000E+01  1.00800000E+00  1.00800000E+00  0.00000000E+00  1.60000000E+01
  1.00800000E+00  1.00800000E+00  0.00000000E+00  1.60000000E+01  1.00800000E+00
  1.00800000E+00  0.00000000E+00  1.60000000E+01  1.00800000E+00  1.00800000E+00
  0.00000000E+00  1.60000000E+01  1.00800000E+00  1.00800000E+00  0.00000000E+00
  1.60000000E+01  1.00800000E+00  1.00800000E+00  0.00000000E+00  1.60000000E+01
  1.00800000E+00  1.00800000E+00  0.00000000E+00  1.60000000E+01  1.00800000E+00
  1.00800000E+00  0.00000000E+00  1.60000000E+01  1.00800000E+00  1.00800000E+00
  0.00000000E+00  1.60000000E+01  1.00800000E+00  1.00800000E+00  0.00000000E+00
  1.60000000E+01  1.00800000E+00  1.00800000E+00  0.00000000E+00  1.60000000E+01
  1.00800000E+00  1.00800000E+00  0.00000000E+00  1.60000000E+01  1.00800000E+00
  1.00800000E+00  0.00000000E+00  1.60000000E+01  1.00800000E+00  1.00800000E+00
  0.00000000E+00  1.60000000E+01  1.00800000E+00  1.00800000E+00  0.00000000E+00
  1.60000000E+01  1.00800000E+00  1.00800000E+00  0.00000000E+00  1.60000000E+01
  1.00800000E+00  1.00800000E+00  0.00000000E+00  1.60000000E+01  1.00800000E+00
  1.00800000E+00  0.00000000E+00  1.60000000E+01  1.00800000E+00  1.00800000E+00
  0.00000000E+00  1.60000000E+01  1.00800000E+00  1.00800000E+00  0.00000000E+00
  1.60000000E+01  1.00800000E+00  1.00800000E+00  0.00000000E+00  1.60000000E+01
  1.00800000E+00  1.00800000E+00  0.00000000E+00  1.60000000E+01  1.00800000E+00
  1.00800000E+00  0.00000000E+00  1.60000000E+01  1.00800000E+00  1.00800000E+00
  0.00000000E+00  1.60000000E+01  1.00800000E+00  1.00800000E+00  0.00000000E+00
  1.60000000E+01  1.00800000E+00  1.00800000E+00  0.00000000E+00  1.60000000E+01
  1.00800000E+00  1.00800000E+00  0.00000000E+00  1.60000000E+01  1.00800000E+00
  1.00800000E+00  0.00000000E+00  1.60000000E+01  1.00800000E+00  1.00800000E+00
  0.00000000E+00  1.60000000E+01  1.00800000E+00  1.00800000E+00  0.00000000E+00
  1.60000000E+01  1.00800000E+00  1.00800000E+00  0.00000000E+00  1.60000000E+01
  1.00800000E+00  1.00800000E+00  0.00000000E+00  1.60000000E+01  1.00800000E+00
  1.00800000E+00  0.00000000E+00  1.60000000E+01  1.00800000E+00  1.00800000E+00
  0.00000000E+00  1.60000000E+01  1.00800000E+00  1.00800000E+00  0.00000000E+00
  1.60000000E+01  1.00800000E+00  1.00800000E+00  0.00000000E+00  1.60000000E+01
  1.00800000E+00  1.00800000E+00  0.00000000E+00  1.60000000E+01  1.00800000E+00
  1.00800000E+00  0.00000000E+00  1.60000000E+01  1.00800000E+00  1.00800000E+00
  0.00000000E+00  1.60000000E+01  1.00800000E+00  1.00800000E+00  0.00000000E+00
  1.60000000E+01  1.00800000E+00  1.00800000E+00  0.00000000E+00  1.60000000E+01
  1.00800000E+00  1.00800000E+00  0.00000000E+00  1.60000000E+01  1.00800000E+00
  1.00800000E+00  0.00000000E+00  1.60000000E+01  1.00800000E+00  1.00800000E+00
  0.00000000E+00  1.60000000E+01  1.00800000E+00  1.00800000E+00  0.00000000E+00
  1.60000000E+01  1.00800000E+00  1.00800000E+00  0.00000000E+00  1.60000000E+01
  1.00800000E+00  1.00800000E+00  0.00000000E+00  1.60000000E+01  1.00800000E+00
  1.00800000E+00  0.00000000E+00  1.60000000E+01  1.00800000E+00  1.00800000E+00
  0.00000000E+00  1.60000000E+01  1.00800000E+00  1.00800000E+00  0.00000000E+00
  1.60000000E+01  1.00800000E+00  1.00800000E+00  0.00000000E+00  1.60000000E+01
  1.00800000E+00  1.00800000E+00  0.00000000E+00  1.60000000E+01  1.00800000E+00
  1.00800000E+00  0.00000000E+00  1.60000000E+01  1.00800000E+00  1.00800000E+00
  0.00000000E+00  1.60000000E+01  1.00800000E+00  1.00800000E+00  0.00000000E+00
  1.60000000E+01  1.00800000E+00  1.00800000E+00  0.00000000E+00  1.60000000E+01
  1.00800000E+00  1.00800000E+00  0.00000000E+00  1.60000000E+01  1.00800000E+00
  1.00800000E+00  0.00000000E+00  1.60000000E+01  1.00800000E+00  1.00800000E+00
  0.00000000E+00  1.60000000E+01  1.00800000E+00  1.00800000E+00  0.00000000E+00
  1.60000000E+01  1.00800000E+00  1.00800000E+00  0.00000000E+00  1.60000000E+01
  1.00800000E+00  1.00800000E+00  0.00000000E+00  1.60000000E+01  1.00800000E+00
  1.00800000E+00  0.00000000E+00  1.60000000E+01  1.00800000E+00  1.00800000E+00
  0.00000000E+00  1.60000000E+01  1.00800000E+00  1.00800000E+00  0.00000000E+00
  1.60000000E+01  1.00800000E+00  1.00800000E+00  0.00000000E+00  1.60000000E+01
  1.00800000E+00  1.00800000E+00  0.00000000E+00  1.60000000E+01  1.00800000E+00
  1.00800000E+00  0.00000000E+00  1.60000000E+01  1.00800000E+00  1.00800000E+00
  0.00000000E+00  1.60000000E+01  1.00800000E+00  1.00800000E+00  0.00000000E+00
  1.60000000E+01  1.00800000E+00  1.00800000E+00  0.00000000E+00  1.60000000E+01
  1.00800000E+00  1.00800000E+00  0.00000000E+00  1.60000000E+01  1.00800000E+00
  1.00800000E+00  0.00000000E+00  1.60000000E+01  1.00800000E+00  1.00800000E+00
  0.00000000E+00  1.60000000E+01  1.00800000E+00  1.00800000E+00  0.00000000E+00
  1.60000000E+01  1.00800000E+00  1.00800000E+00  0.00000000E+00  1.60000000E+01
  1.00800000E+00  1.00800000E+00  0.00000000E+00  1.60000000E+01  1.00800000E+00
  1.00800000E+00  0.00000000E+00  1.60000000E+01  1.00800000E+00  1.00800000E+00
  0.00000000E+00  1.60000000E+01  1.00800000E+00  1.00800000E+00  0.00000000E+00
  1.60000000E+01  1.00800000E+00  1.00800000E+00  0.00000000E+00  1.60000000E+01
  1.00800000E+00  1.00800000E+00  0.00000000E+00  1.60000000E+01  1.00800000E+00
  1.00800000E+00  0.00000000E+00  1.60000000E+01  1.00800000E+00  1.00800000E+00
  0.00000000E+00  1.60000000E+01  1.00800000E+00  1.00800000E+00  0.00000000E+00
  1.60000000E+01  1.00800000E+00  1.00800000E+00  0.00000000E+00  1.60000000E+01
  1.00800000E+00  1.00800000E+00  0.00000000E+00  1.60000000E+01  1.00800000E+00
  1.00800000E+00  0.00000000E+00  1.60000000E+01  1.00800000E+00  1.00800000E+00
  0.00000000E+00  1.60000000E+01  1.00800000E+00  1.00800000E+00  0.00000000E+00
  1.60000000E+01  1.00800000E+00  1.00800000E+00  0.00000000E+00  1.60000000E+01
  1.00800000E+00  1.00800000E+00  0.00000000E+00  1.60000000E+01  1.00800000E+00
  1.00800000E+00  0.00000000E+00  1.60000000E+01  1.00800000E+00  1.00800000E+00
  0.00000000E+00  1.60000000E+01  1.00800000E+00  1.00800000E+00  0.00000000E+00
  1.60000000E+01  1.00800000E+00  1.00800000E+00  0.00000000E+00  1.60000000E+01
  1.00800000E+00  1.00800000E+00  0.00000000E+00  1.60000000E+01  1.00800000E+00
  1.00800000E+00  0.00000000E+00  1.60000000E+01  1.00800000E+00  1.00800000E+00
  0.00000000E+00  1.60000000E+01  1.00800000E+00  1.00800000E+00  0.00000000E+00
  1.60000000E+01  1.00800000E+00  1.00800000E+00  0.00000000E+00  1.60000000E+01
  1.00800000E+00  1.00800000E+00  0.00000000E+00  1.60000000E+01  1.00800000E+00
  1.00800000E+00  0.00000000E+00  1.60000000E+01  1.00800000E+00  1.00800000E+00
  0.00000000E+00  1.60000000E+01  1.00800000E+00  1.00800000E+00  0.00000000E+00
  1.60000000E+01  1.00800000E+00  1.00800000E+00  0.00000000E+00  1.60000000E+01
  1.00800000E+00  1.00800000E+00  0.00000000E+00  1.60000000E+01  1.00800000E+00
  1.00800000E+00  0.00000000E+00  1.60000000E+01  1.00800000E+00  1.00800000E+00
  0.00000000E+00  1.60000000E+01  1.00800000E+00  1.00800000E+00  0.00000000E+00
  1.60000000E+01  1.00800000E+00  1.00800000E+00  0.00000000E+00  1.60000000E+01
  1.00800000E+00  1.00800000E+00  0.00000000E+00  1.60000000E+01  1.00800000E+00
  1.00800000E+00  0.00000000E+00  1.60000000E+01  1.00800000E+00  1.00800000E+00
  0.00000000E+00  1.60000000E+01  1.00800000E+00  1.00800000E+00  0.00000000E+00
  1.60000000E+01  1.00800000E+00  1.00800000E+00  0.00000000E+00  1.60000000E+01
  1.00800000E+00  1.00800000E+00  0.00000000E+00  1.60000000E+01  1.00800000E+00
  1.00800000E+00  0.00000000E+00  1.60000000E+01  1.00800000E+00  1.00800000E+00
  0.00000000E+00  1.60000000E+01  1.00800000E+00  1.00800000E+00  0.00000000E+00
  1.60000000E+01  1.00800000E+00  1.00800000E+00  0.00000000E+00  1.60000000E+01
  1.00800000E+00  1.00800000E+00  0.00000000E+00  1.60000000E+01  1.00800000E+00
  1.00800000E+00  0.00000000E+00  1.60000000E+01  1.00800000E+00  1.00800000E+00
  0.00000000E+00  1.60000000E+01  1.00800000E+00  1.00800000E+00  0.00000000E+00
  1.60000000E+01  1.00800000E+00  1.00800000E+00  0.00000000E+00  1.60000000E+01
  1.00800000E+00  1.00800000E+00  0.00000000E+00  1.60000000E+01  1.00800000E+00
  1.00800000E+00  0.00000000E+00  1.60000000E+01  1.00800000E+00  1.00800000E+00
  0.00000000E+00  1.60000000E+01  1.00800000E+00  1.00800000E+00  0.00000000E+00
  1.60000000E+01  1.00800000E+00  1.00800000E+00  0.00000000E+00  1.60000000E+01
  1.00800000E+00  1.00800000E+00  0.00000000E+00  1.60000000E+01  1.00800000E+00
  1.00800000E+00  0.00000000E+00  1.60000000E+01  1.00800000E+00  1.00800000E+00
  0.00000000E+00  1.60000000E+01  1.00800000E+00  1.00800000E+00  0.00000000E+00
  1.60000000E+01  1.00800000E+00  1.00800000E+00  0.00000000E+00  1.60000000E+01
  1.00800000E+00  1.00800000E+00  0.00000000E+00  1.60000000E+01  1.00800000E+00
  1.00800000E+00  0.00000000E+00  1.60000000E+01  1.00800000E+00  1.00800000E+00
  0.00000000E+00  1.60000000E+01  1.00800000E+00  1.00800000E+00  0.00000000E+00
  1.60000000E+01  1.00800000E+00  1.00800000E+00  0.00000000E+00  1.60000000E+01
  1.00800000E+00  1.00800000E+00  0.00000000E+00  1.60000000E+01  1.00800000E+00
  1.00800000E+00  0.00000000E+00  1.60000000E+01  1.00800000E+00  1.00800000E+00
  0.00000000E+00  1.60000000E+01  1.00800000E+00  1.00800000E+00  0.00000000E+00
  1.60000000E+01  1.00800000E+00  1.00800000E+00  0.00000000E+00  1.60000000E+01
  1.00800000E+00  1.00800000E+00  0.00000000E+00  1.60000000E+01  1.00800000E+00
  1.00800000E+00  0.00000000E+00  1.60000000E+01  1.00800000E+00  1.00800000E+00
  0.00000000E+00  1.60000000E+01  1.00800000E+00  1.00800000E+00  0.00000000E+00
  1.60000000E+01  1.00800000E+00  1.00800000E+00  0.00000000E+00
%FLAG ATOM_TYPE_INDEX                                                           
%FORMAT(10I8)                                                                   
       1       2       1       1       3       4       5       6       2       7
       2       1       1       8       8       9      10       6       8       8
      11       8      11       8      11       8      11       8       3       4
       5       6       2       7       2       1       2       1       1       1
       2       1       1       1       3       4       5       6       2       7
       2       7       2       1       1       1      12      13       3       4
       5       6       2       7       2       1       1       8      10       6
       8      14      10       8       9       3       4       5       6       2
       7       2       1       1       2       1       1       2       7       7
      10       6       8      10       6       6      10       6       6       3
       4       3       4      15      15      15      15      15       3       3
      15       5       1       1       1       1       1       1       1       1
       1      11      11       1       1       6       5       6       2       7
       2       1       1       1       3       4       5       6       2       7
       7       3       4       5       6       2       7       2       1       1
       2       1       2       1       1       1       2       1       1       1
       3       4       3       4      15      15      15      15       5       1
       1       1       1       1       1       1       6       5       6       2
       7       2       7       7      12      13       3       4       5       6
       2       7       2       1       1       2       1       1       2       7
       7      10       6       8      10       6       6      10       6       6
       3       4       5       6       2       7       2       7       7      12
      13       3       4       5       6       2       7       7       3       4
       5       6       2       7       7       3       4       5       6       2
       7       2       1       2       1       1       1       2       1       1
       1       3       4       5       6       2       7       2       1       2
       1       1       1       2       1       1       1       3       4       5
       6       2       7       2       1       1       2       1       1       2
       1       1       2      16      16      10       6       6       6       3
       4       5       6       2       7       2       1       1       3       4
       5       6       6       3       4       5       6       2       7       2
       1       1       3       4       5       6       6       3       4       5
       6       2       7       2       1       1       8       8      11       8
      11       8      11       8      11       8      11       3       4       5
       6       2       7       2       1       2       1       1       1       2
       1       1       1       3       4       5       2       7       7       2
       1       1       2       1       1       2       7       3       4       5
       6       2       7       2       7       2       1       1       1      12
      13       3       4       5       6       2       7       2       1       1
       8      17      17       3       4       5       6       2       7       2
       1       2       1       1       1       2       1       1       1       3
       4       5       6       2       7       7       3       4       5       2
       7       7       2       1       1       2       1       1       2       7
       3       4       5       6       2       7       2       1       1       8
       8      11       8      11       8      11       8      11       8      11
       3       4       5       6       2       7       2       1       1       1
       3       4       5       6       2       7       2       1       1       8
       8      11       8      11       8      11       8      11       8      11
       3       4       5       6       6      18      18      18      18      18
      18      18      18      18      18      18      18      18      18      18
      18      18      18      18      18      18      19      19      19      19
      19      19      19      19      19      19      19      19      19      19
      19      19      19      19      19      19      19      19      19      20
      21      21      22      20      21      21      22      20      21      21
      22      20      21      21      22      20      21      21      22      20
      21      21      22      20      21      21      22      20      21      21
      22      20      21      21      22      20      21      21      22      20
      21      21      22      20      21      21      22      20      21      21
      22      20      21      21      22      20      21      21      22      20
      21      21      22      20      21      21      22      20      21      21
      22      20      21      21      22      20      21      21      22      20
      21      21      22      20      21      21      22      20      21      21
      22      20      21      21      22      20      21      21      22      20
      21      21      22      20      21      21      22      20      21      21
      22      20      21      21      22      20      21      21      22      20
      21      21      22      20      21      21      22      20      21      21
      22      20      21      21      22      20      21      21      22      20
      21      21      22      20      21      21      22      20      21      21
      22      20      21      21      22      20      21      21      22      20
      21      21      22      20      21      21      22      20      21      21
      22      20      21      21      22      20      21      21      22      20
      21      21      22      20      21      21      22      20      21      21
      22      20      21      21      22      20      21      21      22      20
      21      21      22      20      21      21      22      20      21      21
      22      20      21      21      22      20      21      21      22      20
      21      21      22      20      21      21      22      20      21      21
      22      20      21      21      22      20      21      21      22      20
      21      21      22      20      21      21      22      20      21      21
      22      20      21      21      22      20      21      21      22      20
      21      21      22      20      21      21      22      20      21      21
      22      20      21      21      22      20      21      21      22      20
      21      21      22      20      21      21      22      20      21      21
      22      20      21      21      22      20      21      21      22      20
      21      21      22      20      21      21      22      20      21      21
      22      20      21      21      22      20      21      21      22      20
      21      21      22      20      21      21      22      20      21      21
      22      20      21      21      22      20      21      21      22      20
      21      21      22      20      21      21      22      20      21      21
      22      20      21      21      22      20      21      21      22      20
      21      21      22      20      21      21      22      20      21      21
      22      20      21      21      22      20      21      21      22      20
      21      21      22      20      21      21      22      20      21      21
      22      20      21      21      22      20      21      21      22      20
      21      21      22      20      21      21      22      20      21      21
      22      20      21      21      22      20      21      21      22      20
      21      21      22      20      21      21      22      20      21      21
      22      20      21      21      22      20      21      21      22      20
      21      21      22      20      21      21      22      20      21      21
      22      20      21      21      22      20      21      21      22      20
      21      21      22      20      21      21      22      20      21      21
      22      20      21      21      22      20      21      21      22      20
      21      21      22      20      21      21      22      20      21      21
      22      20      21      21      22      20      21      21      22      20
      21      21      22      20      21      21      22      20      21      21
      22      20      21      21      22      20      21      21      22      20
      21      21      22      20      21      21      22      20      21      21
      22      20      21      21      22      20      21      21      22      20
      21      21      22      20      21      21      22      20      21      21
      22      20      21      21      22      20      21      21      22      20
      21      21      22      20      21      21      22      20      21      21
      22      20      21      21      22      20      21      21      22      20
      21      21      22      20      21      21      22      20      21      21
      22      20      21      21      22      20      21      21      22      20
      21      21      22      20      21      21      22      20      21      21
      22      20      21      21      22      20      21      21      22      20
      21      21      22      20      21      21      22      20      21      21
      22      20      21      21      22      20      21      21      22      20
      21      21      22      20      21      21      22      20      21      21
      22      20      21      21      22      20      21      21      22      20
      21      21      22      20      21      21      22      20      21      21
      22      20      21      21      22      20      21      21      22      20
      21      21      22      20      21      21      22      20      21      21
      22      20      21      21      22      20      21      21      22      20
      21      21      22      20      21      21      22      20      21      21
      22      20      21      21      22      20      21      21      22      20
      21      21      22      20      21      21      22      20      21      21
      22      20      21      21      22      20      21      21      22      20
      21      21      22      20      21      21      22      20      21      21
      22      20      21      21      22      20      21      21      22      20
      21      21      22      20      21      21      22      20      21      21
      22      20      21      21      22      20      21      21      22      20
      21      21      22      20      21      21      22      20      21      21
      22      20      21      21      22      20      21      21      22      20
      21      21      22      20      21      21      22      20      21      21
      22      20      21      21      22      20      21      21      22      20
      21      21      22      20      21      21      22      20      21      21
      22      20      21      21      22      20      21      21      22      20
      21      21      22      20      21      21      22      20      21      21
      22      20      21      21      22      20      21      21      22      20
      21      21      22      20      21      21      22      20      21      21
      22      20      21      21      22      20      21      21      22      20
      21      21      22      20      21      21      22      20      21      21
      22      20      21      21      22      20      21      21      22      20
      21      21      22      20      21      21      22      20      21      21
      22      20      21      21      22      20      21      21      22      20
      21      21      22      20      21      21      22      20      21      21
      22      20      21      21      22      20      21      21      22      20
      21      21      22      20      21      21      22      20      21      21
      22      20      21      21      22      20      21      21      22      20
      21      21      22      20      21      21      22      20      21      21
      22      20      21      21      22      20      21      21      22      20
      21      21      22      20      21      21      22      20      21      21
      22      20      21      21      22      20      21      21      22      20
      21      21      22      20      21      21      22      20      21      21
      22      20      21      21      22      20      21      21      22      20
      21      21      22      20      21      21      22      20      21      21
      22      20      21      21      22      20      21      21      22      20
      21      21      22      20      21      21      22      20      21      21
      22      20      21      21      22      20      21      21      22      20
      21      21      22      20      21      21      22      20      21      21
      22      20      21      21      22      20      21      21      22      20
      21      21      22      20      21      21      22      20      21      21
      22      20      21      21      22      20      21      21      22      20
      21      21      22      20      21      21      22      20      21      21
      22      20      21      21      22      20      21      21      22      20
      21      21      22      20      21      21      22      20      21      21
      22      20      21      21      22      20      21      21      22      20
      21      21      22      20      21      21      22      20      21      21
      22      20      21      21      22      20      21      21      22      20
      21      21      22      20      21      21      22      20      21      21
      22      20      21      21      22      20      21      21      22      20
      21      21      22      20      21      21      22      20      21      21
      22      20      21      21      22      20      21      21      22      20
      21      21      22      20      21      21      22      20      21      21
      22      20      21      21      22      20      21      21      22      20
      21      21      22      20      21      21      22      20      21      21
      22      20      21      21      22      20      21      21      22      20
      21      21      22      20      21      21      22      20      21      21
      22      20      21      21      22      20      21      21      22      20
      21      21      22      20      21      21      22      20      21      21
      22      20      21      21      22      20      21      21      22      20
      21      21      22      20      21      21      22      20      21      21
      22      20      21      21      22      20      21      21      22      20
      21      21      22      20      21      21      22      20      21      21
      22      20      21      21      22      20      21      21      22      20
      21      21      22      20      21      21      22      20      21      21
      22      20      21      21      22      20      21      21      22      20
      21      21      22      20      21      21      22      20      21      21
      22      20      21      21      22      20      21      21      22      20
      21      21      22      20      21      21      22      20      21      21
      22      20      21      21      22      20      21      21      22      20
      21      21      22      20      21      21      22      20      21      21
      22      20      21      21      22      20      21      21      22      20
      21      21      22      20      21      21      22      20      21      21
      22      20      21      21      22      20      21      21      22      20
      21      21      22      20      21      21      22      20      21      21
      22      20      21      21      22      20      21      21      22      20
      21      21      22      20      21      21      22      20      21      21
      22      20      21      21      22      20      21      21      22      20
      21      21      22      20      21      21      22      20      21      21
      22      20      21      21      22      20      21      21      22      20
      21      21      22      20      21      21      22      20      21      21
      22      20      21      21      22      20      21      21      22      20
      21      21      22      20      21      21      22      20      21      21
      22      20      21      21      22      20      21      21      22      20
      21      21      22      20      21      21      22      20      21      21
      22      20      21      21      22      20      21      21      22      20
      21      21      22      20      21      21      22      20      21      21
      22      20      21      21      22      20      21      21      22      20
      21      21      22      20      21      21      22      20      21      21
      22      20      21      21      22      20      21      21      22      20
      21      21      22      20      21      21      22      20      21      21
      22      20      21      21      22      20      21      21      22      20
      21      21      22      20      21      21      22      20      21      21
      22      20      21      21      22      20      21      21      22      20
      21      21      22      20      21      21      22      20      21      21
      22      20      21      21      22      20      21      21      22      20
      21      21      22      20      21      21      22      20      21      21
      22      20      21      21      22      20      21      21      22      20
      21      21      22      20      21      21      22      20      21      21
      22      20      21      21      22      20      21      21      22      20
      21      21      22      20      21      21      22      20      21      21
      22      20      21      21      22      20      21      21      22      20
      21      21      22      20      21      21      22      20      21      21
      22      20      21      21      22      20      21      21      22      20
      21      21      22      20      21      21      22      20      21      21
      22      20      21      21      22      20      21      21      22      20
      21      21      22      20      21      21      22      20      21      21
      22      20      21      21      22      20      21      21      22      20
      21      21      22      20      21      21      22      20      21      21
      22      20      21      21      22      20      21      21      22      20
      21      21      22      20      21      21      22      20      21      21
      22      20      21      21      22      20      21      21      22      20
      21      21      22      20      21      21      22      20      21      21
      22      20      21      21      22      20      21      21      22      20
      21      21      22      20      21      21      22      20      21      21
      22      20      21      21      22      20      21      21      22      20
      21      21      22      20      21      21      22      20      21      21
      22      20      21      21      22      20      21      21      22      20
      21      21      22      20      21      21      22      20      21      21
      22      20      21      21      22      20      21      21      22      20
      21      21      22      20      21      21      22      20      21      21
      22      20      21      21      22      20      21      21      22      20
      21      21      22      20      21      21      22      20      21      21
      22      20      21      21      22      20      21      21      22      20
      21      21      22      20      21      21      22      20      21      21
      22      20      21      21      22      20      21      21      22      20
      21      21      22      20      21      21      22      20      21      21
      22      20      21      21      22      20      21      21      22      20
      21      21      22      20      21      21      22      20      21      21
      22      20      21      21      22      20      21      21      22      20
      21      21      22      20      21      21      22      20      21      21
      22      20      21      21      22      20      21      21      22      20
      21      21      22      20      21      21      22      20      21      21
      22      20      21      21      22      20      21      21      22      20
      21      21      22      20      21      21      22      20      21      21
      22      20      21      21      22      20      21      21      22      20
      21      21      22      20      21      21      22      20      21      21
      22      20      21      21      22      20      21      21      22      20
      21      21      22      20      21      21      22      20      21      21
      22      20      21      21      22      20      21      21      22      20
      21      21      22      20      21      21      22      20      21      21
      22      20      21      21      22      20      21      21      22      20
      21      21      22      20      21      21      22      20      21      21
      22      20      21      21      22      20      21      21      22      20
      21      21      22      20      21      21      22      20      21      21
      22      20      21      21      22      20      21      21      22      20
      21      21      22      20      21      21      22      20      21      21
      22      20      21      21      22      20      21      21      22      20
      21      21      22      20      21      21      22      20      21      21
      22      20      21      21      22      20      21      21      22      20
      21      21      22      20      21      21      22      20      21      21
      22      20      21      21      22      20      21      21      22      20
      21      21      22      20      21      21      22      20      21      21
      22      20      21      21      22      20      21      21      22      20
      21      21      22      20      21      21      22      20      21      21
      22      20      21      21      22      20      21      21      22      20
      21      21      22      20      21      21      22      20      21      21
      22      20      21      21      22      20      21      21      22      20
      21      21      22      20      21      21      22      20      21      21
      22      20      21      21      22      20      21      21      22      20
      21      21      22      20      21      21      22      20      21      21
      22      20      21      21      22      20      21      21      22      20
      21      21      22      20      21      21      22      20      21      21
      22      20      21      21      22      20      21      21      22      20
      21      21      22      20      21      21      22      20      21      21
      22      20      21      21      22      20      21      21      22      20
      21      21      22      20      21      21      22      20      21      21
      22      20      21      21      22      20      21      21      22      20
      21      21      22      20      21      21      22      20      21      21
      22      20      21      21      22      20      21      21      22      20
      21      21      22      20      21      21      22      20      21      21
      22      20      21      21      22      20      21      21      22      20
      21      21      22      20      21      21      22      20      21      21
      22      20      21      21      22      20      21      21      22      20
      21      21      22      20      21      21      22      20      21      21
      22      20      21      21      22      20      21      21      22      20
      21      21      22      20      21      21      22      20      21      21
      22      20      21      21      22      20      21      21      22      20
      21      21      22      20      21      21      22      20      21      21
      22      20      21      21      22      20      21      21      22      20
      21      21      22      20      21      21      22      20      21      21
      22      20      21      21      22      20      21      21      22      20
      21      21      22      20      21      21      22      20      21      21
      22      20      21      21      22      20      21      21      22      20
      21      21      22      20      21      21      22      20      21      21
      22      20      21      21      22      20      21      21      22      20
      21      21      22      20      21      21      22      20      21      21
      22      20      21      21      22      20      21      21      22      20
      21      21      22      20      21      21      22      20      21      21
      22      20      21      21      22      20      21      21      22      20
      21      21      22      20      21      21      22      20      21      21
      22      20      21      21      22      20      21      21      22      20
      21      21      22      20      21      21      22      20      21      21
      22      20      21      21      22      20      21      21      22      20
      21      21      22      20      21      21      22      20      21      21
      22      20      21      21      22      20      21      21      22      20
      21      21      22      20      21      21      22      20      21      21
      22      20      21      21      22      20      21      21      22      20
      21      21      22      20      21      21      22      20      21      21
      22      20      21      21      22      20      21      21      22      20
      21      21      22      20      21      21      22      20      21      21
      22      20      21      21      22      20      21      21      22      20
      21      21      22      20      21      21      22      20      21      21
      22      20      21      21      22      20      21      21      22      20
      21      21      22      20      21      21      22      20      21      21
      22      20      21      21      22      20      21      21      22      20
      21      21      22      20      21      21      22      20      21      21
      22      20      21      21      22      20      21      21      22      20
      21      21      22      20      21      21      22      20      21      21
      22      20      21      21      22      20      21      21      22      20
      21      21      22      20      21      21      22      20      21      21
      22      20      21      21      22      20      21      21      22      20
      21      21      22      20      21      21      22      20      21      21
      22      20      21      21      22      20      21      21      22      20
      21      21      22      20      21      21      22      20      21      21
      22      20      21      21      22      20      21      21      22      20
      21      21      22      20      21      21      22      20      21      21
      22      20      21      21      22      20      21      21      22      20
      21      21      22      20      21      21      22      20      21      21
      22      20      21      21      22      20      21      21      22      20
      21      21      22      20      21      21      22      20      21      21
      22      20      21      21      22      20      21      21      22      20
      21      21      22      20      21      21      22      20      21      21
      22      20      21      21      22      20      21      21      22      20
      21      21      22      20      21      21      22      20      21      21
      22      20      21      21      22      20      21      21      22      20
      21      21      22      20      21      21      22      20      21      21
      22      20      21      21      22      20      21      21      22      20
      21      21      22      20      21      21      22      20      21      21
      22      20      21      21      22      20      21      21      22      20
      21      21      22      20      21      21      22      20      21      21
      22      20      21      21      22      20      21      21      22      20
      21      21      22      20      21      21      22      20      21      21
      22      20      21      21      22      20      21      21      22      20
      21      21      22      20      21      21      22      20      21      21
      22      20      21      21      22      20      21      21      22      20
      21      21      22      20      21      21      22      20      21      21
      22      20      21      21      22      20      21      21      22      20
      21      21      22      20      21      21      22      20      21      21
      22      20      21      21      22      20      21      21      22      20
      21      21      22      20      21      21      22      20      21      21
      22      20      21      21      22      20      21      21      22      20
      21      21      22      20      21      21      22      20      21      21
      22      20      21      21      22      20      21      21      22      20
      21      21      22      20      21      21      22      20      21      21
      22      20      21      21      22      20      21      21      22      20
      21      21      22      20      21      21      22      20      21      21
      22      20      21      21      22      20      21      21      22      20
      21      21      22      20      21      21      22      20      21      21
      22      20      21      21      22      20      21      21      22      20
      21      21      22      20      21      21      22      20      21      21
      22      20      21      21      22      20      21      21      22      20
      21      21      22      20      21      21      22      20      21      21
      22      20      21      21      22      20      21      21      22      20
      21      21      22      20      21      21      22      20      21      21
      22      20      21      21      22      20      21      21      22      20
      21      21      22      20      21      21      22      20      21      21
      22      20      21      21      22      20      21      21      22      20
      21      21      22      20      21      21      22      20      21      21
      22      20      21      21      22      20      21      21      22      20
      21      21      22      20      21      21      22      20      21      21
      22      20      21      21      22      20      21      21      22      20
      21      21      22      20      21      21      22      20      21      21
      22      20      21      21      22      20      21      21      22      20
      21      21      22      20      21      21      22      20      21      21
      22      20      21      21      22      20      21      21      22      20
      21      21      22      20      21      21      22      20      21      21
      22      20      21      21      22      20      21      21      22      20
      21      21      22      20      21      21      22      20      21      21
      22      20      21      21      22      20      21      21      22      20
      21      21      22      20      21      21      22      20      21      21
      22      20      21      21      22      20      21      21      22      20
      21      21      22      20      21      21      22      20      21      21
      22      20      21      21      22      20      21      21      22      20
      21      21      22      20      21      21      22      20      21      21
      22      20      21      21      22      20      21      21      22      20
      21      21      22      20      21      21      22      20      21      21
      22      20      21      21      22      20      21      21      22      20
      21      21      22      20      21      21      22      20      21      21
      22      20      21      21      22      20      21      21      22      20
      21      21      22      20      21      21      22      20      21      21
      22      20      21      21      22      20      21      21      22      20
      21      21      22      20      21      21      22      20      21      21
      22      20      21      21      22      20      21      21      22      20
      21      21      22      20      21      21      22      20      21      21
      22      20      21      21      22      20      21      21      22      20
      21      21      22      20      21      21      22      20      21      21
      22      20      21      21      22      20      21      21      22      20
      21      21      22      20      21      21      22      20      21      21
      22      20      21      21      22      20      21      21      22      20
      21      21      22      20      21      21      22      20      21      21
      22      20      21      21      22      20      21      21      22      20
      21      21      22      20      21      21      22      20      21      21
      22      20      21      21      22      20      21      21      22      20
      21      21      22      20      21      21      22      20      21      21
      22      20      21      21      22      20      21      21      22      20
      21      21      22      20      21      21      22      20      21      21
      22      20      21      21      22      20      21      21      22      20
      21      21      22      20      21      21      22      20      21      21
      22      20      21      21      22      20      21      21      22      20
      21      21      22      20      21      21      22      20      21      21
      22      20      21      21      22      20      21      21      22      20
      21      21      22      20      21      21      22      20      21      21
      22      20      21      21      22      20      21      21      22      20
      21      21      22      20      21      21      22      20      21      21
      22      20      21      21      22      20      21      21      22      20
      21      21      22      20      21      21      22      20      21      21
      22      20      21      21      22      20      21      21      22      20
      21      21      22      20      21      21      22      20      21      21
      22      20      21      21      22      20      21      21      22      20
      21      21      22      20      21      21      22      20      21      21
      22      20      21      21      22      20      21      21      22      20
      21      21      22      20      21      21      22      20      21      21
      22      20      21      21      22      20      21      21      22      20
      21      21      22      20      21      21      22      20      21      21
      22      20      21      21      22      20      21      21      22      20
      21      21      22      20      21      21      22      20      21      21
      22      20      21      21      22      20      21      21      22      20
      21      21      22      20      21      21      22      20      21      21
      22      20      21      21      22      20      21      21      22      20
      21      21      22      20      21      21      22      20      21      21
      22      20      21      21      22      20      21      21      22      20
      21      21      22      20      21      21      22      20      21      21
      22      20      21      21      22      20      21      21      22      20
      21      21      22      20      21      21      22      20      21      21
      22      20      21      21      22      20      21      21      22      20
      21      21      22      20      21      21      22      20      21      21
      22      20      21      21      22      20      21      21      22      20
      21      21      22      20      21      21      22      20      21      21
      22      20      21      21      22      20      21      21      22      20
      21      21      22      20      21      21      22      20      21      21
      22      20      21      21      22      20      21      21      22      20
      21      21      22      20      21      21      22      20      21      21
      22      20      21      21      22      20      21      21      22      20
      21      21      22      20      21      21      22      20      21      21
      22      20      21      21      22      20      21      21      22      20
      21      21      22      20      21      21      22      20      21      21
      22      20      21      21      22      20      21      21      22      20
      21      21      22      20      21      21      22      20      21      21
      22      20      21      21      22      20      21      21      22      20
      21      21      22      20      21      21      22      20      21      21
      22      20      21      21      22      20      21      21      22      20
      21      21      22      20      21      21      22      20      21      21
      22      20      21      21      22      20      21      21      22      20
      21      21      22      20      21      21      22      20      21      21
      22      20      21      21      22      20      21      21      22      20
      21      21      22      20      21      21      22      20      21      21
      22      20      21      21      22      20      21      21      22      20
      21      21      22      20      21      21      22      20      21      21
      22      20      21      21      22      20      21      21      22      20
      21      21      22      20      21      21      22      20      21      21
      22      20      21      21      22      20      21      21      22      20
      21      21      22      20      21      21      22      20      21      21
      22      20      21      21      22      20      21      21      22      20
      21      21      22      20      21      21      22      20      21      21
      22      20      21      21      22      20      21      21      22      20
      21      21      22      20      21      21      22      20      21      21
      22      20      21      21      22      20      21      21      22      20
      21      21      22      20      21      21      22      20      21      21
      22      20      21      21      22      20      21      21      22      20
      21      21      22      20      21      21      22      20      21      21
      22      20      21      21      22      20      21      21      22      20
      21      21      22      20      21      21      22      20      21      21
      22      20      21      21      22      20      21      21      22      20
      21      21      22      20      21      21      22      20      21      21
      22      20      21      21      22      20      21      21      22      20
      21      21      22      20      21      21      22      20      21      21
      22      20      21      21      22      20      21      21      22      20
      21      21      22      20      21      21      22      20      21      21
      22      20      21      21      22      20      21      21      22      20
      21      21      22      20      21      21      22      20      21      21
      22      20      21      21      22      20      21      21      22      20
      21      21      22      20      21      21      22      20      21      21
      22      20      21      21      22      20      21      21      22      20
      21      21      22      20      21      21      22      20      21      21
      22      20      21      21      22      20      21      21      22      20
      21      21      22      20      21      21      22      20      21      21
      22      20      21      21      22      20      21      21      22      20
      21      21      22      20      21      21      22      20      21      21
      22      20      21      21      22      20      21      21      22      20
      21      21      22      20      21      21      22      20      21      21
      22      20      21      21      22      20      21      21      22      20
      21      21      22      20      21      21      22      20      21      21
      22      20      21      21      22      20      21      21      22      20
      21      21      22      20      21      21      22      20      21      21
      22      20      21      21      22      20      21      21      22      20
      21      21      22      20      21      21      22      20      21      21
      22      20      21      21      22      20      21      21      22      20
      21      21      22      20      21      21      22      20      21      21
      22      20      21      21      22      20      21      21      22      20
      21      21      22      20      21      21      22      20      21      21
      22      20      21      21      22      20      21      21      22      20
      21      21      22      20      21      21      22      20      21      21
      22      20      21      21      22      20      21      21      22      20
      21      21      22      20      21      21      22      20      21      21
      22      20      21      21      22      20      21      21      22      20
      21      21      22      20      21      21      22      20      21      21
      22      20      21      21      22      20      21      21      22      20
      21      21      22      20      21      21      22      20      21      21
      22      20      21      21      22      20      21      21      22      20
      21      21      22      20      21      21      22      20      21      21
      22      20      21      21      22      20      21      21      22      20
      21      21      22      20      21      21      22      20      21      21
      22      20      21      21      22      20      21      21      22      20
      21      21      22      20      21      21      22      20      21      21
      22      20      21      21      22      20      21      21      22      20
      21      21      22      20      21      21      22      20      21      21
      22      20      21      21      22      20      21      21      22      20
      21      21      22      20      21      21      22      20      21      21
      22      20      21      21      22      20      21      21      22      20
      21      21      22      20      21      21      22      20      21      21
      22      20      21      21      22      20      21      21      22      20
      21      21      22      20      21      21      22      20      21      21
      22      20      21      21      22      20      21      21      22      20
      21      21      22      20      21      21      22      20      21      21
      22      20      21      21      22      20      21      21      22      20
      21      21      22      20      21      21      22      20      21      21
      22      20      21      21      22      20      21      21      22      20
      21      21      22      20      21      21      22      20      21      21
      22      20      21      21      22      20      21      21      22      20
      21      21      22      20      21      21      22      20      21      21
      22      20      21      21      22      20      21      21      22      20
      21      21      22      20      21      21      22      20      21      21
      22      20      21      21      22      20      21      21      22      20
      21      21      22      20      21      21      22      20      21      21
      22      20      21      21      22      20      21      21      22      20
      21      21      22      20      21      21      22      20      21      21
      22      20      21      21      22      20      21      21      22      20
      21      21      22      20      21      21      22      20      21      21
      22      20      21      21      22      20      21      21      22      20
      21      21      22      20      21      21      22      20      21      21
      22      20      21      21      22      20      21      21      22      20
      21      21      22      20      21      21      22      20      21      21
      22      20      21      21      22      20      21      21      22      20
      21      21      22      20      21      21      22      20      21      21
      22      20      21      21      22      20      21      21      22      20
      21      21      22      20      21      21      22      20      21      21
      22      20      21      21      22      20      21      21      22      20
      21      21      22      20      21      21      22      20      21      21
      22      20      21      21      22      20      21      21      22      20
      21      21      22      20      21      21      22      20      21      21
      22      20      21      21      22      20      21      21      22      20
      21      21      22      20      21      21      22      20      21      21
      22      20      21      21      22      20      21      21      22      20
      21      21      22      20      21      21      22      20      21      21
      22      20      21      21      22      20      21      21      22      20
      21      21      22      20      21      21      22      20      21      21
      22      20      21      21      22      20      21      21      22      20
      21      21      22      20      21      21      22      20      21      21
      22      20      21      21      22      20      21      21      22      20
      21      21      22      20      21      21      22      20      21      21
      22      20      21      21      22      20      21      21      22      20
      21      21      22      20      21      21      22      20      21      21
      22      20      21      21      22      20      21      21      22      20
      21      21      22      20      21      21      22      20      21      21
      22      20      21      21      22      20      21      21      22      20
      21      21      22      20      21      21      22      20      21      21
      22      20      21      21      22      20      21      21      22      20
      21      21      22      20      21      21      22      20      21      21
      22      20      21      21      22      20      21      21      22      20
      21      21      22      20      21      21      22      20      21      21
      22      20      21      21      22      20      21      21      22      20
      21      21      22      20      21      21      22      20      21      21
      22      20      21      21      22      20      21      21      22      20
      21      21      22      20      21      21      22      20      21      21
      22      20      21      21      22      20      21      21      22      20
      21      21      22      20      21      21      22      20      21      21
      22      20      21      21      22      20      21      21      22      20
      21      21      22      20      21      21      22      20      21      21
      22      20      21      21      22      20      21      21      22      20
      21      21      22      20      21      21      22      20      21      21
      22      20      21      21      22      20      21      21      22      20
      21      21      22      20      21      21      22      20      21      21
      22      20      21      21      22      20      21      21      22      20
      21      21      22      20      21      21      22      20      21      21
      22      20      21      21      22      20      21      21      22      20
      21      21      22      20      21      21      22      20      21      21
      22      20      21      21      22      20      21      21      22      20
      21      21      22      20      21      21      22      20      21      21
      22      20      21      21      22      20      21      21      22      20
      21      21      22      20      21      21      22      20      21      21
      22      20      21      21      22      20      21      21      22      20
      21      21      22      20      21      21      22      20      21      21
      22      20      21      21      22      20      21      21      22      20
      21      21      22      20      21      21      22      20      21      21
      22      20      21      21      22      20      21      21      22      20
      21      21      22      20      21      21      22      20      21      21
      22      20      21      21      22      20      21      21      22      20
      21      21      22      20      21      21      22      20      21      21
      22      20      21      21      22      20      21      21      22      20
      21      21      22      20      21      21      22      20      21      21
      22      20      21      21      22      20      21      21      22      20
      21      21      22      20      21      21      22      20      21      21
      22      20      21      21      22      20      21      21      22      20
      21      21      22      20      21      21      22      20      21      21
      22      20      21      21      22      20      21      21      22      20
      21      21      22      20      21      21      22      20      21      21
      22      20      21      21      22      20      21      21      22      20
      21      21      22      20      21      21      22      20      21      21
      22      20      21      21      22      20      21      21      22      20
      21      21      22      20      21      21      22      20      21      21
      22      20      21      21      22      20      21      21      22      20
      21      21      22      20      21      21      22      20      21      21
      22      20      21      21      22      20      21      21      22      20
      21      21      22      20      21      21      22      20      21      21
      22      20      21      21      22      20      21      21      22      20
      21      21      22      20      21      21      22      20      21      21
      22      20      21      21      22      20      21      21      22      20
      21      21      22      20      21      21      22      20      21      21
      22      20      21      21      22      20      21      21      22      20
      21      21      22      20      21      21      22      20      21      21
      22      20      21      21      22      20      21      21      22      20
      21      21      22      20      21      21      22      20      21      21
      22      20      21      21      22      20      21      21      22      20
      21      21      22      20      21      21      22      20      21      21
      22      20      21      21      22      20      21      21      22      20
      21      21      22      20      21      21      22      20      21      21
      22      20      21      21      22      20      21      21      22      20
      21      21      22      20      21      21      22      20      21      21
      22      20      21      21      22      20      21      21      22      20
      21      21      22      20      21      21      22      20      21      21
      22      20      21      21      22      20      21      21      22      20
      21      21      22      20      21      21      22      20      21      21
      22      20      21      21      22      20      21      21      22      20
      21      21      22      20      21      21      22      20      21      21
      22      20      21      21      22      20      21      21      22      20
      21      21      22      20      21      21      22      20      21      21
      22      20      21      21      22      20      21      21      22      20
      21      21      22      20      21      21      22      20      21      21
      22      20      21      21      22      20      21      21      22      20
      21      21      22      20      21      21      22      20      21      21
      22      20      21      21      22      20      21      21      22      20
      21      21      22      20      21      21      22      20      21      21
      22      20      21      21      22      20      21      21      22      20
      21      21      22      20      21      21      22      20      21      21
      22      20      21      21      22      20      21      21      22      20
      21      21      22      20      21      21      22      20      21      21
      22      20      21      21      22      20      21      21      22      20
      21      21      22      20      21      21      22      20      21      21
      22      20      21      21      22      20      21      21      22      20
      21      21      22      20      21      21      22      20      21      21
      22      20      21      21      22      20      21      21      22      20
      21      21      22      20      21      21      22      20      21      21
      22      20      21      21      22      20      21      21      22      20
      21      21      22      20      21      21      22      20      21      21
      22      20      21      21      22      20      21      21      22      20
      21      21      22      20      21      21      22      20      21      21
      22      20      21      21      22      20      21      21      22      20
      21      21      22      20      21      21      22      20      21      21
      22      20      21      21      22      20      21      21      22      20
      21      21      22      20      21      21      22      20      21      21
      22      20      21      21      22      20      21      21      22      20
      21      21      22      20      21      21      22      20      21      21
      22      20      21      21      22      20      21      21      22      20
      21      21      22      20      21      21      22      20      21      21
      22      20      21      21      22      20      21      21      22      20
      21      21      22      20      21      21      22      20      21      21
      22      20      21      21      22      20      21      21      22      20
      21      21      22      20      21      21      22      20      21      21
      22      20      21      21      22      20      21      21      22      20
      21      21      22      20      21      21      22      20      21      21
      22      20      21      21      22      20      21      21      22      20
      21      21      22      20      21      21      22      20      21      21
      22      20      21      21      22      20      21      21      22      20
      21      21      22      20      21      21      22      20      21      21
      22      20      21      21      22      20      21      21      22      20
      21      21      22      20      21      21      22      20      21      21
      22      20      21      21      22      20      21      21      22      20
      21      21      22      20      21      21      22      20      21      21
      22      20      21      21      22      20      21      21      22      20
      21      21      22      20      21      21      22      20      21      21
      22      20      21      21      22      20      21      21      22      20
      21      21      22      20      21      21      22      20      21      21
      22      20      21      21      22      20      21      21      22      20
      21      21      22      20      21      21      22      20      21      21
      22      20      21      21      22      20      21      21      22      20
      21      21      22      20      21      21      22      20      21      21
      22      20      21      21      22      20      21      21      22      20
      21      21      22      20      21      21      22      20      21      21
      22      20      21      21      22      20      21      21      22      20
      21      21      22      20      21      21      22      20      21      21
      22      20      21      21      22      20      21      21      22      20
      21      21      22      20      21      21      22      20      21      21
      22      20      21      21      22      20      21      21      22      20
      21      21      22      20      21      21      22      20      21      21
      22      20      21      21      22      20      21      21      22      20
      21      21      22      20      21      21      22      20      21      21
      22      20      21      21      22      20      21      21      22      20
      21      21      22      20      21      21      22      20      21      21
      22      20      21      21      22      20      21      21      22      20
      21      21      22      20      21      21      22      20      21      21
      22      20      21      21      22      20      21      21      22      20
      21      21      22      20      21      21      22      20      21      21
      22      20      21      21      22      20      21      21      22      20
      21      21      22      20      21      21      22      20      21      21
      22      20      21      21      22      20      21      21      22      20
      21      21      22      20      21      21      22      20      21      21
      22      20      21      21      22      20      21      21      22      20
      21      21      22      20      21      21      22      20      21      21
      22      20      21      21      22      20      21      21      22      20
      21      21      22      20      21      21      22      20      21      21
      22      20      21      21      22      20      21      21      22      20
      21      21      22      20      21      21      22      20      21      21
      22      20      21      21      22      20      21      21      22      20
      21      21      22      20      21      21      22      20      21      21
      22      20      21      21      22      20      21      21      22      20
      21      21      22      20      21      21      22      20      21      21
      22      20      21      21      22      20      21      21      22      20
      21      21      22      20      21      21      22      20      21      21
      22      20      21      21      22      20      21      21      22      20
      21      21      22      20      21      21      22      20      21      21
      22      20      21      21      22      20      21      21      22      20
      21      21      22      20      21      21      22      20      21      21
      22      20      21      21      22      20      21      21      22      20
      21      21      22      20      21      21      22      20      21      21
      22      20      21      21      22      20      21      21      22      20
      21      21      22      20      21      21      22      20      21      21
      22      20      21      21      22      20      21      21      22      20
      21      21      22      20      21      21      22      20      21      21
      22      20      21      21      22      20      21      21      22      20
      21      21      22      20      21      21      22      20      21      21
      22      20      21      21      22      20      21      21      22      20
      21      21      22      20      21      21      22      20      21      21
      22      20      21      21      22      20      21      21      22      20
      21      21      22      20      21      21      22      20      21      21
      22      20      21      21      22      20      21      21      22      20
      21      21      22      20      21      21      22      20      21      21
      22      20      21      21      22      20      21      21      22      20
      21      21      22      20      21      21      22      20      21      21
      22      20      21      21      22      20      21      21      22      20
      21      21      22      20      21      21      22      20      21      21
      22      20      21      21      22      20      21      21      22      20
      21      21      22      20      21      21      22      20      21      21
      22      20      21      21      22      20      21      21      22      20
      21      21      22      20      21      21      22      20      21      21
      22      20      21      21      22      20      21      21      22      20
      21      21      22      20      21      21      22      20      21      21
      22      20      21      21      22      20      21      21      22      20
      21      21      22      20      21      21      22      20      21      21
      22      20      21      21      22      20      21      21      22      20
      21      21      22      20      21      21      22      20      21      21
      22      20      21      21      22      20      21      21      22      20
      21      21      22      20      21      21      22      20      21      21
      22      20      21      21      22      20      21      21      22      20
      21      21      22      20      21      21      22      20      21      21
      22      20      21      21      22      20      21      21      22      20
      21      21      22      20      21      21      22      20      21      21
      22      20      21      21      22      20      21      21      22      20
      21      21      22      20      21      21      22      20      21      21
      22      20      21      21      22      20      21      21      22      20
      21      21      22      20      21      21      22      20      21      21
      22      20      21      21      22      20      21      21      22      20
      21      21      22      20      21      21      22      20      21      21
      22      20      21      21      22      20      21      21      22      20
      21      21      22      20      21      21      22      20      21      21
      22      20      21      21      22      20      21      21      22      20
      21      21      22      20      21      21      22      20      21      21
      22      20      21      21      22      20      21      21      22      20
      21      21      22      20      21      21      22      20      21      21
      22      20      21      21      22      20      21      21      22      20
      21      21      22      20      21      21      22      20      21      21
      22      20      21      21      22      20      21      21      22      20
      21      21      22      20      21      21      22      20      21      21
      22      20      21      21      22      20      21      21      22      20
      21      21      22      20      21      21      22      20      21      21
      22      20      21      21      22      20      21      21      22      20
      21      21      22      20      21      21      22      20      21      21
      22      20      21      21      22      20      21      21      22      20
      21      21      22      20      21      21      22      20      21      21
      22      20      21      21      22      20      21      21      22      20
      21      21      22      20      21      21      22      20      21      21
      22      20      21      21      22      20      21      21      22      20
      21      21      22      20      21      21      22      20      21      21
      22      20      21      21      22      20      21      21      22      20
      21      21      22      20      21      21      22      20      21      21
      22      20      21      21      22      20      21      21      22      20
      21      21      22      20      21      21      22      20      21      21
      22      20      21      21      22      20      21      21      22      20
      21      21      22      20      21      21      22      20      21      21
      22      20      21      21      22      20      21      21      22      20
      21      21      22      20      21      21      22      20      21      21
      22      20      21      21      22      20      21      21      22      20
      21      21      22      20      21      21      22      20      21      21
      22      20      21      21      22      20      21      21      22      20
      21      21      22      20      21      21      22      20      21      21
      22      20      21      21      22      20      21      21      22      20
      21      21      22      20      21      21      22      20      21      21
      22      20      21      21      22      20      21      21      22      20
      21      21      22      20      21      21      22      20      21      21
      22      20      21      21      22      20      21      21      22      20
      21      21      22      20      21      21      22      20      21      21
      22      20      21      21      22      20      21      21      22      20
      21      21      22      20      21      21      22      20      21      21
      22      20      21      21      22      20      21      21      22      20
      21      21      22      20      21      21      22      20      21      21
      22      20      21      21      22      20      21      21      22      20
      21      21      22      20      21      21      22      20      21      21
      22      20      21      21      22      20      21      21      22      20
      21      21      22      20      21      21      22      20      21      21
      22      20      21      21      22      20      21      21      22      20
      21      21      22      20      21      21      22      20      21      21
      22      20      21      21      22      20      21      21      22      20
      21      21      22      20      21      21      22      20      21      21
      22      20      21      21      22      20      21      21      22      20
      21      21      22      20      21      21      22      20      21      21
      22      20      21      21      22      20      21      21      22      20
      21      21      22      20      21      21      22      20      21      21
      22      20      21      21      22      20      21      21      22      20
      21      21      22      20      21      21      22      20      21      21
      22      20      21      21      22      20      21      21      22      20
      21      21      22      20      21      21      22      20      21      21
      22      20      21      21      22      20      21      21      22      20
      21      21      22      20      21      21      22      20      21      21
      22      20      21      21      22      20      21      21      22      20
      21      21      22      20      21      21      22      20      21      21
      22      20      21      21      22      20      21      21      22      20
      21      21      22      20      21      21      22      20      21      21
      22      20      21      21      22      20      21      21      22      20
      21      21      22      20      21      21      22      20      21      21
      22      20      21      21      22      20      21      21      22      20
      21      21      22      20      21      21      22      20      21      21
      22      20      21      21      22      20      21      21      22      20
      21      21      22      20      21      21      22      20      21      21
      22      20      21      21      22      20      21      21      22      20
      21      21      22      20      21      21      22      20      21      21
      22      20      21      21      22      20      21      21      22      20
      21      21      22      20      21      21      22      20      21      21
      22      20      21      21      22      20      21      21      22      20
      21      21      22      20      21      21      22      20      21      21
      22      20      21      21      22      20      21      21      22      20
      21      21      22      20      21      21      22      20      21      21
      22      20      21      21      22      20      21      21      22      20
      21      21      22      20      21      21      22      20      21      21
      22      20      21      21      22      20      21      21      22      20
      21      21      22      20      21      21      22      20      21      21
      22      20      21      21      22      20      21      21      22      20
      21      21      22      20      21      21      22      20      21      21
      22      20      21      21      22      20      21      21      22      20
      21      21      22      20      21      21      22      20      21      21
      22      20      21      21      22      20      21      21      22      20
      21      21      22      20      21      21      22      20      21      21
      22      20      21      21      22      20      21      21      22      20
      21      21      22      20      21      21      22      20      21      21
      22      20      21      21      22      20      21      21      22      20
      21      21      22      20      21      21      22      20      21      21
      22      20      21      21      22      20      21      21      22      20
      21      21      22      20      21      21      22      20      21      21
      22      20      21      21      22      20      21      21      22      20
      21      21      22      20      21      21      22      20      21      21
      22      20      21      21      22      20      21      21      22      20
      21      21      22      20      21      21      22      20      21      21
      22      20      21      21      22      20      21      21      22      20
      21      21      22      20      21      21      22      20      21      21
      22      20      21      21      22      20      21      21      22      20
      21      21      22      20      21      21      22      20      21      21
      22      20      21      21      22      20      21      21      22      20
      21      21      22      20      21      21      22      20      21      21
      22      20      21      21      22      20      21      21      22      20
      21      21      22      20      21      21      22      20      21      21
      22      20      21      21      22      20      21      21      22      20
      21      21      22      20      21      21      22      20      21      21
      22      20      21      21      22      20      21      21      22      20
      21      21      22      20      21      21      22      20      21      21
      22      20      21      21      22      20      21      21      22      20
      21      21      22      20      21      21      22      20      21      21
      22      20      21      21      22      20      21      21      22      20
      21      21      22      20      21      21      22      20      21      21
      22      20      21      21      22      20      21      21      22      20
      21      21      22      20      21      21      22      20      21      21
      22      20      21      21      22      20      21      21      22      20
      21      21      22      20      21      21      22      20      21      21
      22      20      21      21      22      20      21      21      22      20
      21      21      22      20      21      21      22      20      21      21
      22      20      21      21      22      20      21      21      22      20
      21      21      22      20      21      21      22      20      21      21
      22      20      21      21      22      20      21      21      22      20
      21      21      22      20      21      21      22      20      21      21
      22      20      21      21      22      20      21      21      22      20
      21      21      22      20      21      21      22      20      21      21
      22      20      21      21      22      20      21      21      22      20
      21      21      22      20      21      21      22      20      21      21
      22      20      21      21      22      20      21      21      22      20
      21      21      22      20      21      21      22      20      21      21
      22      20      21      21      22      20      21      21      22      20
      21      21      22      20      21      21      22      20      21      21
      22      20      21      21      22      20      21      21      22      20
      21      21      22      20      21      21      22      20      21      21
      22      20      21      21      22      20      21      21      22      20
      21      21      22      20      21      21      22      20      21      21
      22      20      21      21      22      20      21      21      22      20
      21      21      22      20      21      21      22      20      21      21
      22      20      21      21      22      20      21      21      22      20
      21      21      22      20      21      21      22      20      21      21
      22      20      21      21      22      20      21      21      22      20
      21      21      22      20      21      21      22      20      21      21
      22      20      21      21      22      20      21      21      22      20
      21      21      22      20      21      21      22      20      21      21
      22      20      21      21      22      20      21      21      22      20
      21      21      22      20      21      21      22      20      21      21
      22      20      21      21      22      20      21      21      22      20
      21      21      22      20      21      21      22      20      21      21
      22      20      21      21      22      20      21      21      22      20
      21      21      22      20      21      21      22      20      21      21
      22      20      21      21      22      20      21      21      22      20
      21      21      22      20      21      21      22      20      21      21
      22      20      21      21      22      20      21      21      22      20
      21      21      22      20      21      21      22      20      21      21
      22      20      21      21      22      20      21      21      22      20
      21      21      22      20      21      21      22      20      21      21
      22      20      21      21      22      20      21      21      22      20
      21      21      22      20      21      21      22      20      21      21
      22      20      21      21      22      20      21      21      22      20
      21      21      22      20      21      21      22      20      21      21
      22      20      21      21      22      20      21      21      22      20
      21      21      22      20      21      21      22      20      21      21
      22      20      21      21      22      20      21      21      22      20
      21      21      22      20      21      21      22      20      21      21
      22      20      21      21      22      20      21      21      22      20
      21      21      22      20      21      21      22      20      21      21
      22      20      21      21      22      20      21      21      22      20
      21      21      22      20      21      21      22      20      21      21
      22      20      21      21      22      20      21      21      22      20
      21      21      22      20      21      21      22      20      21      21
      22      20      21      21      22      20      21      21      22      20
      21      21      22      20      21      21      22      20      21      21
      22      20      21      21      22      20      21      21      22      20
      21      21      22      20      21      21      22      20      21      21
      22      20      21      21      22      20      21      21      22      20
      21      21      22      20      21      21      22      20      21      21
      22      20      21      21      22      20      21      21      22      20
      21      21      22      20      21      21      22      20      21      21
      22      20      21      21      22      20      21      21      22      20
      21      21      22      20      21      21      22      20      21      21
      22      20      21      21      22      20      21      21      22      20
      21      21      22      20      21      21      22      20      21      21
      22      20      21      21      22      20      21      21      22      20
      21      21      22      20      21      21      22      20      21      21
      22      20      21      21      22      20      21      21      22      20
      21      21      22      20      21      21      22      20      21      21
      22      20      21      21      22      20      21      21      22      20
      21      21      22      20      21      21      22      20      21      21
      22      20      21      21      22      20      21      21      22      20
      21      21      22      20      21      21      22      20      21      21
      22      20      21      21      22      20      21      21      22      20
      21      21      22      20      21      21      22      20      21      21
      22      20      21      21      22      20      21      21      22      20
      21      21      22      20      21      21      22      20      21      21
      22      20      21      21      22      20      21      21      22      20
      21      21      22      20      21      21      22      20      21      21
      22      20      21      21      22      20      21      21      22      20
      21      21      22      20      21      21      22      20      21      21
      22      20      21      21      22      20      21      21      22      20
      21      21      22      20      21      21      22      20      21      21
      22      20      21      21      22      20      21      21      22      20
      21      21      22      20      21      21      22      20      21      21
      22      20      21      21      22      20      21      21      22      20
      21      21      22      20      21      21      22      20      21      21
      22      20      21      21      22      20      21      21      22      20
      21      21      22      20      21      21      22      20      21      21
      22      20      21      21      22      20      21      21      22      20
      21      21      22      20      21      21      22      20      21      21
      22      20      21      21      22      20      21      21      22      20
      21      21      22      20      21      21      22      20      21      21
      22      20      21      21      22      20      21      21      22      20
      21      21      22      20      21      21      22      20      21      21
      22      20      21      21      22      20      21      21      22      20
      21      21      22      20      21      21      22      20      21      21
      22      20      21      21      22      20      21      21      22      20
      21      21      22      20      21      21      22      20      21      21
      22      20      21      21      22      20      21      21      22      20
      21      21      22      20      21      21      22      20      21      21
      22      20      21      21      22      20      21      21      22      20
      21      21      22      20      21      21      22      20      21      21
      22      20      21      21      22      20      21      21      22      20
      21      21      22      20      21      21      22      20      21      21
      22      20      21      21      22      20      21      21      22      20
      21      21      22      20      21      21      22      20      21      21
      22      20      21      21      22      20      21      21      22      20
      21      21      22      20      21      21      22      20      21      21
      22      20      21      21      22      20      21      21      22      20
      21      21      22      20      21      21      22      20      21      21
      22      20      21      21      22      20      21      21      22      20
      21      21      22      20      21      21      22      20      21      21
      22      20      21      21      22      20      21      21      22      20
      21      21      22      20      21      21      22      20      21      21
      22      20      21      21      22      20      21      21      22      20
      21      21      22      20      21      21      22      20      21      21
      22      20      21      21      22      20      21      21      22      20
      21      21      22      20      21      21      22      20      21      21
      22      20      21      21      22      20      21      21      22      20
      21      21      22      20      21      21      22      20      21      21
      22      20      21      21      22      20      21      21      22      20
      21      21      22      20      21      21      22      20      21      21
      22      20      21      21      22      20      21      21      22      20
      21      21      22      20      21      21      22      20      21      21
      22      20      21      21      22      20      21      21      22      20
      21      21      22      20      21      21      22      20      21      21
      22      20      21      21      22      20      21      21      22      20
      21      21      22      20      21      21      22      20      21      21
      22      20      21      21      22      20      21      21      22      20
      21      21      22      20      21      21      22      20      21      21
      22      20      21      21      22      20      21      21      22      20
      21      21      22      20      21      21      22      20      21      21
      22      20      21      21      22      20      21      21      22      20
      21      21      22      20      21      21      22      20      21      21
      22      20      21      21      22      20      21      21      22      20
      21      21      22      20      21      21      22      20      21      21
      22      20      21      21      22      20      21      21      22      20
      21      21      22      20      21      21      22      20      21      21
      22      20      21      21      22      20      21      21      22      20
      21      21      22      20      21      21      22      20      21      21
      22      20      21      21      22      20      21      21      22      20
      21      21      22      20      21      21      22      20      21      21
      22      20      21      21      22      20      21      21      22      20
      21      21      22      20      21      21      22      20      21      21
      22      20      21      21      22      20      21      21      22      20
      21      21      22      20      21      21      22      20      21      21
      22      20      21      21      22      20      21      21      22      20
      21      21      22      20      21      21      22      20      21      21
      22      20      21      21      22      20      21      21      22      20
      21      21      22      20      21      21      22      20      21      21
      22      20      21      21      22      20      21      21      22      20
      21      21      22      20      21      21      22      20      21      21
      22      20      21      21      22      20      21      21      22      20
      21      21      22      20      21      21      22      20      21      21
      22      20      21      21      22      20      21      21      22      20
      21      21      22      20      21      21      22      20      21      21
      22      20      21      21      22      20      21      21      22      20
      21      21      22      20      21      21      22      20      21      21
      22      20      21      21      22      20      21      21      22      20
      21      21      22      20      21      21      22      20      21      21
      22      20      21      21      22      20      21      21      22      20
      21      21      22      20      21      21      22      20      21      21
      22      20      21      21      22      20      21      21      22      20
      21      21      22      20      21      21      22      20      21      21
      22      20      21      21      22      20      21      21      22      20
      21      21      22      20      21      21      22      20      21      21
      22      20      21      21      22      20      21      21      22      20
      21      21      22      20      21      21      22      20      21      21
      22      20      21      21      22      20      21      21      22      20
      21      21      22      20      21      21      22      20      21      21
      22      20      21      21      22      20      21      21      22      20
      21      21      22      20      21      21      22      20      21      21
      22      20      21      21      22      20      21      21      22      20
      21      21      22      20      21      21      22      20      21      21
      22      20      21      21      22      20      21      21      22      20
      21      21      22      20      21      21      22      20      21      21
      22      20      21      21      22      20      21      21      22      20
      21      21      22      20      21      21      22      20      21      21
      22      20      21      21      22      20      21      21      22      20
      21      21      22      20      21      21      22      20      21      21
      22      20      21      21      22      20      21      21      22      20
      21      21      22      20      21      21      22      20      21      21
      22      20      21      21      22      20      21      21      22      20
      21      21      22      20      21      21      22      20      21      21
      22      20      21      21      22      20      21      21      22      20
      21      21      22      20      21      21      22      20      21      21
      22      20      21      21      22      20      21      21      22      20
      21      21      22      20      21      21      22      20      21      21
      22      20      21      21      22      20      21      21      22      20
      21      21      22      20      21      21      22      20      21      21
      22      20      21      21      22      20      21      21      22      20
      21      21      22      20      21      21      22      20      21      21
      22      20      21      21      22      20      21      21      22      20
      21      21      22      20      21      21      22      20      21      21
      22      20      21      21      22      20      21      21      22      20
      21      21      22      20      21      21      22      20      21      21
      22      20      21      21      22      20      21      21      22      20
      21      21      22      20      21      21      22      20      21      21
      22      20      21      21      22      20      21      21      22      20
      21      21      22      20      21      21      22      20      21      21
      22      20      21      21      22      20      21      21      22      20
      21      21      22      20      21      21      22      20      21      21
      22      20      21      21      22      20      21      21      22      20
      21      21      22      20      21      21      22      20      21      21
      22      20      21      21      22      20      21      21      22      20
      21      21      22      20      21      21      22      20      21      21
      22      20      21      21      22      20      21      21      22      20
      21      21      22      20      21      21      22      20      21      21
      22      20      21      21      22      20      21      21      22      20
      21      21      22      20      21      21      22      20      21      21
      22      20      21      21      22      20      21      21      22      20
      21      21      22      20      21      21      22      20      21      21
      22      20      21      21      22      20      21      21      22      20
      21      21      22      20      21      21      22      20      21      21
      22      20      21      21      22      20      21      21      22      20
      21      21      22      20      21      21      22      20      21      21
      22      20      21      21      22      20      21      21      22      20
      21      21      22      20      21      21      22      20      21      21
      22      20      21      21      22      20      21      21      22      20
      21      21      22      20      21      21      22      20      21      21
      22      20      21      21      22      20      21      21      22      20
      21      21      22      20      21      21      22      20      21      21
      22      20      21      21      22      20      21      21      22      20
      21      21      22      20      21      21      22      20      21      21
      22      20      21      21      22      20      21      21      22      20
      21      21      22      20      21      21      22      20      21      21
      22      20      21      21      22      20      21      21      22      20
      21      21      22      20      21      21      22      20      21      21
      22      20      21      21      22      20      21      21      22      20
      21      21      22      20      21      21      22      20      21      21
      22      20      21      21      22      20      21      21      22      20
      21      21      22      20      21      21      22      20      21      21
      22      20      21      21      22      20      21      21      22      20
      21      21      22      20      21      21      22      20      21      21
      22      20      21      21      22      20      21      21      22      20
      21      21      22      20      21      21      22      20      21      21
      22      20      21      21      22      20      21      21      22      20
      21      21      22      20      21      21      22      20      21      21
      22      20      21      21      22      20      21      21      22      20
      21      21      22      20      21      21      22      20      21      21
      22      20      21      21      22      20      21      21      22      20
      21      21      22      20      21      21      22      20      21      21
      22      20      21      21      22      20      21      21      22      20
      21      21      22      20      21      21      22      20      21      21
      22      20      21      21      22      20      21      21      22      20
      21      21      22      20      21      21      22      20      21      21
      22      20      21      21      22      20      21      21      22      20
      21      21      22      20      21      21      22      20      21      21
      22      20      21      21      22      20      21      21      22      20
      21      21      22      20      21      21      22      20      21      21
      22      20      21      21      22      20      21      21      22      20
      21      21      22      20      21      21      22      20      21      21
      22      20      21      21      22      20      21      21      22      20
      21      21      22      20      21      21      22      20      21      21
      22      20      21      21      22      20      21      21      22      20
      21      21      22      20      21      21      22      20      21      21
      22      20      21      21      22      20      21      21      22      20
      21      21      22      20      21      21      22      20      21      21
      22      20      21      21      22      20      21      21      22      20
      21      21      22      20      21      21      22      20      21      21
      22      20      21      21      22      20      21      21      22      20
      21      21      22      20      21      21      22      20      21      21
      22      20      21      21      22      20      21      21      22      20
      21      21      22      20      21      21      22      20      21      21
      22      20      21      21      22      20      21      21      22      20
      21      21      22      20      21      21      22      20      21      21
      22      20      21      21      22      20      21      21      22      20
      21      21      22      20      21      21      22      20      21      21
      22      20      21      21      22      20      21      21      22      20
      21      21      22      20      21      21      22      20      21      21
      22      20      21      21      22      20      21      21      22      20
      21      21      22      20      21      21      22      20      21      21
      22      20      21      21      22      20      21      21      22      20
      21      21      22      20      21      21      22      20      21      21
      22      20      21      21      22      20      21      21      22      20
      21      21      22      20      21      21      22      20      21      21
      22      20      21      21      22      20      21      21      22      20
      21      21      22      20      21      21      22      20      21      21
      22      20      21      21      22      20      21      21      22      20
      21      21      22      20      21      21      22      20      21      21
      22      20      21      21      22      20      21      21      22      20
      21      21      22      20      21      21      22      20      21      21
      22      20      21      21      22      20      21      21      22      20
      21      21      22      20      21      21      22      20      21      21
      22      20      21      21      22      20      21      21      22      20
      21      21      22      20      21      21      22      20      21      21
      22      20      21      21      22      20      21      21      22      20
      21      21      22      20      21      21      22      20      21      21
      22      20      21      21      22      20      21      21      22      20
      21      21      22      20      21      21      22      20      21      21
      22      20      21      21      22      20      21      21      22      20
      21      21      22      20      21      21      22      20      21      21
      22      20      21      21      22      20      21      21      22      20
      21      21      22      20      21      21      22      20      21      21
      22      20      21      21      22      20      21      21      22      20
      21      21      22      20      21      21      22      20      21      21
      22      20      21      21      22      20      21      21      22      20
      21      21      22      20      21      21      22      20      21      21
      22      20      21      21      22      20      21      21      22      20
      21      21      22      20      21      21      22      20      21      21
      22      20      21      21      22      20      21      21      22      20
      21      21      22      20      21      21      22      20      21      21
      22      20      21      21      22      20      21      21      22      20
      21      21      22      20      21      21      22      20      21      21
      22      20      21      21      22      20      21      21      22      20
      21      21      22      20      21      21      22      20      21      21
      22      20      21      21      22      20      21      21      22      20
      21      21      22      20      21      21      22      20      21      21
      22      20      21      21      22      20      21      21      22      20
      21      21      22      20      21      21      22      20      21      21
      22      20      21      21      22      20      21      21      22      20
      21      21      22      20      21      21      22      20      21      21
      22      20      21      21      22      20      21      21      22      20
      21      21      22      20      21      21      22      20      21      21
      22      20      21      21      22      20      21      21      22      20
      21      21      22      20      21      21      22      20      21      21
      22      20      21      21      22      20      21      21      22      20
      21      21      22      20      21      21      22      20      21      21
      22      20      21      21      22      20      21      21      22      20
      21      21      22      20      21      21      22      20      21      21
      22      20      21      21      22      20      21      21      22      20
      21      21      22      20      21      21      22      20      21      21
      22      20      21      21      22      20      21      21      22      20
      21      21      22      20      21      21      22      20      21      21
      22      20      21      21      22      20      21      21      22      20
      21      21      22      20      21      21      22      20      21      21
      22      20      21      21      22      20      21      21      22      20
      21      21      22      20      21      21      22      20      21      21
      22      20      21      21      22      20      21      21      22      20
      21      21      22      20      21      21      22      20      21      21
      22      20      21      21      22      20      21      21      22      20
      21      21      22      20      21      21      22      20      21      21
      22      20      21      21      22      20      21      21      22      20
      21      21      22      20      21      21      22      20      21      21
      22      20      21      21      22      20      21      21      22      20
      21      21      22      20      21      21      22      20      21      21
      22      20      21      21      22      20      21      21      22      20
      21      21      22      20      21      21      22      20      21      21
      22      20      21      21      22      20      21      21      22      20
      21      21      22      20      21      21      22      20      21      21
      22      20      21      21      22      20      21      21      22      20
      21      21      22      20      21      21      22      20      21      21
      22      20      21      21      22      20      21      21      22      20
      21      21      22      20      21      21      22      20      21      21
      22      20      21      21      22      20      21      21      22      20
      21      21      22      20      21      21      22      20      21      21
      22      20      21      21      22      20      21      21      22      20
      21      21      22      20      21      21      22      20      21      21
      22      20      21      21      22      20      21      21      22      20
      21      21      22      20      21      21      22      20      21      21
      22      20      21      21      22      20      21      21      22      20
      21      21      22      20      21      21      22      20      21      21
      22      20      21      21      22      20      21      21      22      20
      21      21      22      20      21      21      22      20      21      21
      22      20      21      21      22      20      21      21      22      20
      21      21      22      20      21      21      22      20      21      21
      22      20      21      21      22      20      21      21      22      20
      21      21      22      20      21      21      22      20      21      21
      22      20      21      21      22      20      21      21      22      20
      21      21      22      20      21      21      22      20      21      21
      22      20      21      21      22      20      21      21      22      20
      21      21      22      20      21      21      22      20      21      21
      22      20      21      21      22      20      21      21      22      20
      21      21      22      20      21      21      22      20      21      21
      22      20      21      21      22      20      21      21      22      20
      21      21      22      20      21      21      22      20      21      21
      22      20      21      21      22      20      21      21      22      20
      21      21      22      20      21      21      22      20      21      21
      22      20      21      21      22      20      21      21      22      20
      21      21      22      20      21      21      22      20      21      21
      22      20      21      21      22      20      21      21      22      20
      21      21      22      20      21      21      22      20      21      21
      22      20      21      21      22      20      21      21      22      20
      21      21      22      20      21      21      22      20      21      21
      22      20      21      21      22      20      21      21      22      20
      21      21      22      20      21      21      22      20      21      21
      22      20      21      21      22      20      21      21      22      20
      21      21      22      20      21      21      22      20      21      21
      22      20      21      21      22      20      21      21      22      20
      21      21      22      20      21      21      22      20      21      21
      22      20      21      21      22      20      21      21      22      20
      21      21      22      20      21      21      22      20      21      21
      22      20      21      21      22      20      21      21      22      20
      21      21      22      20      21      21      22      20      21      21
      22      20      21      21      22      20      21      21      22      20
      21      21      22      20      21      21      22      20      21      21
      22      20      21      21      22      20      21      21      22      20
      21      21      22      20      21      21      22      20      21      21
      22      20      21      21      22      20      21      21      22      20
      21      21      22      20      21      21      22      20      21      21
      22      20      21      21      22      20      21      21      22      20
      21      21      22      20      21      21      22      20      21      21
      22      20      21      21      22      20      21      21      22      20
      21      21      22      20      21      21      22      20      21      21
      22      20      21      21      22      20      21      21      22      20
      21      21      22      20      21      21      22      20      21      21
      22      20      21      21      22      20      21      21      22      20
      21      21      22      20      21      21      22      20      21      21
      22      20      21      21      22      20      21      21      22      20
      21      21      22      20      21      21      22      20      21      21
      22      20      21      21      22      20      21      21      22      20
      21      21      22      20      21      21      22      20      21      21
      22      20      21      21      22      20      21      21      22      20
      21      21      22      20      21      21      22      20      21      21
      22      20      21      21      22      20      21      21      22      20
      21      21      22      20      21      21      22      20      21      21
      22      20      21      21      22      20      21      21      22      20
      21      21      22      20      21      21      22      20      21      21
      22      20      21      21      22      20      21      21      22      20
      21      21      22      20      21      21      22      20      21      21
      22      20      21      21      22      20      21      21      22      20
      21      21      22      20      21      21      22      20      21      21
      22      20      21      21      22      20      21      21      22      20
      21      21      22      20      21      21      22      20      21      21
      22      20      21      21      22      20      21      21      22      20
      21      21      22      20      21      21      22      20      21      21
      22      20      21      21      22      20      21      21      22      20
      21      21      22      20      21      21      22      20      21      21
      22      20      21      21      22      20      21      21      22      20
      21      21      22      20      21      21      22      20      21      21
      22      20      21      21      22      20      21      21      22      20
      21      21      22      20      21      21      22      20      21      21
      22      20      21      21      22      20      21      21      22      20
      21      21      22      20      21      21      22      20      21      21
      22      20      21      21      22      20      21      21      22      20
      21      21      22      20      21      21      22      20      21      21
      22      20      21      21      22      20      21      21      22      20
      21      21      22      20      21      21      22      20      21      21
      22      20      21      21      22      20      21      21      22      20
      21      21      22      20      21      21      22      20      21      21
      22      20      21      21      22      20      21      21      22      20
      21      21      22      20      21      21      22      20      21      21
      22      20      21      21      22      20      21      21      22      20
      21      21      22      20      21      21      22      20      21      21
      22      20      21      21      22      20      21      21      22      20
      21      21      22      20      21      21      22      20      21      21
      22      20      21      21      22      20      21      21      22      20
      21      21      22      20      21      21      22      20      21      21
      22      20      21      21      22      20      21      21      22      20
      21      21      22      20      21      21      22      20      21      21
      22      20      21      21      22      20      21      21      22      20
      21      21      22      20      21      21      22      20      21      21
      22      20      21      21      22      20      21      21      22      20
      21      21      22      20      21      21      22      20      21      21
      22      20      21      21      22      20      21      21      22      20
      21      21      22      20      21      21      22      20      21      21
      22      20      21      21      22      20      21      21      22      20
      21      21      22      20      21      21      22      20      21      21
      22      20      21      21      22      20      21      21      22      20
      21      21      22      20      21      21      22      20      21      21
      22      20      21      21      22      20      21      21      22      20
      21      21      22      20      21      21      22      20      21      21
      22      20      21      21      22      20      21      21      22      20
      21      21      22      20      21      21      22      20      21      21
      22      20      21      21      22      20      21      21      22      20
      21      21      22      20      21      21      22      20      21      21
      22      20      21      21      22      20      21      21      22      20
      21      21      22      20      21      21      22      20      21      21
      22      20      21      21      22      20      21      21      22      20
      21      21      22      20      21      21      22      20      21      21
      22      20      21      21      22      20      21      21      22      20
      21      21      22      20      21      21      22      20      21      21
      22      20      21      21      22      20      21      21      22      20
      21      21      22      20      21      21      22      20      21      21
      22      20      21      21      22      20      21      21      22      20
      21      21      22      20      21      21      22      20      21      21
      22      20      21      21      22      20      21      21      22      20
      21      21      22      20      21      21      22      20      21      21
      22      20      21      21      22      20      21      21      22      20
      21      21      22      20      21      21      22      20      21      21
      22      20      21      21      22      20      21      21      22      20
      21      21      22      20      21      21      22      20      21      21
      22      20      21      21      22      20      21      21      22      20
      21      21      22      20      21      21      22      20      21      21
      22      20      21      21      22      20      21      21      22      20
      21      21      22      20      21      21      22      20      21      21
      22      20      21      21      22      20      21      21      22      20
      21      21      22      20      21      21      22      20      21      21
      22      20      21      21      22      20      21      21      22      20
      21      21      22      20      21      21      22      20      21      21
      22      20      21      21      22      20      21      21      22      20
      21      21      22      20      21      21      22      20      21      21
      22      20      21      21      22      20      21      21      22      20
      21      21      22      20      21      21      22      20      21      21
      22      20      21      21      22      20      21      21      22      20
      21      21      22      20      21      21      22      20      21      21
      22      20      21      21      22      20      21      21      22      20
      21      21      22      20      21      21      22      20      21      21
      22      20      21      21      22      20      21      21      22      20
      21      21      22      20      21      21      22      20      21      21
      22      20      21      21      22      20      21      21      22      20
      21      21      22      20      21      21      22      20      21      21
      22      20      21      21      22      20      21      21      22      20
      21      21      22      20      21      21      22      20      21      21
      22      20      21      21      22      20      21      21      22      20
      21      21      22      20      21      21      22      20      21      21
      22      20      21      21      22      20      21      21      22      20
      21      21      22      20      21      21      22      20      21      21
      22      20      21      21      22      20      21      21      22      20
      21      21      22      20      21      21      22      20      21      21
      22      20      21      21      22      20      21      21      22      20
      21      21      22      20      21      21      22      20      21      21
      22      20      21      21      22      20      21      21      22      20
      21      21      22      20      21      21      22      20      21      21
      22      20      21      21      22      20      21      21      22      20
      21      21      22      20      21      21      22      20      21      21
      22      20      21      21      22      20      21      21      22      20
      21      21      22      20      21      21      22      20      21      21
      22      20      21      21      22      20      21      21      22      20
      21      21      22      20      21      21      22      20      21      21
      22      20      21      21      22      20      21      21      22      20
      21      21      22      20      21      21      22      20      21      21
      22      20      21      21      22      20      21      21      22      20
      21      21      22      20      21      21      22      20      21      21
      22      20      21      21      22      20      21      21      22      20
      21      21      22      20      21      21      22      20      21      21
      22      20      21      21      22      20      21      21      22      20
      21      21      22      20      21      21      22      20      21      21
      22      20      21      21      22      20      21      21      22      20
      21      21      22      20      21      21      22      20      21      21
      22      20      21      21      22      20      21      21      22      20
      21      21      22      20      21      21      22      20      21      21
      22      20      21      21      22      20      21      21      22      20
      21      21      22      20      21      21      22      20      21      21
      22      20      21      21      22      20      21      21      22      20
      21      21      22      20      21      21      22      20      21      21
      22      20      21      21      22      20      21      21      22      20
      21      21      22      20      21      21      22      20      21      21
      22      20      21      21      22      20      21      21      22      20
      21      21      22      20      21      21      22      20      21      21
      22      20      21      21      22      20      21      21      22      20
      21      21      22      20      21      21      22      20      21      21
      22      20      21      21      22      20      21      21      22      20
      21      21      22      20      21      21      22      20      21      21
      22      20      21      21      22      20      21      21      22      20
      21      21      22      20      21      21      22      20      21      21
      22      20      21      21      22      20      21      21      22      20
      21      21      22      20      21      21      22      20      21      21
      22      20      21      21      22      20      21      21      22      20
      21      21      22      20      21      21      22      20      21      21
      22      20      21      21      22      20      21      21      22      20
      21      21      22      20      21      21      22      20      21      21
      22      20      21      21      22      20      21      21      22      20
      21      21      22      20      21      21      22      20      21      21
      22      20      21      21      22      20      21      21      22      20
      21      21      22      20      21      21      22      20      21      21
      22      20      21      21      22      20      21      21      22      20
      21      21      22      20      21      21      22      20      21      21
      22      20      21      21      22      20      21      21      22      20
      21      21      22      20      21      21      22      20      21      21
      22      20      21      21      22      20      21      21      22      20
      21      21      22      20      21      21      22      20      21      21
      22      20      21      21      22      20      21      21      22      20
      21      21      22      20      21      21      22      20      21      21
      22      20      21      21      22      20      21      21      22      20
      21      21      22      20      21      21      22      20      21      21
      22      20      21      21      22      20      21      21      22      20
      21      21      22      20      21      21      22      20      21      21
      22      20      21      21      22      20      21      21      22      20
      21      21      22      20      21      21      22      20      21      21
      22      20      21      21      22      20      21      21      22      20
      21      21      22      20      21      21      22      20      21      21
      22      20      21      21      22      20      21      21      22      20
      21      21      22      20      21      21      22      20      21      21
      22      20      21      21      22      20      21      21      22      20
      21      21      22      20      21      21      22      20      21      21
      22      20      21      21      22      20      21      21      22      20
      21      21      22      20      21      21      22      20      21      21
      22      20      21      21      22      20      21      21      22      20
      21      21      22      20      21      21      22      20      21      21
      22      20      21      21      22      20      21      21      22      20
      21      21      22      20      21      21      22      20      21      21
      22      20      21      21      22      20      21      21      22      20
      21      21      22      20      21      21      22      20      21      21
      22      20      21      21      22      20      21      21      22      20
      21      21      22      20      21      21      22      20      21      21
      22      20      21      21      22      20      21      21      22      20
      21      21      22      20      21      21      22      20      21      21
      22      20      21      21      22      20      21      21      22      20
      21      21      22      20      21      21      22      20      21      21
      22      20      21      21      22      20      21      21      22      20
      21      21      22      20      21      21      22      20      21      21
      22      20      21      21      22      20      21      21      22      20
      21      21      22      20      21      21      22      20      21      21
      22      20      21      21      22      20      21      21      22      20
      21      21      22      20      21      21      22      20      21      21
      22      20      21      21      22      20      21      21      22      20
      21      21      22      20      21      21      22      20      21      21
      22      20      21      21      22      20      21      21      22      20
      21      21      22      20      21      21      22      20      21      21
      22      20      21      21      22      20      21      21      22      20
      21      21      22      20      21      21      22      20      21      21
      22      20      21      21      22      20      21      21      22      20
      21      21      22      20      21      21      22      20      21      21
      22      20      21      21      22      20      21      21      22      20
      21      21      22      20      21      21      22      20      21      21
      22      20      21      21      22      20      21      21      22      20
      21      21      22      20      21      21      22      20      21      21
      22      20      21      21      22      20      21      21      22      20
      21      21      22      20      21      21      22      20      21      21
      22      20      21      21      22      20      21      21      22      20
      21      21      22      20      21      21      22      20      21      21
      22      20      21      21      22      20      21      21      22      20
      21      21      22      20      21      21      22      20      21      21
      22      20      21      21      22      20      21      21      22      20
      21      21      22      20      21      21      22      20      21      21
      22      20      21      21      22      20      21      21      22      20
      21      21      22      20      21      21      22      20      21      21
      22      20      21      21      22      20      21      21      22      20
      21      21      22      20      21      21      22      20      21      21
      22      20      21      21      22      20      21      21      22      20
      21      21      22      20      21      21      22      20      21      21
      22      20      21      21      22      20      21      21      22      20
      21      21      22      20      21      21      22      20      21      21
      22      20      21      21      22      20      21      21      22      20
      21      21      22      20      21      21      22      20      21      21
      22      20      21      21      22      20      21      21      22      20
      21      21      22      20      21      21      22      20      21      21
      22      20      21      21      22      20      21      21      22      20
      21      21      22      20      21      21      22      20      21      21
      22      20      21      21      22      20      21      21      22      20
      21      21      22      20      21      21      22      20      21      21
      22      20      21      21      22      20      21      21      22      20
      21      21      22      20      21      21      22      20      21      21
      22      20      21      21      22      20      21      21      22      20
      21      21      22      20      21      21      22      20      21      21
      22      20      21      21      22      20      21      21      22      20
      21      21      22      20      21      21      22      20      21      21
      22      20      21      21      22      20      21      21      22      20
      21      21      22      20      21      21      22      20      21      21
      22      20      21      21      22      20      21      21      22      20
      21      21      22      20      21      21      22      20      21      21
      22      20      21      21      22      20      21      21      22      20
      21      21      22      20      21      21      22      20      21      21
      22      20      21      21      22      20      21      21      22      20
      21      21      22      20      21      21      22      20      21      21
      22      20      21      21      22      20      21      21      22      20
      21      21      22      20      21      21      22      20      21      21
      22      20      21      21      22      20      21      21      22      20
      21      21      22      20      21      21      22      20      21      21
      22      20      21      21      22      20      21      21      22      20
      21      21      22      20      21      21      22      20      21      21
      22      20      21      21      22      20      21      21      22      20
      21      21      22      20      21      21      22      20      21      21
      22      20      21      21      22      20      21      21      22      20
      21      21      22      20      21      21      22      20      21      21
      22      20      21      21      22      20      21      21      22      20
      21      21      22      20      21      21      22      20      21      21
      22      20      21      21      22      20      21      21      22      20
      21      21      22      20      21      21      22      20      21      21
      22      20      21      21      22      20      21      21      22      20
      21      21      22      20      21      21      22      20      21      21
      22      20      21      21      22      20      21      21      22      20
      21      21      22      20      21      21      22      20      21      21
      22      20      21      21      22      20      21      21      22      20
      21      21      22      20      21      21      22      20      21      21
      22      20      21      21      22      20      21      21      22      20
      21      21      22      20      21      21      22      20      21      21
      22      20      21      21      22      20      21      21      22      20
      21      21      22      20      21      21      22      20      21      21
      22      20      21      21      22      20      21      21      22      20
      21      21      22      20      21      21      22      20      21      21
      22      20      21      21      22      20      21      21      22      20
      21      21      22      20      21      21      22      20      21      21
      22      20      21      21      22      20      21      21      22      20
      21      21      22      20      21      21      22      20      21      21
      22      20      21      21      22      20      21      21      22      20
      21      21      22      20      21      21      22      20      21      21
      22      20      21      21      22      20      21      21      22      20
      21      21      22      20      21      21      22      20      21      21
      22      20      21      21      22      20      21      21      22      20
      21      21      22      20      21      21      22      20      21      21
      22      20      21      21      22      20      21      21      22      20
      21      21      22      20      21      21      22      20      21      21
      22      20      21      21      22      20      21      21      22      20
      21      21      22      20      21      21      22      20      21      21
      22      20      21      21      22      20      21      21      22      20
      21      21      22      20      21      21      22      20      21      21
      22      20      21      21      22      20      21      21      22      20
      21      21      22      20      21      21      22      20      21      21
      22      20      21      21      22      20      21      21      22      20
      21      21      22      20      21      21      22      20      21      21
      22      20      21      21      22      20      21      21      22      20
      21      21      22      20      21      21      22      20      21      21
      22      20      21      21      22      20      21      21      22      20
      21      21      22      20      21      21      22      20      21      21
      22      20      21      21      22      20      21      21      22      20
      21      21      22      20      21      21      22      20      21      21
      22      20      21      21      22      20      21      21      22      20
      21      21      22      20      21      21      22      20      21      21
      22      20      21      21      22      20      21      21      22      20
      21      21      22      20      21      21      22      20      21      21
      22      20      21      21      22      20      21      21      22      20
      21      21      22      20      21      21      22      20      21      21
      22      20      21      21      22      20      21      21      22      20
      21      21      22      20      21      21      22      20      21      21
      22      20      21      21      22      20      21      21      22      20
      21      21      22      20      21      21      22      20      21      21
      22      20      21      21      22      20      21      21      22      20
      21      21      22      20      21      21      22      20      21      21
      22      20      21      21      22      20      21      21      22      20
      21      21      22      20      21      21      22      20      21      21
      22      20      21      21      22      20      21      21      22      20
      21      21      22      20      21      21      22      20      21      21
      22      20      21      21      22      20      21      21      22      20
      21      21      22      20      21      21      22      20      21      21
      22      20      21      21      22      20      21      21      22      20
      21      21      22      20      21      21      22      20      21      21
      22      20      21      21      22      20      21      21      22      20
      21      21      22      20      21      21      22      20      21      21
      22      20      21      21      22      20      21      21      22      20
      21      21      22      20      21      21      22      20      21      21
      22      20      21      21      22      20      21      21      22      20
      21      21      22      20      21      21      22      20      21      21
      22      20      21      21      22      20      21      21      22      20
      21      21      22      20      21      21      22      20      21      21
      22      20      21      21      22      20      21      21      22      20
      21      21      22      20      21      21      22      20      21      21
      22      20      21      21      22      20      21      21      22      20
      21      21      22      20      21      21      22      20      21      21
      22      20      21      21      22      20      21      21      22      20
      21      21      22      20      21      21      22      20      21      21
      22      20      21      21      22      20      21      21      22      20
      21      21      22      20      21      21      22      20      21      21
      22      20      21      21      22      20      21      21      22      20
      21      21      22      20      21      21      22      20      21      21
      22      20      21      21      22      20      21      21      22      20
      21      21      22      20      21      21      22      20      21      21
      22      20      21      21      22      20      21      21      22      20
      21      21      22      20      21      21      22      20      21      21
      22      20      21      21      22      20      21      21      22      20
      21      21      22      20      21      21      22      20      21      21
      22      20      21      21      22      20      21      21      22      20
      21      21      22      20      21      21      22      20      21      21
      22      20      21      21      22      20      21      21      22      20
      21      21      22      20      21      21      22      20      21      21
      22      20      21      21      22      20      21      21      22      20
      21      21      22      20      21      21      22      20      21      21
      22      20      21      21      22      20      21      21      22      20
      21      21      22      20      21      21      22      20      21      21
      22      20      21      21      22      20      21      21      22      20
      21      21      22      20      21      21      22      20      21      21
      22      20      21      21      22      20      21      21      22      20
      21      21      22      20      21      21      22      20      21      21
      22      20      21      21      22      20      21      21      22      20
      21      21      22      20      21      21      22      20      21      21
      22      20      21      21      22      20      21      21      22      20
      21      21      22      20      21      21      22      20      21      21
      22      20      21      21      22      20      21      21      22      20
      21      21      22      20      21      21      22      20      21      21
      22      20      21      21      22      20      21      21      22      20
      21      21      22      20      21      21      22      20      21      21
      22      20      21      21      22      20      21      21      22      20
      21      21      22      20      21      21      22      20      21      21
      22      20      21      21      22      20      21      21      22      20
      21      21      22      20      21      21      22      20      21      21
      22      20      21      21      22      20      21      21      22      20
      21      21      22      20      21      21      22      20      21      21
      22      20      21      21      22      20      21      21      22      20
      21      21      22      20      21      21      22      20      21      21
      22      20      21      21      22      20      21      21      22      20
      21      21      22      20      21      21      22      20      21      21
      22      20      21      21      22      20      21      21      22      20
      21      21      22      20      21      21      22      20      21      21
      22      20      21      21      22      20      21      21      22      20
      21      21      22      20      21      21      22      20      21      21
      22      20      21      21      22      20      21      21      22      20
      21      21      22      20      21      21      22      20      21      21
      22      20      21      21      22      20      21      21      22      20
      21      21      22      20      21      21      22      20      21      21
      22      20      21      21      22      20      21      21      22      20
      21      21      22      20      21      21      22      20      21      21
      22      20      21      21      22      20      21      21      22      20
      21      21      22      20      21      21      22      20      21      21
      22      20      21      21      22      20      21      21      22      20
      21      21      22      20      21      21      22      20      21      21
      22      20      21      21      22      20      21      21      22      20
      21      21      22      20      21      21      22      20      21      21
      22      20      21      21      22      20      21      21      22      20
      21      21      22      20      21      21      22      20      21      21
      22      20      21      21      22      20      21      21      22      20
      21      21      22      20      21      21      22      20      21      21
      22      20      21      21      22      20      21      21      22      20
      21      21      22      20      21      21      22      20      21      21
      22      20      21      21      22      20      21      21      22      20
      21      21      22      20      21      21      22      20      21      21
      22      20      21      21      22      20      21      21      22      20
      21      21      22      20      21      21      22      20      21      21
      22      20      21      21      22      20      21      21      22      20
      21      21      22      20      21      21      22      20      21      21
      22      20      21      21      22      20      21      21      22      20
      21      21      22      20      21      21      22      20      21      21
      22      20      21      21      22      20      21      21      22      20
      21      21      22      20      21      21      22      20      21      21
      22      20      21      21      22      20      21      21      22      20
      21      21      22      20      21      21      22      20      21      21
      22      20      21      21      22      20      21      21      22      20
      21      21      22      20      21      21      22      20      21      21
      22      20      21      21      22      20      21      21      22      20
      21      21      22      20      21      21      22      20      21      21
      22      20      21      21      22      20      21      21      22      20
      21      21      22      20      21      21      22      20      21      21
      22      20      21      21      22      20      21      21      22      20
      21      21      22      20      21      21      22      20      21      21
      22      20      21      21      22      20      21      21      22      20
      21      21      22      20      21      21      22      20      21      21
      22      20      21      21      22      20      21      21      22      20
      21      21      22      20      21      21      22      20      21      21
      22      20      21      21      22      20      21      21      22      20
      21      21      22      20      21      21      22      20      21      21
      22      20      21      21      22      20      21      21      22      20
      21      21      22      20      21      21      22      20      21      21
      22      20      21      21      22      20      21      21      22      20
      21      21      22      20      21      21      22      20      21      21
      22      20      21      21      22      20      21      21      22      20
      21      21      22      20      21      21      22      20      21      21
      22      20      21      21      22      20      21      21      22      20
      21      21      22      20      21      21      22      20      21      21
      22      20      21      21      22      20      21      21      22      20
      21      21      22      20      21      21      22      20      21      21
      22      20      21      21      22      20      21      21      22      20
      21      21      22      20      21      21      22      20      21      21
      22      20      21      21      22      20      21      21      22      20
      21      21      22      20      21      21      22      20      21      21
      22      20      21      21      22      20      21      21      22      20
      21      21      22      20      21      21      22      20      21      21
      22      20      21      21      22      20      21      21      22      20
      21      21      22      20      21      21      22      20      21      21
      22      20      21      21      22      20      21      21      22      20
      21      21      22      20      21      21      22      20      21      21
      22      20      21      21      22      20      21      21      22      20
      21      21      22      20      21      21      22      20      21      21
      22      20      21      21      22      20      21      21      22      20
      21      21      22      20      21      21      22      20      21      21
      22      20      21      21      22      20      21      21      22      20
      21      21      22      20      21      21      22      20      21      21
      22      20      21      21      22      20      21      21      22      20
      21      21      22      20      21      21      22      20      21      21
      22      20      21      21      22      20      21      21      22      20
      21      21      22      20      21      21      22      20      21      21
      22      20      21      21      22      20      21      21      22      20
      21      21      22      20      21      21      22      20      21      21
      22      20      21      21      22      20      21      21      22      20
      21      21      22      20      21      21      22      20      21      21
      22      20      21      21      22      20      21      21      22      20
      21      21      22      20      21      21      22      20      21      21
      22      20      21      21      22      20      21      21      22      20
      21      21      22      20      21      21      22      20      21      21
      22      20      21      21      22      20      21      21      22      20
      21      21      22      20      21      21      22      20      21      21
      22      20      21      21      22      20      21      21      22      20
      21      21      22      20      21      21      22      20      21      21
      22      20      21      21      22      20      21      21      22      20
      21      21      22      20      21      21      22      20      21      21
      22      20      21      21      22      20      21      21      22      20
      21      21      22      20      21      21      22      20      21      21
      22      20      21      21      22      20      21      21      22      20
      21      21      22      20      21      21      22      20      21      21
      22      20      21      21      22      20      21      21      22      20
      21      21      22      20      21      21      22      20      21      21
      22      20      21      21      22      20      21      21      22      20
      21      21      22      20      21      21      22      20      21      21
      22      20      21      21      22      20      21      21      22      20
      21      21      22      20      21      21      22      20      21      21
      22      20      21      21      22      20      21      21      22      20
      21      21      22      20      21      21      22      20      21      21
      22      20      21      21      22      20      21      21      22      20
      21      21      22      20      21      21      22      20      21      21
      22      20      21      21      22      20      21      21      22      20
      21      21      22      20      21      21      22      20      21      21
      22      20      21      21      22      20      21      21      22      20
      21      21      22      20      21      21      22      20      21      21
      22      20      21      21      22      20      21      21      22      20
      21      21      22      20      21      21      22      20      21      21
      22      20      21      21      22      20      21      21      22      20
      21      21      22      20      21      21      22      20      21      21
      22      20      21      21      22      20      21      21      22      20
      21      21      22      20      21      21      22      20      21      21
      22      20      21      21      22      20      21      21      22      20
      21      21      22      20      21      21      22      20      21      21
      22      20      21      21      22      20      21      21      22      20
      21      21      22      20      21      21      22      20      21      21
      22      20      21      21      22      20      21      21      22      20
      21      21      22      20      21      21      22      20      21      21
      22      20      21      21      22      20      21      21      22      20
      21      21      22      20      21      21      22      20      21      21
      22      20      21      21      22      20      21      21      22      20
      21      21      22      20      21      21      22      20      21      21
      22      20      21      21      22      20      21      21      22      20
      21      21      22      20      21      21      22      20      21      21
      22      20      21      21      22      20      21      21      22      20
      21      21      22      20      21      21      22      20      21      21
      22      20      21      21      22      20      21      21      22      20
      21      21      22      20      21      21      22      20      21      21
      22      20      21      21      22      20      21      21      22      20
      21      21      22      20      21      21      22      20      21      21
      22      20      21      21      22      20      21      21      22      20
      21      21      22      20      21      21      22      20      21      21
      22      20      21      21      22      20      21      21      22      20
      21      21      22      20      21      21      22      20      21      21
      22      20      21      21      22      20      21      21      22      20
      21      21      22      20      21      21      22      20      21      21
      22      20      21      21      22      20      21      21      22      20
      21      21      22      20      21      21      22      20      21      21
      22      20      21      21      22      20      21      21      22      20
      21      21      22      20      21      21      22      20      21      21
      22      20      21      21      22      20      21      21      22      20
      21      21      22      20      21      21      22      20      21      21
      22      20      21      21      22      20      21      21      22      20
      21      21      22      20      21      21      22      20      21      21
      22      20      21      21      22      20      21      21      22      20
      21      21      22      20      21      21      22      20      21      21
      22      20      21      21      22      20      21      21      22      20
      21      21      22      20      21      21      22      20      21      21
      22      20      21      21      22      20      21      21      22      20
      21      21      22      20      21      21      22      20      21      21
      22      20      21      21      22      20      21      21      22      20
      21      21      22      20      21      21      22      20      21      21
      22      20      21      21      22      20      21      21      22      20
      21      21      22      20      21      21      22      20      21      21
      22      20      21      21      22      20      21      21      22      20
      21      21      22      20      21      21      22      20      21      21
      22      20      21      21      22      20      21      21      22      20
      21      21      22      20      21      21      22      20      21      21
      22      20      21      21      22      20      21      21      22      20
      21      21      22      20      21      21      22      20      21      21
      22      20      21      21      22      20      21      21      22      20
      21      21      22      20      21      21      22      20      21      21
      22      20      21      21      22      20      21      21      22      20
      21      21      22      20      21      21      22      20      21      21
      22      20      21      21      22      20      21      21      22      20
      21      21      22      20      21      21      22      20      21      21
      22      20      21      21      22      20      21      21      22      20
      21      21      22      20      21      21      22      20      21      21
      22      20      21      21      22      20      21      21      22      20
      21      21      22      20      21      21      22      20      21      21
      22      20      21      21      22      20      21      21      22      20
      21      21      22      20      21      21      22      20      21      21
      22      20      21      21      22      20      21      21      22      20
      21      21      22      20      21      21      22      20      21      21
      22      20      21      21      22      20      21      21      22      20
      21      21      22      20      21      21      22      20      21      21
      22      20      21      21      22      20      21      21      22      20
      21      21      22      20      21      21      22      20      21      21
      22      20      21      21      22      20      21      21      22      20
      21      21      22      20      21      21      22      20      21      21
      22      20      21      21      22      20      21      21      22      20
      21      21      22      20      21      21      22      20      21      21
      22      20      21      21      22      20      21      21      22      20
      21      21      22      20      21      21      22      20      21      21
      22      20      21      21      22      20      21      21      22      20
      21      21      22      20      21      21      22      20      21      21
      22      20      21      21      22      20      21      21      22      20
      21      21      22      20      21      21      22      20      21      21
      22      20      21      21      22      20      21      21      22      20
      21      21      22      20      21      21      22      20      21      21
      22      20      21      21      22      20      21      21      22      20
      21      21      22      20      21      21      22      20      21      21
      22      20      21      21      22      20      21      21      22      20
      21      21      22      20      21      21      22      20      21      21
      22      20      21      21      22      20      21      21      22      20
      21      21      22      20      21      21      22      20      21      21
      22      20      21      21      22      20      21      21      22      20
      21      21      22      20      21      21      22      20      21      21
      22      20      21      21      22      20      21      21      22      20
      21      21      22      20      21      21      22      20      21      21
      22      20      21      21      22      20      21      21      22      20
      21      21      22      20      21      21      22      20      21      21
      22      20      21      21      22      20      21      21      22      20
      21      21      22      20      21      21      22      20      21      21
      22      20      21      21      22      20      21      21      22      20
      21      21      22      20      21      21      22      20      21      21
      22      20      21      21      22      20      21      21      22      20
      21      21      22      20      21      21      22      20      21      21
      22      20      21      21      22      20      21      21      22      20
      21      21      22      20      21      21      22      20      21      21
      22      20      21      21      22      20      21      21      22      20
      21      21      22      20      21      21      22      20      21      21
      22      20      21      21      22      20      21      21      22      20
      21      21      22      20      21      21      22      20      21      21
      22      20      21      21      22      20      21      21      22      20
      21      21      22      20      21      21      22      20      21      21
      22      20      21      21      22      20      21      21      22      20
      21      21      22      20      21      21      22      20      21      21
      22      20      21      21      22      20      21      21      22      20
      21      21      22      20      21      21      22      20      21      21
      22      20      21      21      22      20      21      21      22      20
      21      21      22      20      21      21      22      20      21      21
      22      20      21      21      22      20      21      21      22      20
      21      21      22      20      21      21      22      20      21      21
      22      20      21      21      22      20      21      21      22      20
      21      21      22      20      21      21      22      20      21      21
      22      20      21      21      22      20      21      21      22      20
      21      21      22      20      21      21      22      20      21      21
      22      20      21      21      22      20      21      21      22      20
      21      21      22      20      21      21      22      20      21      21
      22      20      21      21      22      20      21      21      22      20
      21      21      22      20      21      21      22      20      21      21
      22      20      21      21      22      20      21      21      22      20
      21      21      22      20      21      21      22      20      21      21
      22      20      21      21      22      20      21      21      22      20
      21      21      22      20      21      21      22      20      21      21
      22      20      21      21      22      20      21      21      22      20
      21      21      22      20      21      21      22      20      21      21
      22      20      21      21      22      20      21      21      22      20
      21      21      22      20      21      21      22      20      21      21
      22      20      21      21      22      20      21      21      22      20
      21      21      22      20      21      21      22      20      21      21
      22      20      21      21      22      20      21      21      22      20
      21      21      22      20      21      21      22      20      21      21
      22      20      21      21      22      20      21      21      22      20
      21      21      22      20      21      21      22      20      21      21
      22      20      21      21      22      20      21      21      22      20
      21      21      22      20      21      21      22      20      21      21
      22      20      21      21      22      20      21      21      22      20
      21      21      22      20      21      21      22      20      21      21
      22      20      21      21      22      20      21      21      22      20
      21      21      22      20      21      21      22      20      21      21
      22      20      21      21      22      20      21      21      22      20
      21      21      22      20      21      21      22      20      21      21
      22      20      21      21      22      20      21      21      22      20
      21      21      22      20      21      21      22      20      21      21
      22      20      21      21      22      20      21      21      22      20
      21      21      22      20      21      21      22      20      21      21
      22      20      21      21      22      20      21      21      22      20
      21      21      22      20      21      21      22      20      21      21
      22      20      21      21      22      20      21      21      22      20
      21      21      22      20      21      21      22      20      21      21
      22      20      21      21      22      20      21      21      22      20
      21      21      22      20      21      21      22      20      21      21
      22      20      21      21      22      20      21      21      22      20
      21      21      22      20      21      21      22      20      21      21
      22      20      21      21      22      20      21      21      22      20
      21      21      22      20      21      21      22      20      21      21
      22      20      21      21      22      20      21      21      22      20
      21      21      22      20      21      21      22      20      21      21
      22      20      21      21      22      20      21      21      22      20
      21      21      22      20      21      21      22      20      21      21
      22      20      21      21      22      20      21      21      22      20
      21      21      22      20      21      21      22      20      21      21
      22      20      21      21      22      20      21      21      22      20
      21      21      22      20      21      21      22      20      21      21
      22      20      21      21      22      20      21      21      22      20
      21      21      22      20      21      21      22      20      21      21
      22      20      21      21      22      20      21      21      22      20
      21      21      22      20      21      21      22      20      21      21
      22      20      21      21      22      20      21      21      22      20
      21      21      22      20      21      21      22      20      21      21
      22      20      21      21      22      20      21      21      22      20
      21      21      22      20      21      21      22      20      21      21
      22      20      21      21      22      20      21      21      22      20
      21      21      22      20      21      21      22      20      21      21
      22      20      21      21      22      20      21      21      22      20
      21      21      22      20      21      21      22      20      21      21
      22      20      21      21      22      20      21      21      22      20
      21      21      22      20      21      21      22      20      21      21
      22      20      21      21      22      20      21      21      22      20
      21      21      22      20      21      21      22      20      21      21
      22      20      21      21      22      20      21      21      22      20
      21      21      22      20      21      21      22      20      21      21
      22      20      21      21      22      20      21      21      22      20
      21      21      22      20      21      21      22      20      21      21
      22      20      21      21      22      20      21      21      22      20
      21      21      22      20      21      21      22      20      21      21
      22      20      21      21      22      20      21      21      22      20
      21      21      22      20      21      21      22      20      21      21
      22      20      21      21      22      20      21      21      22      20
      21      21      22      20      21      21      22      20      21      21
      22      20      21      21      22      20      21      21      22      20
      21      21      22      20      21      21      22      20      21      21
      22      20      21      21      22      20      21      21      22      20
      21      21      22      20      21      21      22      20      21      21
      22      20      21      21      22      20      21      21      22      20
      21      21      22      20      21      21      22      20      21      21
      22      20      21      21      22      20      21      21      22      20
      21      21      22      20      21      21      22      20      21      21
      22      20      21      21      22      20      21      21      22      20
      21      21      22      20      21      21      22      20      21      21
      22      20      21      21      22      20      21      21      22      20
      21      21      22      20      21      21      22      20      21      21
      22      20      21      21      22      20      21      21      22      20
      21      21      22      20      21      21      22      20      21      21
      22      20      21      21      22      20      21      21      22      20
      21      21      22      20      21      21      22      20      21      21
      22      20      21      21      22      20      21      21      22      20
      21      21      22      20      21      21      22      20      21      21
      22      20      21      21      22      20      21      21      22      20
      21      21      22      20      21      21      22      20      21      21
      22      20      21      21      22      20      21      21      22      20
      21      21      22      20      21      21      22      20      21      21
      22      20      21      21      22      20      21      21      22      20
      21      21      22      20      21      21      22      20      21      21
      22      20      21      21      22      20      21      21      22      20
      21      21      22      20      21      21      22      20      21      21
      22      20      21      21      22      20      21      21      22      20
      21      21      22      20      21      21      22      20      21      21
      22      20      21      21      22      20      21      21      22      20
      21      21      22      20      21      21      22      20      21      21
      22      20      21      21      22      20      21      21      22      20
      21      21      22      20      21      21      22      20      21      21
      22      20      21      21      22      20      21      21      22      20
      21      21      22      20      21      21      22      20      21      21
      22      20      21      21      22      20      21      21      22      20
      21      21      22      20      21      21      22      20      21      21
      22      20      21      21      22      20      21      21      22      20
      21      21      22      20      21      21      22      20      21      21
      22      20      21      21      22      20      21      21      22      20
      21      21      22      20      21      21      22      20      21      21
      22      20      21      21      22      20      21      21      22      20
      21      21      22      20      21      21      22      20      21      21
      22      20      21      21      22      20      21      21      22      20
      21      21      22      20      21      21      22      20      21      21
      22      20      21      21      22      20      21      21      22      20
      21      21      22      20      21      21      22      20      21      21
      22      20      21      21      22      20      21      21      22      20
      21      21      22      20      21      21      22      20      21      21
      22      20      21      21      22      20      21      21      22      20
      21      21      22      20      21      21      22      20      21      21
      22      20      21      21      22      20      21      21      22      20
      21      21      22      20      21      21      22      20      21      21
      22      20      21      21      22      20      21      21      22      20
      21      21      22      20      21      21      22      20      21      21
      22      20      21      21      22      20      21      21      22      20
      21      21      22      20      21      21      22      20      21      21
      22      20      21      21      22      20      21      21      22      20
      21      21      22      20      21      21      22      20      21      21
      22      20      21      21      22      20      21      21      22      20
      21      21      22      20      21      21      22      20      21      21
      22      20      21      21      22      20      21      21      22      20
      21      21      22      20      21      21      22      20      21      21
      22      20      21      21      22      20      21      21      22      20
      21      21      22      20      21      21      22      20      21      21
      22      20      21      21      22      20      21      21      22      20
      21      21      22      20      21      21      22      20      21      21
      22      20      21      21      22      20      21      21      22      20
      21      21      22      20      21      21      22      20      21      21
      22      20      21      21      22      20      21      21      22      20
      21      21      22      20      21      21      22      20      21      21
      22      20      21      21      22      20      21      21      22      20
      21      21      22      20      21      21      22      20      21      21
      22      20      21      21      22      20      21      21      22      20
      21      21      22      20      21      21      22      20      21      21
      22      20      21      21      22      20      21      21      22      20
      21      21      22      20      21      21      22      20      21      21
      22      20      21      21      22      20      21      21      22      20
      21      21      22      20      21      21      22      20      21      21
      22      20      21      21      22      20      21      21      22      20
      21      21      22      20      21      21      22      20      21      21
      22      20      21      21      22      20      21      21      22      20
      21      21      22      20      21      21      22      20      21      21
      22      20      21      21      22      20      21      21      22      20
      21      21      22      20      21      21      22      20      21      21
      22      20      21      21      22      20      21      21      22      20
      21      21      22      20      21      21      22      20      21      21
      22      20      21      21      22      20      21      21      22      20
      21      21      22      20      21      21      22      20      21      21
      22      20      21      21      22      20      21      21      22      20
      21      21      22      20      21      21      22      20      21      21
      22      20      21      21      22      20      21      21      22      20
      21      21      22      20      21      21      22      20      21      21
      22      20      21      21      22      20      21      21      22      20
      21      21      22      20      21      21      22      20      21      21
      22      20      21      21      22      20      21      21      22      20
      21      21      22      20      21      21      22      20      21      21
      22      20      21      21      22      20      21      21      22      20
      21      21      22      20      21      21      22      20      21      21
      22      20      21      21      22      20      21      21      22      20
      21      21      22      20      21      21      22      20      21      21
      22      20      21      21      22      20      21      21      22      20
      21      21      22      20      21      21      22      20      21      21
      22      20      21      21      22      20      21      21      22      20
      21      21      22      20      21      21      22      20      21      21
      22      20      21      21      22      20      21      21      22      20
      21      21      22      20      21      21      22      20      21      21
      22      20      21      21      22      20      21      21      22      20
      21      21      22      20      21      21      22      20      21      21
      22      20      21      21      22      20      21      21      22      20
      21      21      22      20      21      21      22      20      21      21
      22      20      21      21      22      20      21      21      22      20
      21      21      22      20      21      21      22      20      21      21
      22      20      21      21      22      20      21      21      22      20
      21      21      22      20      21      21      22      20      21      21
      22      20      21      21      22      20      21      21      22      20
      21      21      22      20      21      21      22      20      21      21
      22      20      21      21      22      20      21      21      22      20
      21      21      22      20      21      21      22      20      21      21
      22      20      21      21      22      20      21      21      22      20
      21      21      22      20      21      21      22      20      21      21
      22      20      21      21      22      20      21      21      22      20
      21      21      22      20      21      21      22      20      21      21
      22      20      21      21      22      20      21      21      22      20
      21      21      22      20      21      21      22      20      21      21
      22      20      21      21      22      20      21      21      22      20
      21      21      22      20      21      21      22      20      21      21
      22      20      21      21      22      20      21      21      22      20
      21      21      22      20      21      21      22      20      21      21
      22      20      21      21      22      20      21      21      22      20
      21      21      22      20      21      21      22      20      21      21
      22      20      21      21      22      20      21      21      22      20
      21      21      22      20      21      21      22      20      21      21
      22      20      21      21      22      20      21      21      22      20
      21      21      22      20      21      21      22      20      21      21
      22      20      21      21      22      20      21      21      22      20
      21      21      22      20      21      21      22      20      21      21
      22      20      21      21      22      20      21      21      22      20
      21      21      22      20      21      21      22      20      21      21
      22      20      21      21      22      20      21      21      22      20
      21      21      22      20      21      21      22      20      21      21
      22      20      21      21      22      20      21      21      22      20
      21      21      22      20      21      21      22      20      21      21
      22      20      21      21      22      20      21      21      22      20
      21      21      22      20      21      21      22      20      21      21
      22      20      21      21      22      20      21      21      22      20
      21      21      22      20      21      21      22      20      21      21
      22      20      21      21      22      20      21      21      22      20
      21      21      22      20      21      21      22      20      21      21
      22      20      21      21      22      20      21      21      22      20
      21      21      22      20      21      21      22      20      21      21
      22      20      21      21      22      20      21      21      22      20
      21      21      22      20      21      21      22      20      21      21
      22      20      21      21      22      20      21      21      22      20
      21      21      22      20      21      21      22      20      21      21
      22      20      21      21      22      20      21      21      22      20
      21      21      22      20      21      21      22      20      21      21
      22      20      21      21      22      20      21      21      22      20
      21      21      22      20      21      21      22      20      21      21
      22      20      21      21      22      20      21      21      22      20
      21      21      22      20      21      21      22      20      21      21
      22      20      21      21      22      20      21      21      22      20
      21      21      22      20      21      21      22      20      21      21
      22      20      21      21      22      20      21      21      22      20
      21      21      22      20      21      21      22      20      21      21
      22      20      21      21      22      20      21      21      22      20
      21      21      22      20      21      21      22      20      21      21
      22      20      21      21      22      20      21      21      22      20
      21      21      22      20      21      21      22      20      21      21
      22      20      21      21      22      20      21      21      22      20
      21      21      22      20      21      21      22      20      21      21
      22      20      21      21      22      20      21      21      22      20
      21      21      22      20      21      21      22      20      21      21
      22      20      21      21      22      20      21      21      22      20
      21      21      22      20      21      21      22      20      21      21
      22      20      21      21      22      20      21      21      22      20
      21      21      22      20      21      21      22      20      21      21
      22      20      21      21      22      20      21      21      22      20
      21      21      22      20      21      21      22      20      21      21
      22      20      21      21      22      20      21      21      22      20
      21      21      22      20      21      21      22      20      21      21
      22      20      21      21      22      20      21      21      22      20
      21      21      22      20      21      21      22      20      21      21
      22      20      21      21      22      20      21      21      22      20
      21      21      22      20      21      21      22      20      21      21
      22      20      21      21      22      20      21      21      22      20
      21      21      22      20      21      21      22      20      21      21
      22      20      21      21      22      20      21      21      22      20
      21      21      22      20      21      21      22      20      21      21
      22      20      21      21      22      20      21      21      22      20
      21      21      22      20      21      21      22      20      21      21
      22      20      21      21      22      20      21      21      22      20
      21      21      22      20      21      21      22      20      21      21
      22      20      21      21      22      20      21      21      22      20
      21      21      22      20      21      21      22      20      21      21
      22      20      21      21      22      20      21      21      22      20
      21      21      22      20      21      21      22      20      21      21
      22      20      21      21      22      20      21      21      22      20
      21      21      22      20      21      21      22      20      21      21
      22      20      21      21      22      20      21      21      22      20
      21      21      22      20      21      21      22      20      21      21
      22      20      21      21      22      20      21      21      22      20
      21      21      22      20      21      21      22      20      21      21
      22      20      21      21      22      20      21      21      22      20
      21      21      22      20      21      21      22      20      21      21
      22      20      21      21      22      20      21      21      22      20
      21      21      22      20      21      21      22      20      21      21
      22      20      21      21      22      20      21      21      22      20
      21      21      22      20      21      21      22      20      21      21
      22      20      21      21      22      20      21      21      22      20
      21      21      22      20      21      21      22      20      21      21
      22      20      21      21      22      20      21      21      22      20
      21      21      22      20      21      21      22      20      21      21
      22      20      21      21      22      20      21      21      22      20
      21      21      22      20      21      21      22      20      21      21
      22      20      21      21      22      20      21      21      22      20
      21      21      22      20      21      21      22      20      21      21
      22      20      21      21      22      20      21      21      22      20
      21      21      22      20      21      21      22      20      21      21
      22      20      21      21      22      20      21      21      22      20
      21      21      22      20      21      21      22      20      21      21
      22      20      21      21      22      20      21      21      22      20
      21      21      22      20      21      21      22      20      21      21
      22      20      21      21      22      20      21      21      22      20
      21      21      22      20      21      21      22      20      21      21
      22      20      21      21      22      20      21      21      22      20
      21      21      22      20      21      21      22      20      21      21
      22      20      21      21      22      20      21      21      22      20
      21      21      22      20      21      21      22      20      21      21
      22      20      21      21      22      20      21      21      22      20
      21      21      22      20      21      21      22      20      21      21
      22      20      21      21      22      20      21      21      22      20
      21      21      22      20      21      21      22      20      21      21
      22      20      21      21      22      20      21      21      22      20
      21      21      22      20      21      21      22      20      21      21
      22      20      21      21      22      20      21      21      22      20
      21      21      22      20      21      21      22      20      21      21
      22      20      21      21      22      20      21      21      22      20
      21      21      22      20      21      21      22      20      21      21
      22      20      21      21      22      20      21      21      22      20
      21      21      22      20      21      21      22      20      21      21
      22      20      21      21      22      20      21      21      22      20
      21      21      22      20      21      21      22      20      21      21
      22      20      21      21      22      20      21      21      22      20
      21      21      22      20      21      21      22      20      21      21
      22      20      21      21      22      20      21      21      22      20
      21      21      22      20      21      21      22      20      21      21
      22      20      21      21      22      20      21      21      22      20
      21      21      22      20      21      21      22      20      21      21
      22      20      21      21      22      20      21      21      22      20
      21      21      22      20      21      21      22      20      21      21
      22      20      21      21      22      20      21      21      22      20
      21      21      22      20      21      21      22      20      21      21
      22      20      21      21      22      20      21      21      22      20
      21      21      22      20      21      21      22      20      21      21
      22      20      21      21      22      20      21      21      22      20
      21      21      22      20      21      21      22      20      21      21
      22      20      21      21      22      20      21      21      22      20
      21      21      22      20      21      21      22      20      21      21
      22      20      21      21      22      20      21      21      22      20
      21      21      22      20      21      21      22      20      21      21
      22      20      21      21      22      20      21      21      22      20
      21      21      22      20      21      21      22      20      21      21
      22      20      21      21      22      20      21      21      22      20
      21      21      22      20      21      21      22      20      21      21
      22      20      21      21      22      20      21      21      22      20
      21      21      22      20      21      21      22      20      21      21
      22      20      21      21      22      20      21      21      22      20
      21      21      22      20      21      21      22      20      21      21
      22      20      21      21      22      20      21      21      22      20
      21      21      22      20      21      21      22      20      21      21
      22      20      21      21      22      20      21      21      22      20
      21      21      22      20      21      21      22      20      21      21
      22      20      21      21      22      20      21      21      22      20
      21      21      22      20      21      21      22      20      21      21
      22      20      21      21      22      20      21      21      22      20
      21      21      22      20      21      21      22      20      21      21
      22      20      21      21      22      20      21      21      22      20
      21      21      22      20      21      21      22      20      21      21
      22      20      21      21      22      20      21      21      22      20
      21      21      22      20      21      21      22      20      21      21
      22      20      21      21      22      20      21      21      22      20
      21      21      22      20      21      21      22      20      21      21
      22      20      21      21      22      20      21      21      22      20
      21      21      22      20      21      21      22      20      21      21
      22      20      21      21      22      20      21      21      22      20
      21      21      22      20      21      21      22      20      21      21
      22      20      21      21      22      20      21      21      22      20
      21      21      22      20      21      21      22      20      21      21
      22      20      21      21      22      20      21      21      22      20
      21      21      22      20      21      21      22      20      21      21
      22      20      21      21      22      20      21      21      22      20
      21      21      22      20      21      21      22      20      21      21
      22      20      21      21      22      20      21      21      22      20
      21      21      22      20      21      21      22      20      21      21
      22      20      21      21      22      20      21      21      22      20
      21      21      22      20      21      21      22      20      21      21
      22      20      21      21      22      20      21      21      22      20
      21      21      22      20      21      21      22      20      21      21
      22      20      21      21      22      20      21      21      22      20
      21      21      22      20      21      21      22      20      21      21
      22      20      21      21      22      20      21      21      22      20
      21      21      22      20      21      21      22      20      21      21
      22      20      21      21      22      20      21      21      22      20
      21      21      22      20      21      21      22      20      21      21
      22      20      21      21      22      20      21      21      22      20
      21      21      22      20      21      21      22      20      21      21
      22      20      21      21      22      20      21      21      22      20
      21      21      22      20      21      21      22      20      21      21
      22      20      21      21      22      20      21      21      22      20
      21      21      22      20      21      21      22      20      21      21
      22      20      21      21      22      20      21      21      22      20
      21      21      22      20      21      21      22      20      21      21
      22      20      21      21      22      20      21      21      22      20
      21      21      22      20      21      21      22      20      21      21
      22      20      21      21      22      20      21      21      22      20
      21      21      22      20      21      21      22      20      21      21
      22      20      21      21      22      20      21      21      22      20
      21      21      22      20      21      21      22      20      21      21
      22      20      21      21      22      20      21      21      22      20
      21      21      22      20      21      21      22      20      21      21
      22      20      21      21      22      20      21      21      22      20
      21      21      22      20      21      21      22      20      21      21
      22      20      21      21      22      20      21      21      22      20
      21      21      22      20      21      21      22      20      21      21
      22      20      21      21      22      20      21      21      22      20
      21      21      22      20      21      21      22      20      21      21
      22      20      21      21      22      20      21      21      22      20
      21      21      22      20      21      21      22      20      21      21
      22      20      21      21      22      20      21      21      22      20
      21      21      22      20      21      21      22      20      21      21
      22      20      21      21      22      20      21      21      22      20
      21      21      22      20      21      21      22      20      21      21
      22      20      21      21      22      20      21      21      22      20
      21      21      22      20      21      21      22      20      21      21
      22      20      21      21      22      20      21      21      22      20
      21      21      22      20      21      21      22      20      21      21
      22      20      21      21      22      20      21      21      22      20
      21      21      22      20      21      21      22      20      21      21
      22      20      21      21      22      20      21      21      22      20
      21      21      22      20      21      21      22      20      21      21
      22      20      21      21      22      20      21      21      22      20
      21      21      22      20      21      21      22      20      21      21
      22      20      21      21      22      20      21      21      22      20
      21      21      22      20      21      21      22      20      21      21
      22      20      21      21      22      20      21      21      22      20
      21      21      22      20      21      21      22      20      21      21
      22      20      21      21      22      20      21      21      22      20
      21      21      22      20      21      21      22      20      21      21
      22      20      21      21      22      20      21      21      22      20
      21      21      22      20      21      21      22      20      21      21
      22      20      21      21      22      20      21      21      22      20
      21      21      22      20      21      21      22      20      21      21
      22      20      21      21      22      20      21      21      22      20
      21      21      22      20      21      21      22      20      21      21
      22      20      21      21      22      20      21      21      22      20
      21      21      22      20      21      21      22      20      21      21
      22      20      21      21      22      20      21      21      22      20
      21      21      22      20      21      21      22      20      21      21
      22      20      21      21      22      20      21      21      22      20
      21      21      22      20      21      21      22      20      21      21
      22      20      21      21      22      20      21      21      22      20
      21      21      22      20      21      21      22      20      21      21
      22      20      21      21      22      20      21      21      22      20
      21      21      22      20      21      21      22      20      21      21
      22      20      21      21      22      20      21      21      22      20
      21      21      22      20      21      21      22      20      21      21
      22      20      21      21      22      20      21      21      22      20
      21      21      22      20      21      21      22      20      21      21
      22      20      21      21      22      20      21      21      22      20
      21      21      22      20      21      21      22      20      21      21
      22      20      21      21      22      20      21      21      22      20
      21      21      22      20      21      21      22      20      21      21
      22      20      21      21      22      20      21      21      22      20
      21      21      22      20      21      21      22      20      21      21
      22      20      21      21      22      20      21      21      22      20
      21      21      22      20      21      21      22      20      21      21
      22      20      21      21      22      20      21      21      22      20
      21      21      22      20      21      21      22      20      21      21
      22      20      21      21      22      20      21      21      22      20
      21      21      22      20      21      21      22      20      21      21
      22      20      21      21      22      20      21      21      22      20
      21      21      22      20      21      21      22      20      21      21
      22      20      21      21      22      20      21      21      22      20
      21      21      22      20      21      21      22      20      21      21
      22      20      21      21      22      20      21      21      22      20
      21      21      22      20      21      21      22      20      21      21
      22      20      21      21      22      20      21      21      22      20
      21      21      22      20      21      21      22      20      21      21
      22      20      21      21      22      20      21      21      22      20
      21      21      22      20      21      21      22      20      21      21
      22      20      21      21      22      20      21      21      22      20
      21      21      22      20      21      21      22      20      21      21
      22      20      21      21      22      20      21      21      22      20
      21      21      22      20      21      21      22      20      21      21
      22      20      21      21      22      20      21      21      22      20
      21      21      22      20      21      21      22      20      21      21
      22      20      21      21      22      20      21      21      22      20
      21      21      22      20      21      21      22      20      21      21
      22      20      21      21      22      20      21      21      22      20
      21      21      22      20      21      21      22      20      21      21
      22      20      21      21      22      20      21      21      22      20
      21      21      22      20      21      21      22      20      21      21
      22      20      21      21      22      20      21      21      22      20
      21      21      22      20      21      21      22      20      21      21
      22      20      21      21      22      20      21      21      22      20
      21      21      22      20      21      21      22      20      21      21
      22      20      21      21      22      20      21      21      22      20
      21      21      22      20      21      21      22      20      21      21
      22      20      21      21      22      20      21      21      22      20
      21      21      22      20      21      21      22      20      21      21
      22      20      21      21      22      20      21      21      22      20
      21      21      22      20      21      21      22      20      21      21
      22      20      21      21      22      20      21      21      22      20
      21      21      22      20      21      21      22      20      21      21
      22      20      21      21      22      20      21      21      22      20
      21      21      22      20      21      21      22      20      21      21
      22      20      21      21      22      20      21      21      22      20
      21      21      22      20      21      21      22      20      21      21
      22      20      21      21      22      20      21      21      22      20
      21      21      22      20      21      21      22      20      21      21
      22      20      21      21      22      20      21      21      22      20
      21      21      22      20      21      21      22      20      21      21
      22      20      21      21      22      20      21      21      22      20
      21      21      22      20      21      21      22      20      21      21
      22      20      21      21      22      20      21      21      22      20
      21      21      22      20      21      21      22      20      21      21
      22      20      21      21      22      20      21      21      22      20
      21      21      22      20      21      21      22      20      21      21
      22      20      21      21      22      20      21      21      22      20
      21      21      22      20      21      21      22      20      21      21
      22      20      21      21      22      20      21      21      22      20
      21      21      22      20      21      21      22      20      21      21
      22      20      21      21      22      20      21      21      22      20
      21      21      22      20      21      21      22      20      21      21
      22      20      21      21      22      20      21      21      22      20
      21      21      22      20      21      21      22      20      21      21
      22      20      21      21      22      20      21      21      22      20
      21      21      22      20      21      21      22      20      21      21
      22      20      21      21      22      20      21      21      22      20
      21      21      22      20      21      21      22      20      21      21
      22      20      21      21      22      20      21      21      22      20
      21      21      22      20      21      21      22      20      21      21
      22      20      21      21      22      20      21      21      22      20
      21      21      22      20      21      21      22      20      21      21
      22      20      21      21      22      20      21      21      22      20
      21      21      22      20      21      21      22      20      21      21
      22      20      21      21      22      20      21      21      22      20
      21      21      22      20      21      21      22      20      21      21
      22      20      21      21      22      20      21      21      22      20
      21      21      22      20      21      21      22      20      21      21
      22      20      21      21      22      20      21      21      22      20
      21      21      22      20      21      21      22      20      21      21
      22      20      21      21      22      20      21      21      22      20
      21      21      22      20      21      21      22      20      21      21
      22      20      21      21      22      20      21      21      22      20
      21      21      22      20      21      21      22      20      21      21
      22      20      21      21      22      20      21      21      22      20
      21      21      22      20      21      21      22      20      21      21
      22      20      21      21      22      20      21      21      22      20
      21      21      22      20      21      21      22      20      21      21
      22      20      21      21      22      20      21      21      22      20
      21      21      22      20      21      21      22      20      21      21
      22      20      21      21      22      20      21      21      22      20
      21      21      22      20      21      21      22      20      21      21
      22      20      21      21      22      20      21      21      22      20
      21      21      22      20      21      21      22      20      21      21
      22      20      21      21      22      20      21      21      22      20
      21      21      22      20      21      21      22      20      21      21
      22      20      21      21      22      20      21      21      22      20
      21      21      22      20      21      21      22      20      21      21
      22      20      21      21      22      20      21      21      22      20
      21      21      22      20      21      21      22      20      21      21
      22      20      21      21      22      20      21      21      22      20
      21      21      22      20      21      21      22      20      21      21
      22      20      21      21      22      20      21      21      22      20
      21      21      22      20      21      21      22      20      21      21
      22      20      21      21      22      20      21      21      22      20
      21      21      22      20      21      21      22      20      21      21
      22      20      21      21      22      20      21      21      22      20
      21      21      22      20      21      21      22      20      21      21
      22      20      21      21      22      20      21      21      22      20
      21      21      22      20      21      21      22      20      21      21
      22      20      21      21      22      20      21      21      22      20
      21      21      22      20      21      21      22      20      21      21
      22      20      21      21      22      20      21      21      22      20
      21      21      22      20      21      21      22      20      21      21
      22      20      21      21      22      20      21      21      22      20
      21      21      22      20      21      21      22      20      21      21
      22      20      21      21      22      20      21      21      22      20
      21      21      22      20      21      21      22      20      21      21
      22      20      21      21      22      20      21      21      22      20
      21      21      22      20      21      21      22      20      21      21
      22      20      21      21      22      20      21      21      22      20
      21      21      22      20      21      21      22      20      21      21
      22      20      21      21      22      20      21      21      22      20
      21      21      22      20      21      21      22      20      21      21
      22      20      21      21      22      20      21      21      22      20
      21      21      22      20      21      21      22      20      21      21
      22      20      21      21      22      20      21      21      22      20
      21      21      22      20      21      21      22      20      21      21
      22      20      21      21      22      20      21      21      22      20
      21      21      22      20      21      21      22      20      21      21
      22      20      21      21      22      20      21      21      22      20
      21      21      22      20      21      21      22      20      21      21
      22      20      21      21      22      20      21      21      22      20
      21      21      22      20      21      21      22      20      21      21
      22      20      21      21      22      20      21      21      22      20
      21      21      22      20      21      21      22      20      21      21
      22      20      21      21      22      20      21      21      22      20
      21      21      22      20      21      21      22      20      21      21
      22      20      21      21      22      20      21      21      22      20
      21      21      22      20      21      21      22      20      21      21
      22      20      21      21      22      20      21      21      22      20
      21      21      22      20      21      21      22      20      21      21
      22      20      21      21      22      20      21      21      22      20
      21      21      22      20      21      21      22      20      21      21
      22      20      21      21      22      20      21      21      22      20
      21      21      22      20      21      21      22      20      21      21
      22      20      21      21      22      20      21      21      22      20
      21      21      22      20      21      21      22      20      21      21
      22      20      21      21      22      20      21      21      22      20
      21      21      22      20      21      21      22      20      21      21
      22      20      21      21      22      20      21      21      22      20
      21      21      22      20      21      21      22      20      21      21
      22      20      21      21      22      20      21      21      22      20
      21      21      22      20      21      21      22      20      21      21
      22      20      21      21      22      20      21      21      22      20
      21      21      22      20      21      21      22      20      21      21
      22      20      21      21      22      20      21      21      22      20
      21      21      22      20      21      21      22      20      21      21
      22      20      21      21      22      20      21      21      22      20
      21      21      22      20      21      21      22      20      21      21
      22      20      21      21      22      20      21      21      22      20
      21      21      22      20      21      21      22      20      21      21
      22      20      21      21      22      20      21      21      22      20
      21      21      22      20      21      21      22      20      21      21
      22      20      21      21      22      20      21      21      22      20
      21      21      22      20      21      21      22      20      21      21
      22      20      21      21      22      20      21      21      22      20
      21      21      22      20      21      21      22      20      21      21
      22      20      21      21      22      20      21      21      22      20
      21      21      22      20      21      21      22      20      21      21
      22      20      21      21      22      20      21      21      22      20
      21      21      22      20      21      21      22      20      21      21
      22      20      21      21      22      20      21      21      22      20
      21      21      22      20      21      21      22      20      21      21
      22      20      21      21      22      20      21      21      22      20
      21      21      22      20      21      21      22      20      21      21
      22      20      21      21      22      20      21      21      22      20
      21      21      22      20      21      21      22      20      21      21
      22      20      21      21      22      20      21      21      22      20
      21      21      22      20      21      21      22      20      21      21
      22      20      21      21      22      20      21      21      22      20
      21      21      22      20      21      21      22      20      21      21
      22      20      21      21      22      20      21      21      22      20
      21      21      22      20      21      21      22      20      21      21
      22      20      21      21      22      20      21      21      22      20
      21      21      22      20      21      21      22      20      21      21
      22      20      21      21      22      20      21      21      22      20
      21      21      22      20      21      21      22      20      21      21
      22      20      21      21      22      20      21      21      22      20
      21      21      22      20      21      21      22      20      21      21
      22      20      21      21      22      20      21      21      22      20
      21      21      22      20      21      21      22      20      21      21
      22      20      21      21      22      20      21      21      22      20
      21      21      22      20      21      21      22      20      21      21
      22      20      21      21      22      20      21      21      22      20
      21      21      22      20      21      21      22      20      21      21
      22      20      21      21      22      20      21      21      22      20
      21      21      22      20      21      21      22      20      21      21
      22      20      21      21      22      20      21      21      22      20
      21      21      22      20      21      21      22      20      21      21
      22      20      21      21      22      20      21      21      22      20
      21      21      22      20      21      21      22      20      21      21
      22      20      21      21      22      20      21      21      22      20
      21      21      22      20      21      21      22      20      21      21
      22      20      21      21      22      20      21      21      22      20
      21      21      22      20      21      21      22      20      21      21
      22      20      21      21      22      20      21      21      22      20
      21      21      22      20      21      21      22      20      21      21
      22      20      21      21      22      20      21      21      22      20
      21      21      22      20      21      21      22      20      21      21
      22      20      21      21      22      20      21      21      22      20
      21      21      22      20      21      21      22      20      21      21
      22      20      21      21      22      20      21      21      22      20
      21      21      22      20      21      21      22      20      21      21
      22      20      21      21      22      20      21      21      22      20
      21      21      22      20      21      21      22      20      21      21
      22      20      21      21      22      20      21      21      22      20
      21      21      22      20      21      21      22      20      21      21
      22      20      21      21      22      20      21      21      22      20
      21      21      22      20      21      21      22      20      21      21
      22      20      21      21      22      20      21      21      22      20
      21      21      22      20      21      21      22      20      21      21
      22      20      21      21      22      20      21      21      22      20
      21      21      22      20      21      21      22      20      21      21
      22      20      21      21      22      20      21      21      22      20
      21      21      22      20      21      21      22      20      21      21
      22      20      21      21      22      20      21      21      22      20
      21      21      22      20      21      21      22      20      21      21
      22      20      21      21      22      20      21      21      22      20
      21      21      22      20      21      21      22      20      21      21
      22      20      21      21      22      20      21      21      22      20
      21      21      22      20      21      21      22      20      21      21
      22      20      21      21      22      20      21      21      22      20
      21      21      22      20      21      21      22      20      21      21
      22      20      21      21      22      20      21      21      22      20
      21      21      22      20      21      21      22      20      21      21
      22      20      21      21      22      20      21      21      22      20
      21      21      22      20      21      21      22      20      21      21
      22      20      21      21      22      20      21      21      22      20
      21      21      22      20      21      21      22      20      21      21
      22      20      21      21      22      20      21      21      22      20
      21      21      22      20      21      21      22      20      21      21
      22      20      21      21      22      20      21      21      22      20
      21      21      22      20      21      21      22      20      21      21
      22      20      21      21      22      20      21      21      22      20
      21      21      22      20      21      21      22      20      21      21
      22      20      21      21      22      20      21      21      22      20
      21      21      22      20      21      21      22      20      21      21
      22      20      21      21      22      20      21      21      22      20
      21      21      22      20      21      21      22      20      21      21
      22      20      21      21      22      20      21      21      22      20
      21      21      22      20      21      21      22      20      21      21
      22      20      21      21      22      20      21      21      22      20
      21      21      22      20      21      21      22      20      21      21
      22      20      21      21      22      20      21      21      22      20
      21      21      22      20      21      21      22      20      21      21
      22      20      21      21      22      20      21      21      22      20
      21      21      22      20      21      21      22      20      21      21
      22      20      21      21      22      20      21      21      22      20
      21      21      22      20      21      21      22      20      21      21
      22      20      21      21      22      20      21      21      22      20
      21      21      22      20      21      21      22      20      21      21
      22      20      21      21      22      20      21      21      22      20
      21      21      22      20      21      21      22      20      21      21
      22      20      21      21      22      20      21      21      22      20
      21      21      22      20      21      21      22      20      21      21
      22      20      21      21      22      20      21      21      22      20
      21      21      22      20      21      21      22      20      21      21
      22      20      21      21      22      20      21      21      22      20
      21      21      22      20      21      21      22      20      21      21
      22      20      21      21      22      20      21      21      22      20
      21      21      22      20      21      21      22      20      21      21
      22      20      21      21      22      20      21      21      22      20
      21      21      22      20      21      21      22      20      21      21
      22      20      21      21      22      20      21      21      22      20
      21      21      22      20      21      21      22      20      21      21
      22      20      21      21      22      20      21      21      22      20
      21      21      22      20      21      21      22      20      21      21
      22      20      21      21      22      20      21      21      22      20
      21      21      22      20      21      21      22      20      21      21
      22      20      21      21      22      20      21      21      22      20
      21      21      22      20      21      21      22      20      21      21
      22      20      21      21      22      20      21      21      22      20
      21      21      22      20      21      21      22      20      21      21
      22      20      21      21      22      20      21      21      22      20
      21      21      22      20      21      21      22      20      21      21
      22      20      21      21      22      20      21      21      22      20
      21      21      22      20      21      21      22      20      21      21
      22      20      21      21      22      20      21      21      22      20
      21      21      22      20      21      21      22      20      21      21
      22      20      21      21      22      20      21      21      22      20
      21      21      22      20      21      21      22      20      21      21
      22      20      21      21      22      20      21      21      22      20
      21      21      22      20      21      21      22      20      21      21
      22      20      21      21      22      20      21      21      22      20
      21      21      22      20      21      21      22      20      21      21
      22      20      21      21      22      20      21      21      22      20
      21      21      22      20      21      21      22      20      21      21
      22      20      21      21      22      20      21      21      22      20
      21      21      22      20      21      21      22      20      21      21
      22      20      21      21      22      20      21      21      22      20
      21      21      22      20      21      21      22      20      21      21
      22      20      21      21      22      20      21      21      22      20
      21      21      22      20      21      21      22      20      21      21
      22      20      21      21      22      20      21      21      22      20
      21      21      22      20      21      21      22      20      21      21
      22      20      21      21      22      20      21      21      22      20
      21      21      22      20      21      21      22      20      21      21
      22      20      21      21      22      20      21      21      22      20
      21      21      22      20      21      21      22      20      21      21
      22      20      21      21      22      20      21      21      22      20
      21      21      22      20      21      21      22      20      21      21
      22      20      21      21      22      20      21      21      22      20
      21      21      22      20      21      21      22      20      21      21
      22      20      21      21      22      20      21      21      22      20
      21      21      22      20      21      21      22      20      21      21
      22      20      21      21      22      20      21      21      22      20
      21      21      22      20      21      21      22      20      21      21
      22      20      21      21      22      20      21      21      22      20
      21      21      22      20      21      21      22      20      21      21
      22      20      21      21      22      20      21      21      22      20
      21      21      22      20      21      21      22      20      21      21
      22      20      21      21      22      20      21      21      22      20
      21      21      22      20      21      21      22      20      21      21
      22      20      21      21      22      20      21      21      22      20
      21      21      22      20      21      21      22      20      21      21
      22      20      21      21      22      20      21      21      22      20
      21      21      22      20      21      21      22      20      21      21
      22      20      21      21      22      20      21      21      22      20
      21      21      22      20      21      21      22      20      21      21
      22      20      21      21      22      20      21      21      22      20
      21      21      22      20      21      21      22      20      21      21
      22      20      21      21      22      20      21      21      22      20
      21      21      22      20      21      21      22      20      21      21
      22      20      21      21      22      20      21      21      22      20
      21      21      22      20      21      21      22      20      21      21
      22      20      21      21      22      20      21      21      22      20
      21      21      22      20      21      21      22      20      21      21
      22      20      21      21      22      20      21      21      22      20
      21      21      22      20      21      21      22      20      21      21
      22      20      21      21      22      20      21      21      22      20
      21      21      22      20      21      21      22      20      21      21
      22      20      21      21      22      20      21      21      22      20
      21      21      22      20      21      21      22      20      21      21
      22      20      21      21      22      20      21      21      22      20
      21      21      22      20      21      21      22      20      21      21
      22      20      21      21      22      20      21      21      22      20
      21      21      22      20      21      21      22      20      21      21
      22      20      21      21      22      20      21      21      22      20
      21      21      22      20      21      21      22      20      21      21
      22      20      21      21      22      20      21      21      22      20
      21      21      22      20      21      21      22      20      21      21
      22      20      21      21      22      20      21      21      22      20
      21      21      22      20      21      21      22      20      21      21
      22      20      21      21      22      20      21      21      22      20
      21      21      22      20      21      21      22      20      21      21
      22      20      21      21      22      20      21      21      22      20
      21      21      22      20      21      21      22      20      21      21
      22      20      21      21      22      20      21      21      22      20
      21      21      22      20      21      21      22      20      21      21
      22      20      21      21      22      20      21      21      22      20
      21      21      22      20      21      21      22      20      21      21
      22      20      21      21      22      20      21      21      22      20
      21      21      22      20      21      21      22      20      21      21
      22      20      21      21      22      20      21      21      22      20
      21      21      22      20      21      21      22      20      21      21
      22      20      21      21      22      20      21      21      22      20
      21      21      22      20      21      21      22      20      21      21
      22      20      21      21      22      20      21      21      22      20
      21      21      22      20      21      21      22      20      21      21
      22      20      21      21      22      20      21      21      22      20
      21      21      22      20      21      21      22      20      21      21
      22      20      21      21      22      20      21      21      22      20
      21      21      22      20      21      21      22      20      21      21
      22      20      21      21      22      20      21      21      22      20
      21      21      22      20      21      21      22      20      21      21
      22      20      21      21      22      20      21      21      22      20
      21      21      22      20      21      21      22      20      21      21
      22      20      21      21      22      20      21      21      22      20
      21      21      22      20      21      21      22      20      21      21
      22      20      21      21      22      20      21      21      22      20
      21      21      22      20      21      21      22      20      21      21
      22      20      21      21      22      20      21      21      22      20
      21      21      22      20      21      21      22      20      21      21
      22      20      21      21      22      20      21      21      22      20
      21      21      22      20      21      21      22      20      21      21
      22      20      21      21      22      20      21      21      22      20
      21      21      22      20      21      21      22      20      21      21
      22      20      21      21      22      20      21      21      22      20
      21      21      22      20      21      21      22      20      21      21
      22      20      21      21      22      20      21      21      22      20
      21      21      22      20      21      21      22      20      21      21
      22      20      21      21      22      20      21      21      22      20
      21      21      22      20      21      21      22      20      21      21
      22      20      21      21      22      20      21      21      22      20
      21      21      22      20      21      21      22      20      21      21
      22      20      21      21      22      20      21      21      22      20
      21      21      22      20      21      21      22      20      21      21
      22      20      21      21      22      20      21      21      22      20
      21      21      22      20      21      21      22      20      21      21
      22      20      21      21      22      20      21      21      22      20
      21      21      22      20      21      21      22      20      21      21
      22      20      21      21      22      20      21      21      22      20
      21      21      22      20      21      21      22      20      21      21
      22      20      21      21      22      20      21      21      22      20
      21      21      22      20      21      21      22      20      21      21
      22      20      21      21      22      20      21      21      22      20
      21      21      22      20      21      21      22      20      21      21
      22      20      21      21      22      20      21      21      22      20
      21      21      22      20      21      21      22      20      21      21
      22      20      21      21      22      20      21      21      22      20
      21      21      22      20      21      21      22      20      21      21
      22      20      21      21      22      20      21      21      22      20
      21      21      22      20      21      21      22      20      21      21
      22      20      21      21      22      20      21      21      22      20
      21      21      22      20      21      21      22      20      21      21
      22      20      21      21      22      20      21      21      22      20
      21      21      22      20      21      21      22      20      21      21
      22      20      21      21      22      20      21      21      22      20
      21      21      22      20      21      21      22      20      21      21
      22      20      21      21      22      20      21      21      22      20
      21      21      22      20      21      21      22      20      21      21
      22      20      21      21      22      20      21      21      22      20
      21      21      22      20      21      21      22      20      21      21
      22      20      21      21      22      20      21      21      22      20
      21      21      22      20      21      21      22      20      21      21
      22      20      21      21      22      20      21      21      22      20
      21      21      22      20      21      21      22      20      21      21
      22      20      21      21      22      20      21      21      22      20
      21      21      22      20      21      21      22      20      21      21
      22      20      21      21      22      20      21      21      22      20
      21      21      22      20      21      21      22      20      21      21
      22      20      21      21      22      20      21      21      22      20
      21      21      22      20      21      21      22      20      21      21
      22      20      21      21      22      20      21      21      22      20
      21      21      22      20      21      21      22      20      21      21
      22      20      21      21      22      20      21      21      22      20
      21      21      22      20      21      21      22      20      21      21
      22      20      21      21      22      20      21      21      22      20
      21      21      22      20      21      21      22      20      21      21
      22      20      21      21      22      20      21      21      22      20
      21      21      22      20      21      21      22      20      21      21
      22      20      21      21      22      20      21      21      22      20
      21      21      22      20      21      21      22      20      21      21
      22      20      21      21      22      20      21      21      22      20
      21      21      22      20      21      21      22      20      21      21
      22      20      21      21      22      20      21      21      22      20
      21      21      22      20      21      21      22      20      21      21
      22      20      21      21      22      20      21      21      22      20
      21      21      22      20      21      21      22      20      21      21
      22      20      21      21      22      20      21      21      22      20
      21      21      22      20      21      21      22      20      21      21
      22      20      21      21      22      20      21      21      22      20
      21      21      22      20      21      21      22      20      21      21
      22      20      21      21      22      20      21      21      22      20
      21      21      22      20      21      21      22      20      21      21
      22      20      21      21      22      20      21      21      22      20
      21      21      22      20      21      21      22      20      21      21
      22      20      21      21      22      20      21      21      22      20
      21      21      22      20      21      21      22      20      21      21
      22      20      21      21      22      20      21      21      22      20
      21      21      22      20      21      21      22      20      21      21
      22      20      21      21      22      20      21      21      22      20
      21      21      22      20      21      21      22      20      21      21
      22      20      21      21      22      20      21      21      22      20
      21      21      22      20      21      21      22      20      21      21
      22      20      21      21      22      20      21      21      22      20
      21      21      22      20      21      21      22      20      21      21
      22      20      21      21      22      20      21      21      22      20
      21      21      22      20      21      21      22      20      21      21
      22      20      21      21      22      20      21      21      22      20
      21      21      22      20      21      21      22      20      21      21
      22      20      21      21      22      20      21      21      22      20
      21      21      22      20      21      21      22      20      21      21
      22      20      21      21      22      20      21      21      22      20
      21      21      22      20      21      21      22      20      21      21
      22      20      21      21      22      20      21      21      22      20
      21      21      22      20      21      21      22      20      21      21
      22      20      21      21      22      20      21      21      22      20
      21      21      22      20      21      21      22      20      21      21
      22      20      21      21      22      20      21      21      22      20
      21      21      22      20      21      21      22      20      21      21
      22      20      21      21      22      20      21      21      22      20
      21      21      22      20      21      21      22      20      21      21
      22      20      21      21      22      20      21      21      22      20
      21      21      22      20      21      21      22      20      21      21
      22      20      21      21      22      20      21      21      22      20
      21      21      22      20      21      21      22      20      21      21
      22      20      21      21      22      20      21      21      22      20
      21      21      22      20      21      21      22      20      21      21
      22      20      21      21      22      20      21      21      22      20
      21      21      22      20      21      21      22      20      21      21
      22      20      21      21      22      20      21      21      22      20
      21      21      22      20      21      21      22      20      21      21
      22      20      21      21      22      20      21      21      22      20
      21      21      22      20      21      21      22      20      21      21
      22      20      21      21      22      20      21      21      22      20
      21      21      22      20      21      21      22      20      21      21
      22      20      21      21      22      20      21      21      22      20
      21      21      22      20      21      21      22      20      21      21
      22      20      21      21      22      20      21      21      22      20
      21      21      22      20      21      21      22      20      21      21
      22      20      21      21      22      20      21      21      22      20
      21      21      22      20      21      21      22      20      21      21
      22      20      21      21      22      20      21      21      22      20
      21      21      22      20      21      21      22      20      21      21
      22      20      21      21      22      20      21      21      22      20
      21      21      22      20      21      21      22      20      21      21
      22      20      21      21      22      20      21      21      22      20
      21      21      22      20      21      21      22      20      21      21
      22      20      21      21      22      20      21      21      22      20
      21      21      22      20      21      21      22      20      21      21
      22      20      21      21      22      20      21      21      22      20
      21      21      22      20      21      21      22      20      21      21
      22      20      21      21      22      20      21      21      22      20
      21      21      22      20      21      21      22      20      21      21
      22      20      21      21      22      20      21      21      22      20
      21      21      22      20      21      21      22      20      21      21
      22      20      21      21      22      20      21      21      22      20
      21      21      22      20      21      21      22      20      21      21
      22      20      21      21      22      20      21      21      22      20
      21      21      22      20      21      21      22      20      21      21
      22      20      21      21      22      20      21      21      22      20
      21      21      22      20      21      21      22      20      21      21
      22      20      21      21      22      20      21      21      22      20
      21      21      22      20      21      21      22      20      21      21
      22      20      21      21      22      20      21      21      22      20
      21      21      22      20      21      21      22      20      21      21
      22      20      21      21      22      20      21      21      22      20
      21      21      22      20      21      21      22      20      21      21
      22      20      21      21      22      20      21      21      22      20
      21      21      22      20      21      21      22      20      21      21
      22      20      21      21      22      20      21      21      22      20
      21      21      22      20      21      21      22      20      21      21
      22      20      21      21      22      20      21      21      22      20
      21      21      22      20      21      21      22      20      21      21
      22      20      21      21      22      20      21      21      22      20
      21      21      22      20      21      21      22      20      21      21
      22      20      21      21      22      20      21      21      22      20
      21      21      22      20      21      21      22      20      21      21
      22      20      21      21      22      20      21      21      22      20
      21      21      22      20      21      21      22      20      21      21
      22      20      21      21      22      20      21      21      22      20
      21      21      22      20      21      21      22      20      21      21
      22      20      21      21      22      20      21      21      22      20
      21      21      22      20      21      21      22      20      21      21
      22      20      21      21      22      20      21      21      22      20
      21      21      22      20      21      21      22      20      21      21
      22      20      21      21      22      20      21      21      22      20
      21      21      22      20      21      21      22      20      21      21
      22      20      21      21      22      20      21      21      22      20
      21      21      22      20      21      21      22      20      21      21
      22      20      21      21      22      20      21      21      22      20
      21      21      22      20      21      21      22      20      21      21
      22      20      21      21      22      20      21      21      22      20
      21      21      22      20      21      21      22      20      21      21
      22      20      21      21      22      20      21      21      22      20
      21      21      22      20      21      21      22      20      21      21
      22      20      21      21      22      20      21      21      22      20
      21      21      22      20      21      21      22      20      21      21
      22      20      21      21      22      20      21      21      22      20
      21      21      22      20      21      21      22      20      21      21
      22      20      21      21      22      20      21      21      22      20
      21      21      22      20      21      21      22      20      21      21
      22      20      21      21      22      20      21      21      22      20
      21      21      22      20      21      21      22      20      21      21
      22      20      21      21      22      20      21      21      22      20
      21      21      22      20      21      21      22      20      21      21
      22      20      21      21      22      20      21      21      22      20
      21      21      22      20      21      21      22      20      21      21
      22      20      21      21      22      20      21      21      22      20
      21      21      22      20      21      21      22      20      21      21
      22      20      21      21      22      20      21      21      22      20
      21      21      22      20      21      21      22      20      21      21
      22      20      21      21      22      20      21      21      22      20
      21      21      22      20      21      21      22      20      21      21
      22      20      21      21      22      20      21      21      22      20
      21      21      22      20      21      21      22      20      21      21
      22      20      21      21      22      20      21      21      22      20
      21      21      22      20      21      21      22      20      21      21
      22      20      21      21      22      20      21      21      22      20
      21      21      22      20      21      21      22      20      21      21
      22      20      21      21      22      20      21      21      22      20
      21      21      22      20      21      21      22      20      21      21
      22      20      21      21      22      20      21      21      22      20
      21      21      22      20      21      21      22      20      21      21
      22      20      21      21      22      20      21      21      22      20
      21      21      22      20      21      21      22      20      21      21
      22      20      21      21      22      20      21      21      22      20
      21      21      22      20      21      21      22      20      21      21
      22      20      21      21      22      20      21      21      22      20
      21      21      22      20      21      21      22      20      21      21
      22      20      21      21      22      20      21      21      22      20
      21      21      22      20      21      21      22      20      21      21
      22      20      21      21      22      20      21      21      22      20
      21      21      22      20      21      21      22      20      21      21
      22      20      21      21      22      20      21      21      22      20
      21      21      22      20      21      21      22      20      21      21
      22      20      21      21      22      20      21      21      22      20
      21      21      22      20      21      21      22      20      21      21
      22      20      21      21      22      20      21      21      22      20
      21      21      22      20      21      21      22      20      21      21
      22      20      21      21      22      20      21      21      22      20
      21      21      22      20      21      21      22      20      21      21
      22      20      21      21      22      20      21      21      22      20
      21      21      22      20      21      21      22      20      21      21
      22      20      21      21      22      20      21      21      22      20
      21      21      22      20      21      21      22      20      21      21
      22      20      21      21      22      20      21      21      22      20
      21      21      22      20      21      21      22      20      21      21
      22      20      21      21      22      20      21      21      22      20
      21      21      22      20      21      21      22      20      21      21
      22      20      21      21      22      20      21      21      22      20
      21      21      22      20      21      21      22      20      21      21
      22      20      21      21      22      20      21      21      22      20
      21      21      22      20      21      21      22      20      21      21
      22      20      21      21      22      20      21      21      22      20
      21      21      22      20      21      21      22      20      21      21
      22      20      21      21      22      20      21      21      22      20
      21      21      22      20      21      21      22      20      21      21
      22      20      21      21      22      20      21      21      22      20
      21      21      22      20      21      21      22      20      21      21
      22      20      21      21      22      20      21      21      22      20
      21      21      22      20      21      21      22      20      21      21
      22      20      21      21      22      20      21      21      22      20
      21      21      22      20      21      21      22      20      21      21
      22      20      21      21      22      20      21      21      22      20
      21      21      22      20      21      21      22      20      21      21
      22      20      21      21      22      20      21      21      22      20
      21      21      22      20      21      21      22      20      21      21
      22      20      21      21      22      20      21      21      22      20
      21      21      22      20      21      21      22      20      21      21
      22      20      21      21      22      20      21      21      22      20
      21      21      22      20      21      21      22      20      21      21
      22      20      21      21      22      20      21      21      22      20
      21      21      22      20      21      21      22      20      21      21
      22      20      21      21      22      20      21      21      22      20
      21      21      22      20      21      21      22      20      21      21
      22      20      21      21      22      20      21      21      22      20
      21      21      22      20      21      21      22      20      21      21
      22      20      21      21      22      20      21      21      22      20
      21      21      22      20      21      21      22      20      21      21
      22      20      21      21      22      20      21      21      22      20
      21      21      22      20      21      21      22      20      21      21
      22      20      21      21      22      20      21      21      22      20
      21      21      22      20      21      21      22      20      21      21
      22      20      21      21      22      20      21      21      22      20
      21      21      22      20      21      21      22      20      21      21
      22      20      21      21      22      20      21      21      22      20
      21      21      22      20      21      21      22      20      21      21
      22      20      21      21      22      20      21      21      22      20
      21      21      22      20      21      21      22      20      21      21
      22      20      21      21      22      20      21      21      22      20
      21      21      22      20      21      21      22      20      21      21
      22      20      21      21      22      20      21      21      22      20
      21      21      22      20      21      21      22      20      21      21
      22      20      21      21      22      20      21      21      22      20
      21      21      22      20      21      21      22      20      21      21
      22      20      21      21      22      20      21      21      22      20
      21      21      22      20      21      21      22      20      21      21
      22      20      21      21      22      20      21      21      22      20
      21      21      22      20      21      21      22      20      21      21
      22      20      21      21      22      20      21      21      22      20
      21      21      22      20      21      21      22      20      21      21
      22      20      21      21      22      20      21      21      22      20
      21      21      22      20      21      21      22      20      21      21
      22      20      21      21      22      20      21      21      22      20
      21      21      22      20      21      21      22      20      21      21
      22      20      21      21      22      20      21      21      22      20
      21      21      22      20      21      21      22      20      21      21
      22      20      21      21      22      20      21      21      22      20
      21      21      22      20      21      21      22      20      21      21
      22      20      21      21      22      20      21      21      22      20
      21      21      22      20      21      21      22      20      21      21
      22      20      21      21      22      20      21      21      22      20
      21      21      22      20      21      21      22      20      21      21
      22      20      21      21      22      20      21      21      22      20
      21      21      22      20      21      21      22      20      21      21
      22      20      21      21      22      20      21      21      22      20
      21      21      22      20      21      21      22      20      21      21
      22      20      21      21      22      20      21      21      22      20
      21      21      22      20      21      21      22      20      21      21
      22      20      21      21      22      20      21      21      22      20
      21      21      22      20      21      21      22      20      21      21
      22      20      21      21      22      20      21      21      22      20
      21      21      22      20      21      21      22      20      21      21
      22      20      21      21      22      20      21      21      22      20
      21      21      22      20      21      21      22      20      21      21
      22      20      21      21      22      20      21      21      22      20
      21      21      22      20      21      21      22      20      21      21
      22      20      21      21      22      20      21      21      22      20
      21      21      22      20      21      21      22      20      21      21
      22      20      21      21      22      20      21      21      22      20
      21      21      22      20      21      21      22      20      21      21
      22      20      21      21      22      20      21      21      22      20
      21      21      22      20      21      21      22      20      21      21
      22      20      21      21      22      20      21      21      22      20
      21      21      22      20      21      21      22      20      21      21
      22      20      21      21      22      20      21      21      22      20
      21      21      22      20      21      21      22      20      21      21
      22      20      21      21      22      20      21      21      22      20
      21      21      22      20      21      21      22      20      21      21
      22      20      21      21      22      20      21      21      22      20
      21      21      22      20      21      21      22      20      21      21
      22      20      21      21      22      20      21      21      22      20
      21      21      22      20      21      21      22      20      21      21
      22      20      21      21      22      20      21      21      22      20
      21      21      22      20      21      21      22      20      21      21
      22      20      21      21      22      20      21      21      22      20
      21      21      22      20      21      21      22      20      21      21
      22      20      21      21      22      20      21      21      22      20
      21      21      22      20      21      21      22      20      21      21
      22      20      21      21      22      20      21      21      22      20
      21      21      22      20      21      21      22      20      21      21
      22      20      21      21      22      20      21      21      22      20
      21      21      22      20      21      21      22      20      21      21
      22      20      21      21      22      20      21      21      22      20
      21      21      22      20      21      21      22      20      21      21
      22      20      21      21      22      20      21      21      22      20
      21      21      22      20      21      21      22      20      21      21
      22      20      21      21      22      20      21      21      22      20
      21      21      22      20      21      21      22      20      21      21
      22      20      21      21      22      20      21      21      22      20
      21      21      22      20      21      21      22      20      21      21
      22      20      21      21      22      20      21      21      22      20
      21      21      22      20      21      21      22      20      21      21
      22      20      21      21      22      20      21      21      22      20
      21      21      22      20      21      21      22      20      21      21
      22      20      21      21      22      20      21      21      22      20
      21      21      22      20      21      21      22      20      21      21
      22      20      21      21      22      20      21      21      22      20
      21      21      22      20      21      21      22      20      21      21
      22      20      21      21      22      20      21      21      22      20
      21      21      22      20      21      21      22      20      21      21
      22      20      21      21      22      20      21      21      22      20
      21      21      22      20      21      21      22      20      21      21
      22      20      21      21      22      20      21      21      22      20
      21      21      22      20      21      21      22      20      21      21
      22      20      21      21      22      20      21      21      22      20
      21      21      22      20      21      21      22      20      21      21
      22      20      21      21      22      20      21      21      22      20
      21      21      22      20      21      21      22      20      21      21
      22      20      21      21      22      20      21      21      22      20
      21      21      22      20      21      21      22      20      21      21
      22      20      21      21      22      20      21      21      22      20
      21      21      22      20      21      21      22      20      21      21
      22      20      21      21      22      20      21      21      22      20
      21      21      22      20      21      21      22      20      21      21
      22      20      21      21      22      20      21      21      22      20
      21      21      22      20      21      21      22      20      21      21
      22      20      21      21      22      20      21      21      22      20
      21      21      22      20      21      21      22      20      21      21
      22      20      21      21      22      20      21      21      22      20
      21      21      22      20      21      21      22      20      21      21
      22      20      21      21      22      20      21      21      22      20
      21      21      22      20      21      21      22      20      21      21
      22      20      21      21      22      20      21      21      22      20
      21      21      22      20      21      21      22      20      21      21
      22      20      21      21      22      20      21      21      22      20
      21      21      22      20      21      21      22      20      21      21
      22      20      21      21      22      20      21      21      22      20
      21      21      22      20      21      21      22      20      21      21
      22      20      21      21      22      20      21      21      22      20
      21      21      22      20      21      21      22      20      21      21
      22      20      21      21      22      20      21      21      22      20
      21      21      22      20      21      21      22      20      21      21
      22      20      21      21      22      20      21      21      22      20
      21      21      22      20      21      21      22      20      21      21
      22      20      21      21      22      20      21      21      22      20
      21      21      22      20      21      21      22      20      21      21
      22      20      21      21      22      20      21      21      22      20
      21      21      22      20      21      21      22      20      21      21
      22      20      21      21      22      20      21      21      22      20
      21      21      22      20      21      21      22      20      21      21
      22      20      21      21      22      20      21      21      22      20
      21      21      22      20      21      21      22      20      21      21
      22      20      21      21      22      20      21      21      22      20
      21      21      22      20      21      21      22      20      21      21
      22      20      21      21      22      20      21      21      22      20
      21      21      22      20      21      21      22      20      21      21
      22      20      21      21      22      20      21      21      22      20
      21      21      22      20      21      21      22      20      21      21
      22      20      21      21      22      20      21      21      22      20
      21      21      22      20      21      21      22      20      21      21
      22      20      21      21      22      20      21      21      22      20
      21      21      22      20      21      21      22      20      21      21
      22      20      21      21      22      20      21      21      22      20
      21      21      22      20      21      21      22      20      21      21
      22      20      21      21      22      20      21      21      22      20
      21      21      22      20      21      21      22      20      21      21
      22      20      21      21      22      20      21      21      22      20
      21      21      22      20      21      21      22      20      21      21
      22      20      21      21      22      20      21      21      22      20
      21      21      22      20      21      21      22      20      21      21
      22      20      21      21      22      20      21      21      22      20
      21      21      22      20      21      21      22      20      21      21
      22      20      21      21      22      20      21      21      22      20
      21      21      22      20      21      21      22      20      21      21
      22      20      21      21      22      20      21      21      22      20
      21      21      22      20      21      21      22      20      21      21
      22      20      21      21      22      20      21      21      22      20
      21      21      22      20      21      21      22      20      21      21
      22      20      21      21      22      20      21      21      22      20
      21      21      22      20      21      21      22      20      21      21
      22      20      21      21      22      20      21      21      22      20
      21      21      22      20      21      21      22      20      21      21
      22      20      21      21      22      20      21      21      22      20
      21      21      22      20      21      21      22      20      21      21
      22      20      21      21      22      20      21      21      22      20
      21      21      22      20      21      21      22      20      21      21
      22      20      21      21      22      20      21      21      22      20
      21      21      22      20      21      21      22      20      21      21
      22      20      21      21      22      20      21      21      22      20
      21      21      22      20      21      21      22      20      21      21
      22      20      21      21      22      20      21      21      22      20
      21      21      22      20      21      21      22      20      21      21
      22      20      21      21      22      20      21      21      22      20
      21      21      22      20      21      21      22      20      21      21
      22      20      21      21      22      20      21      21      22      20
      21      21      22      20      21      21      22      20      21      21
      22      20      21      21      22      20      21      21      22      20
      21      21      22      20      21      21      22      20      21      21
      22      20      21      21      22      20      21      21      22      20
      21      21      22      20      21      21      22      20      21      21
      22      20      21      21      22      20      21      21      22      20
      21      21      22      20      21      21      22      20      21      21
      22      20      21      21      22      20      21      21      22      20
      21      21      22      20      21      21      22      20      21      21
      22      20      21      21      22      20      21      21      22      20
      21      21      22      20      21      21      22      20      21      21
      22      20      21      21      22      20      21      21      22      20
      21      21      22      20      21      21      22      20      21      21
      22      20      21      21      22      20      21      21      22      20
      21      21      22      20      21      21      22      20      21      21
      22      20      21      21      22      20      21      21      22      20
      21      21      22      20      21      21      22      20      21      21
      22      20      21      21      22      20      21      21      22      20
      21      21      22      20      21      21      22      20      21      21
      22      20      21      21      22      20      21      21      22      20
      21      21      22      20      21      21      22      20      21      21
      22      20      21      21      22      20      21      21      22      20
      21      21      22      20      21      21      22      20      21      21
      22      20      21      21      22      20      21      21      22      20
      21      21      22      20      21      21      22      20      21      21
      22      20      21      21      22      20      21      21      22      20
      21      21      22      20      21      21      22      20      21      21
      22      20      21      21      22      20      21      21      22      20
      21      21      22      20      21      21      22      20      21      21
      22      20      21      21      22      20      21      21      22      20
      21      21      22      20      21      21      22      20      21      21
      22      20      21      21      22      20      21      21      22      20
      21      21      22      20      21      21      22      20      21      21
      22      20      21      21      22      20      21      21      22      20
      21      21      22      20      21      21      22      20      21      21
      22      20      21      21      22      20      21      21      22      20
      21      21      22      20      21      21      22      20      21      21
      22      20      21      21      22      20      21      21      22      20
      21      21      22      20      21      21      22      20      21      21
      22      20      21      21      22      20      21      21      22      20
      21      21      22      20      21      21      22      20      21      21
      22      20      21      21      22      20      21      21      22      20
      21      21      22      20      21      21      22      20      21      21
      22      20      21      21      22      20      21      21      22      20
      21      21      22      20      21      21      22      20      21      21
      22      20      21      21      22      20      21      21      22      20
      21      21      22      20      21      21      22      20      21      21
      22      20      21      21      22      20      21      21      22      20
      21      21      22      20      21      21      22      20      21      21
      22      20      21      21      22      20      21      21      22      20
      21      21      22      20      21      21      22      20      21      21
      22      20      21      21      22      20      21      21      22      20
      21      21      22      20      21      21      22      20      21      21
      22      20      21      21      22      20      21      21      22      20
      21      21      22      20      21      21      22      20      21      21
      22      20      21      21      22      20      21      21      22      20
      21      21      22      20      21      21      22      20      21      21
      22      20      21      21      22      20      21      21      22      20
      21      21      22      20      21      21      22      20      21      21
      22      20      21      21      22      20      21      21      22      20
      21      21      22      20      21      21      22      20      21      21
      22      20      21      21      22      20      21      21      22      20
      21      21      22      20      21      21      22      20      21      21
      22      20      21      21      22      20      21      21      22      20
      21      21      22      20      21      21      22      20      21      21
      22      20      21      21      22      20      21      21      22      20
      21      21      22      20      21      21      22      20      21      21
      22      20      21      21      22      20      21      21      22      20
      21      21      22      20      21      21      22      20      21      21
      22      20      21      21      22      20      21      21      22      20
      21      21      22      20      21      21      22      20      21      21
      22      20      21      21      22      20      21      21      22      20
      21      21      22      20      21      21      22      20      21      21
      22      20      21      21      22      20      21      21      22      20
      21      21      22      20      21      21      22      20      21      21
      22      20      21      21      22      20      21      21      22      20
      21      21      22      20      21      21      22      20      21      21
      22      20      21      21      22      20      21      21      22      20
      21      21      22      20      21      21      22      20      21      21
      22      20      21      21      22      20      21      21      22      20
      21      21      22      20      21      21      22      20      21      21
      22      20      21      21      22      20      21      21      22      20
      21      21      22      20      21      21      22      20      21      21
      22      20      21      21      22      20      21      21      22      20
      21      21      22      20      21      21      22      20      21      21
      22      20      21      21      22      20      21      21      22      20
      21      21      22      20      21      21      22      20      21      21
      22      20      21      21      22      20      21      21      22      20
      21      21      22      20      21      21      22      20      21      21
      22      20      21      21      22      20      21      21      22      20
      21      21      22      20      21      21      22      20      21      21
      22      20      21      21      22      20      21      21      22      20
      21      21      22      20      21      21      22      20      21      21
      22      20      21      21      22      20      21      21      22      20
      21      21      22      20      21      21      22      20      21      21
      22      20      21      21      22      20      21      21      22      20
      21      21      22      20      21      21      22      20      21      21
      22      20      21      21      22      20      21      21      22      20
      21      21      22      20      21      21      22      20      21      21
      22      20      21      21      22      20      21      21      22      20
      21      21      22      20      21      21      22      20      21      21
      22      20      21      21      22      20      21      21      22      20
      21      21      22      20      21      21      22      20      21      21
      22      20      21      21      22      20      21      21      22      20
      21      21      22      20      21      21      22      20      21      21
      22      20      21      21      22      20      21      21      22      20
      21      21      22      20      21      21      22      20      21      21
      22      20      21      21      22      20      21      21      22      20
      21      21      22      20      21      21      22      20      21      21
      22      20      21      21      22      20      21      21      22      20
      21      21      22      20      21      21      22      20      21      21
      22      20      21      21      22      20      21      21      22      20
      21      21      22      20      21      21      22      20      21      21
      22      20      21      21      22      20      21      21      22      20
      21      21      22      20      21      21      22      20      21      21
      22      20      21      21      22      20      21      21      22      20
      21      21      22      20      21      21      22      20      21      21
      22      20      21      21      22      20      21      21      22      20
      21      21      22      20      21      21      22      20      21      21
      22      20      21      21      22      20      21      21      22      20
      21      21      22      20      21      21      22      20      21      21
      22      20      21      21      22      20      21      21      22      20
      21      21      22      20      21      21      22      20      21      21
      22      20      21      21      22      20      21      21      22      20
      21      21      22      20      21      21      22      20      21      21
      22      20      21      21      22      20      21      21      22      20
      21      21      22      20      21      21      22      20      21      21
      22      20      21      21      22      20      21      21      22      20
      21      21      22      20      21      21      22      20      21      21
      22      20      21      21      22      20      21      21      22      20
      21      21      22      20      21      21      22      20      21      21
      22      20      21      21      22      20      21      21      22      20
      21      21      22      20      21      21      22      20      21      21
      22      20      21      21      22      20      21      21      22      20
      21      21      22      20      21      21      22      20      21      21
      22      20      21      21      22      20      21      21      22      20
      21      21      22      20      21      21      22      20      21      21
      22      20      21      21      22      20      21      21      22      20
      21      21      22      20      21      21      22      20      21      21
      22      20      21      21      22      20      21      21      22      20
      21      21      22      20      21      21      22      20      21      21
      22      20      21      21      22      20      21      21      22      20
      21      21      22      20      21      21      22      20      21      21
      22      20      21      21      22      20      21      21      22      20
      21      21      22      20      21      21      22      20      21      21
      22      20      21      21      22      20      21      21      22      20
      21      21      22      20      21      21      22      20      21      21
      22      20      21      21      22      20      21      21      22      20
      21      21      22      20      21      21      22      20      21      21
      22      20      21      21      22      20      21      21      22      20
      21      21      22      20      21      21      22      20      21      21
      22      20      21      21      22      20      21      21      22      20
      21      21      22      20      21      21      22      20      21      21
      22      20      21      21      22      20      21      21      22      20
      21      21      22      20      21      21      22      20      21      21
      22      20      21      21      22      20      21      21      22      20
      21      21      22      20      21      21      22      20      21      21
      22      20      21      21      22      20      21      21      22      20
      21      21      22      20      21      21      22      20      21      21
      22      20      21      21      22      20      21      21      22      20
      21      21      22      20      21      21      22      20      21      21
      22      20      21      21      22      20      21      21      22      20
      21      21      22      20      21      21      22      20      21      21
      22      20      21      21      22      20      21      21      22      20
      21      21      22      20      21      21      22      20      21      21
      22      20      21      21      22      20      21      21      22      20
      21      21      22      20      21      21      22      20      21      21
      22      20      21      21      22      20      21      21      22      20
      21      21      22      20      21      21      22      20      21      21
      22      20      21      21      22      20      21      21      22      20
      21      21      22      20      21      21      22      20      21      21
      22      20      21      21      22      20      21      21      22      20
      21      21      22      20      21      21      22      20      21      21
      22      20      21      21      22      20      21      21      22      20
      21      21      22      20      21      21      22      20      21      21
      22      20      21      21      22      20      21      21      22      20
      21      21      22      20      21      21      22      20      21      21
      22      20      21      21      22      20      21      21      22      20
      21      21      22      20      21      21      22      20      21      21
      22      20      21      21      22      20      21      21      22      20
      21      21      22      20      21      21      22      20      21      21
      22      20      21      21      22      20      21      21      22      20
      21      21      22      20      21      21      22      20      21      21
      22      20      21      21      22      20      21      21      22      20
      21      21      22      20      21      21      22      20      21      21
      22      20      21      21      22      20      21      21      22      20
      21      21      22      20      21      21      22      20      21      21
      22      20      21      21      22      20      21      21      22      20
      21      21      22      20      21      21      22      20      21      21
      22      20      21      21      22      20      21      21      22      20
      21      21      22      20      21      21      22      20      21      21
      22      20      21      21      22      20      21      21      22      20
      21      21      22      20      21      21      22      20      21      21
      22      20      21      21      22      20      21      21      22      20
      21      21      22      20      21      21      22      20      21      21
      22      20      21      21      22      20      21      21      22      20
      21      21      22      20      21      21      22      20      21      21
      22      20      21      21      22      20      21      21      22      20
      21      21      22      20      21      21      22      20      21      21
      22      20      21      21      22      20      21      21      22      20
      21      21      22      20      21      21      22      20      21      21
      22      20      21      21      22      20      21      21      22      20
      21      21      22      20      21      21      22      20      21      21
      22      20      21      21      22      20      21      21      22      20
      21      21      22      20      21      21      22      20      21      21
      22      20      21      21      22      20      21      21      22      20
      21      21      22      20      21      21      22      20      21      21
      22      20      21      21      22      20      21      21      22      20
      21      21      22      20      21      21      22      20      21      21
      22      20      21      21      22      20      21      21      22      20
      21      21      22      20      21      21      22      20      21      21
      22      20      21      21      22      20      21      21      22      20
      21      21      22      20      21      21      22      20      21      21
      22      20      21      21      22      20      21      21      22      20
      21      21      22      20      21      21      22      20      21      21
      22      20      21      21      22      20      21      21      22      20
      21      21      22      20      21      21      22      20      21      21
      22      20      21      21      22      20      21      21      22      20
      21      21      22      20      21      21      22      20      21      21
      22      20      21      21      22      20      21      21      22      20
      21      21      22      20      21      21      22      20      21      21
      22      20      21      21      22      20      21      21      22      20
      21      21      22      20      21      21      22      20      21      21
      22      20      21      21      22      20      21      21      22      20
      21      21      22      20      21      21      22      20      21      21
      22      20      21      21      22      20      21      21      22      20
      21      21      22      20      21      21      22      20      21      21
      22      20      21      21      22      20      21      21      22      20
      21      21      22      20      21      21      22      20      21      21
      22      20      21      21      22      20      21      21      22      20
      21      21      22      20      21      21      22      20      21      21
      22      20      21      21      22      20      21      21      22      20
      21      21      22      20      21      21      22      20      21      21
      22      20      21      21      22      20      21      21      22      20
      21      21      22      20      21      21      22      20      21      21
      22      20      21      21      22      20      21      21      22      20
      21      21      22      20      21      21      22      20      21      21
      22      20      21      21      22      20      21      21      22      20
      21      21      22      20      21      21      22      20      21      21
      22      20      21      21      22      20      21      21      22      20
      21      21      22      20      21      21      22      20      21      21
      22      20      21      21      22      20      21      21      22      20
      21      21      22      20      21      21      22      20      21      21
      22      20      21      21      22      20      21      21      22      20
      21      21      22      20      21      21      22      20      21      21
      22      20      21      21      22      20      21      21      22      20
      21      21      22      20      21      21      22      20      21      21
      22      20      21      21      22      20      21      21      22      20
      21      21      22      20      21      21      22      20      21      21
      22      20      21      21      22      20      21      21      22      20
      21      21      22      20      21      21      22      20      21      21
      22      20      21      21      22      20      21      21      22      20
      21      21      22      20      21      21      22      20      21      21
      22      20      21      21      22      20      21      21      22      20
      21      21      22      20      21      21      22      20      21      21
      22      20      21      21      22      20      21      21      22      20
      21      21      22      20      21      21      22      20      21      21
      22      20      21      21      22      20      21      21      22      20
      21      21      22      20      21      21      22      20      21      21
      22      20      21      21      22      20      21      21      22      20
      21      21      22      20      21      21      22      20      21      21
      22      20      21      21      22      20      21      21      22      20
      21      21      22      20      21      21      22      20      21      21
      22      20      21      21      22      20      21      21      22      20
      21      21      22      20      21      21      22      20      21      21
      22      20      21      21      22      20      21      21      22      20
      21      21      22      20      21      21      22      20      21      21
      22      20      21      21      22      20      21      21      22      20
      21      21      22      20      21      21      22      20      21      21
      22      20      21      21      22      20      21      21      22      20
      21      21      22      20      21      21      22      20      21      21
      22      20      21      21      22      20      21      21      22      20
      21      21      22      20      21      21      22      20      21      21
      22      20      21      21      22      20      21      21      22      20
      21      21      22      20      21      21      22      20      21      21
      22      20      21      21      22      20      21      21      22      20
      21      21      22      20      21      21      22      20      21      21
      22      20      21      21      22      20      21      21      22      20
      21      21      22      20      21      21      22      20      21      21
      22      20      21      21      22      20      21      21      22      20
      21      21      22      20      21      21      22      20      21      21
      22      20      21      21      22      20      21      21      22      20
      21      21      22      20      21      21      22      20      21      21
      22      20      21      21      22      20      21      21      22      20
      21      21      22      20      21      21      22      20      21      21
      22      20      21      21      22      20      21      21      22      20
      21      21      22      20      21      21      22      20      21      21
      22      20      21      21      22      20      21      21      22      20
      21      21      22      20      21      21      22      20      21      21
      22      20      21      21      22      20      21      21      22      20
      21      21      22      20      21      21      22      20      21      21
      22      20      21      21      22      20      21      21      22      20
      21      21      22      20      21      21      22      20      21      21
      22      20      21      21      22      20      21      21      22      20
      21      21      22      20      21      21      22      20      21      21
      22      20      21      21      22      20      21      21      22      20
      21      21      22      20      21      21      22      20      21      21
      22      20      21      21      22      20      21      21      22      20
      21      21      22      20      21      21      22      20      21      21
      22      20      21      21      22      20      21      21      22      20
      21      21      22      20      21      21      22      20      21      21
      22      20      21      21      22      20      21      21      22      20
      21      21      22      20      21      21      22      20      21      21
      22      20      21      21      22      20      21      21      22      20
      21      21      22      20      21      21      22      20      21      21
      22      20      21      21      22      20      21      21      22      20
      21      21      22      20      21      21      22      20      21      21
      22      20      21      21      22      20      21      21      22      20
      21      21      22      20      21      21      22      20      21      21
      22      20      21      21      22      20      21      21      22      20
      21      21      22      20      21      21      22      20      21      21
      22      20      21      21      22      20      21      21      22      20
      21      21      22      20      21      21      22      20      21      21
      22      20      21      21      22      20      21      21      22      20
      21      21      22      20      21      21      22      20      21      21
      22      20      21      21      22      20      21      21      22      20
      21      21      22      20      21      21      22      20      21      21
      22      20      21      21      22      20      21      21      22      20
      21      21      22      20      21      21      22      20      21      21
      22      20      21      21      22      20      21      21      22      20
      21      21      22      20      21      21      22      20      21      21
      22      20      21      21      22      20      21      21      22      20
      21      21      22      20      21      21      22      20      21      21
      22      20      21      21      22      20      21      21      22      20
      21      21      22      20      21      21      22      20      21      21
      22      20      21      21      22      20      21      21      22      20
      21      21      22      20      21      21      22      20      21      21
      22      20      21      21      22      20      21      21      22      20
      21      21      22      20      21      21      22      20      21      21
      22      20      21      21      22      20      21      21      22      20
      21      21      22      20      21      21      22      20      21      21
      22      20      21      21      22      20      21      21      22      20
      21      21      22      20      21      21      22      20      21      21
      22      20      21      21      22      20      21      21      22      20
      21      21      22      20      21      21      22      20      21      21
      22      20      21      21      22      20      21      21      22      20
      21      21      22      20      21      21      22      20      21      21
      22      20      21      21      22      20      21      21      22      20
      21      21      22      20      21      21      22      20      21      21
      22      20      21      21      22      20      21      21      22      20
      21      21      22      20      21      21      22      20      21      21
      22      20      21      21      22      20      21      21      22      20
      21      21      22      20      21      21      22      20      21      21
      22      20      21      21      22      20      21      21      22      20
      21      21      22      20      21      21      22      20      21      21
      22      20      21      21      22      20      21      21      22      20
      21      21      22      20      21      21      22      20      21      21
      22      20      21      21      22      20      21      21      22      20
      21      21      22      20      21      21      22      20      21      21
      22      20      21      21      22      20      21      21      22      20
      21      21      22      20      21      21      22      20      21      21
      22      20      21      21      22      20      21      21      22      20
      21      21      22      20      21      21      22      20      21      21
      22      20      21      21      22      20      21      21      22      20
      21      21      22      20      21      21      22      20      21      21
      22      20      21      21      22      20      21      21      22      20
      21      21      22      20      21      21      22      20      21      21
      22      20      21      21      22      20      21      21      22      20
      21      21      22      20      21      21      22      20      21      21
      22      20      21      21      22      20      21      21      22      20
      21      21      22      20      21      21      22      20      21      21
      22      20      21      21      22      20      21      21      22      20
      21      21      22      20      21      21      22      20      21      21
      22      20      21      21      22      20      21      21      22      20
      21      21      22      20      21      21      22      20      21      21
      22      20      21      21      22      20      21      21      22      20
      21      21      22      20      21      21      22      20      21      21
      22      20      21      21      22      20      21      21      22      20
      21      21      22      20      21      21      22      20      21      21
      22      20      21      21      22      20      21      21      22      20
      21      21      22      20      21      21      22      20      21      21
      22      20      21      21      22      20      21      21      22      20
      21      21      22      20      21      21      22      20      21      21
      22      20      21      21      22      20      21      21      22      20
      21      21      22      20      21      21      22      20      21      21
      22      20      21      21      22      20      21      21      22      20
      21      21      22      20      21      21      22      20      21      21
      22      20      21      21      22      20      21      21      22      20
      21      21      22      20      21      21      22      20      21      21
      22      20      21      21      22      20      21      21      22      20
      21      21      22      20      21      21      22      20      21      21
      22      20      21      21      22      20      21      21      22      20
      21      21      22      20      21      21      22      20      21      21
      22      20      21      21      22      20      21      21      22      20
      21      21      22      20      21      21      22      20      21      21
      22      20      21      21      22      20      21      21      22      20
      21      21      22      20      21      21      22      20      21      21
      22      20      21      21      22      20      21      21      22      20
      21      21      22      20      21      21      22      20      21      21
      22      20      21      21      22      20      21      21      22      20
      21      21      22      20      21      21      22      20      21      21
      22      20      21      21      22      20      21      21      22      20
      21      21      22      20      21      21      22      20      21      21
      22      20      21      21      22      20      21      21      22      20
      21      21      22      20      21      21      22      20      21      21
      22      20      21      21      22      20      21      21      22      20
      21      21      22      20      21      21      22      20      21      21
      22      20      21      21      22      20      21      21      22      20
      21      21      22      20      21      21      22      20      21      21
      22      20      21      21      22      20      21      21      22      20
      21      21      22      20      21      21      22      20      21      21
      22      20      21      21      22      20      21      21      22      20
      21      21      22      20      21      21      22      20      21      21
      22      20      21      21      22      20      21      21      22      20
      21      21      22      20      21      21      22      20      21      21
      22      20      21      21      22      20      21      21      22      20
      21      21      22      20      21      21      22      20      21      21
      22      20      21      21      22      20      21      21      22      20
      21      21      22      20      21      21      22      20      21      21
      22      20      21      21      22      20      21      21      22      20
      21      21      22      20      21      21      22      20      21      21
      22      20      21      21      22      20      21      21      22      20
      21      21      22      20      21      21      22      20      21      21
      22      20      21      21      22      20      21      21      22      20
      21      21      22      20      21      21      22      20      21      21
      22      20      21      21      22      20      21      21      22      20
      21      21      22      20      21      21      22      20      21      21
      22      20      21      21      22      20      21      21      22      20
      21      21      22      20      21      21      22      20      21      21
      22      20      21      21      22      20      21      21      22      20
      21      21      22      20      21      21      22      20      21      21
      22      20      21      21      22      20      21      21      22      20
      21      21      22      20      21      21      22      20      21      21
      22      20      21      21      22      20      21      21      22      20
      21      21      22      20      21      21      22      20      21      21
      22      20      21      21      22      20      21      21      22      20
      21      21      22      20      21      21      22      20      21      21
      22      20      21      21      22      20      21      21      22      20
      21      21      22      20      21      21      22      20      21      21
      22      20      21      21      22      20      21      21      22      20
      21      21      22      20      21      21      22      20      21      21
      22      20      21      21      22      20      21      21      22      20
      21      21      22      20      21      21      22      20      21      21
      22      20      21      21      22      20      21      21      22      20
      21      21      22      20      21      21      22      20      21      21
      22      20      21      21      22      20      21      21      22      20
      21      21      22      20      21      21      22      20      21      21
      22      20      21      21      22      20      21      21      22      20
      21      21      22      20      21      21      22      20      21      21
      22      20      21      21      22      20      21      21      22      20
      21      21      22      20      21      21      22      20      21      21
      22      20      21      21      22      20      21      21      22      20
      21      21      22      20      21      21      22      20      21      21
      22      20      21      21      22      20      21      21      22      20
      21      21      22      20      21      21      22      20      21      21
      22      20      21      21      22      20      21      21      22      20
      21      21      22      20      21      21      22      20      21      21
      22      20      21      21      22      20      21      21      22      20
      21      21      22      20      21      21      22      20      21      21
      22      20      21      21      22      20      21      21      22      20
      21      21      22      20      21      21      22      20      21      21
      22      20      21      21      22      20      21      21      22      20
      21      21      22      20      21      21      22      20      21      21
      22      20      21      21      22      20      21      21      22      20
      21      21      22      20      21      21      22      20      21      21
      22      20      21      21      22      20      21      21      22      20
      21      21      22      20      21      21      22      20      21      21
      22      20      21      21      22      20      21      21      22      20
      21      21      22      20      21      21      22      20      21      21
      22      20      21      21      22      20      21      21      22      20
      21      21      22      20      21      21      22      20      21      21
      22      20      21      21      22      20      21      21      22      20
      21      21      22      20      21      21      22      20      21      21
      22      20      21      21      22      20      21      21      22      20
      21      21      22      20      21      21      22      20      21      21
      22      20      21      21      22      20      21      21      22      20
      21      21      22      20      21      21      22      20      21      21
      22      20      21      21      22      20      21      21      22      20
      21      21      22      20      21      21      22      20      21      21
      22      20      21      21      22      20      21      21      22      20
      21      21      22      20      21      21      22      20      21      21
      22      20      21      21      22      20      21      21      22      20
      21      21      22      20      21      21      22      20      21      21
      22      20      21      21      22      20      21      21      22      20
      21      21      22      20      21      21      22      20      21      21
      22      20      21      21      22      20      21      21      22      20
      21      21      22      20      21      21      22      20      21      21
      22      20      21      21      22      20      21      21      22      20
      21      21      22      20      21      21      22      20      21      21
      22      20      21      21      22      20      21      21      22      20
      21      21      22      20      21      21      22      20      21      21
      22      20      21      21      22      20      21      21      22      20
      21      21      22      20      21      21      22      20      21      21
      22      20      21      21      22      20      21      21      22      20
      21      21      22      20      21      21      22      20      21      21
      22      20      21      21      22      20      21      21      22      20
      21      21      22      20      21      21      22      20      21      21
      22      20      21      21      22      20      21      21      22      20
      21      21      22      20      21      21      22      20      21      21
      22      20      21      21      22      20      21      21      22      20
      21      21      22      20      21      21      22      20      21      21
      22      20      21      21      22      20      21      21      22      20
      21      21      22      20      21      21      22      20      21      21
      22      20      21      21      22      20      21      21      22      20
      21      21      22      20      21      21      22      20      21      21
      22      20      21      21      22      20      21      21      22      20
      21      21      22      20      21      21      22      20      21      21
      22      20      21      21      22      20      21      21      22      20
      21      21      22      20      21      21      22      20      21      21
      22      20      21      21      22      20      21      21      22      20
      21      21      22      20      21      21      22      20      21      21
      22      20      21      21      22      20      21      21      22      20
      21      21      22      20      21      21      22      20      21      21
      22      20      21      21      22      20      21      21      22      20
      21      21      22      20      21      21      22      20      21      21
      22      20      21      21      22      20      21      21      22      20
      21      21      22      20      21      21      22      20      21      21
      22      20      21      21      22      20      21      21      22      20
      21      21      22      20      21      21      22      20      21      21
      22      20      21      21      22      20      21      21      22      20
      21      21      22      20      21      21      22      20      21      21
      22      20      21      21      22      20      21      21      22      20
      21      21      22      20      21      21      22      20      21      21
      22      20      21      21      22      20      21      21      22      20
      21      21      22      20      21      21      22      20      21      21
      22      20      21      21      22      20      21      21      22      20
      21      21      22      20      21      21      22      20      21      21
      22      20      21      21      22      20      21      21      22      20
      21      21      22      20      21      21      22      20      21      21
      22      20      21      21      22      20      21      21      22      20
      21      21      22      20      21      21      22      20      21      21
      22      20      21      21      22      20      21      21      22      20
      21      21      22      20      21      21      22      20      21      21
      22      20      21      21      22      20      21      21      22      20
      21      21      22      20      21      21      22      20      21      21
      22      20      21      21      22      20      21      21      22      20
      21      21      22      20      21      21      22      20      21      21
      22      20      21      21      22      20      21      21      22      20
      21      21      22      20      21      21      22      20      21      21
      22      20      21      21      22      20      21      21      22      20
      21      21      22      20      21      21      22      20      21      21
      22      20      21      21      22      20      21      21      22      20
      21      21      22      20      21      21      22      20      21      21
      22      20      21      21      22      20      21      21      22      20
      21      21      22      20      21      21      22      20      21      21
      22      20      21      21      22      20      21      21      22      20
      21      21      22      20      21      21      22      20      21      21
      22      20      21      21      22      20      21      21      22      20
      21      21      22      20      21      21      22      20      21      21
      22      20      21      21      22      20      21      21      22      20
      21      21      22      20      21      21      22      20      21      21
      22      20      21      21      22      20      21      21      22      20
      21      21      22      20      21      21      22      20      21      21
      22      20      21      21      22      20      21      21      22      20
      21      21      22      20      21      21      22      20      21      21
      22      20      21      21      22      20      21      21      22      20
      21      21      22      20      21      21      22      20      21      21
      22      20      21      21      22      20      21      21      22      20
      21      21      22      20      21      21      22      20      21      21
      22      20      21      21      22      20      21      21      22      20
      21      21      22      20      21      21      22      20      21      21
      22      20      21      21      22      20      21      21      22      20
      21      21      22      20      21      21      22      20      21      21
      22      20      21      21      22      20      21      21      22      20
      21      21      22      20      21      21      22      20      21      21
      22      20      21      21      22      20      21      21      22      20
      21      21      22      20      21      21      22      20      21      21
      22      20      21      21      22      20      21      21      22      20
      21      21      22      20      21      21      22      20      21      21
      22      20      21      21      22      20      21      21      22      20
      21      21      22      20      21      21      22      20      21      21
      22      20      21      21      22      20      21      21      22      20
      21      21      22      20      21      21      22      20      21      21
      22      20      21      21      22      20      21      21      22      20
      21      21      22      20      21      21      22      20      21      21
      22      20      21      21      22      20      21      21      22      20
      21      21      22      20      21      21      22      20      21      21
      22      20      21      21      22      20      21      21      22      20
      21      21      22      20      21      21      22      20      21      21
      22      20      21      21      22      20      21      21      22      20
      21      21      22      20      21      21      22      20      21      21
      22      20      21      21      22      20      21      21      22      20
      21      21      22      20      21      21      22      20      21      21
      22      20      21      21      22      20      21      21      22      20
      21      21      22      20      21      21      22      20      21      21
      22      20      21      21      22      20      21      21      22      20
      21      21      22      20      21      21      22      20      21      21
      22      20      21      21      22      20      21      21      22      20
      21      21      22      20      21      21      22      20      21      21
      22      20      21      21      22      20      21      21      22      20
      21      21      22      20      21      21      22      20      21      21
      22      20      21      21      22      20      21      21      22      20
      21      21      22      20      21      21      22      20      21      21
      22      20      21      21      22      20      21      21      22      20
      21      21      22      20      21      21      22      20      21      21
      22      20      21      21      22      20      21      21      22      20
      21      21      22      20      21      21      22      20      21      21
      22      20      21      21      22      20      21      21      22      20
      21      21      22      20      21      21      22      20      21      21
      22      20      21      21      22      20      21      21      22      20
      21      21      22      20      21      21      22      20      21      21
      22      20      21      21      22      20      21      21      22      20
      21      21      22      20      21      21      22      20      21      21
      22      20      21      21      22      20      21      21      22      20
      21      21      22      20      21      21      22      20      21      21
      22      20      21      21      22      20      21      21      22      20
      21      21      22      20      21      21      22      20      21      21
      22      20      21      21      22      20      21      21      22      20
      21      21      22      20      21      21      22      20      21      21
      22      20      21      21      22      20      21      21      22      20
      21      21      22      20      21      21      22      20      21      21
      22      20      21      21      22      20      21      21      22      20
      21      21      22      20      21      21      22      20      21      21
      22      20      21      21      22      20      21      21      22      20
      21      21      22      20      21      21      22      20      21      21
      22      20      21      21      22      20      21      21      22      20
      21      21      22      20      21      21      22      20      21      21
      22      20      21      21      22      20      21      21      22      20
      21      21      22      20      21      21      22      20      21      21
      22      20      21      21      22      20      21      21      22      20
      21      21      22      20      21      21      22      20      21      21
      22      20      21      21      22      20      21      21      22      20
      21      21      22      20      21      21      22      20      21      21
      22      20      21      21      22      20      21      21      22      20
      21      21      22      20      21      21      22      20      21      21
      22      20      21      21      22      20      21      21      22      20
      21      21      22      20      21      21      22      20      21      21
      22      20      21      21      22      20      21      21      22      20
      21      21      22      20      21      21      22      20      21      21
      22      20      21      21      22      20      21      21      22      20
      21      21      22      20      21      21      22      20      21      21
      22      20      21      21      22      20      21      21      22      20
      21      21      22      20      21      21      22      20      21      21
      22      20      21      21      22      20      21      21      22      20
      21      21      22      20      21      21      22      20      21      21
      22      20      21      21      22      20      21      21      22      20
      21      21      22      20      21      21      22      20      21      21
      22      20      21      21      22      20      21      21      22      20
      21      21      22      20      21      21      22      20      21      21
      22      20      21      21      22      20      21      21      22      20
      21      21      22      20      21      21      22      20      21      21
      22      20      21      21      22      20      21      21      22      20
      21      21      22      20      21      21      22      20      21      21
      22      20      21      21      22      20      21      21      22      20
      21      21      22      20      21      21      22      20      21      21
      22      20      21      21      22      20      21      21      22      20
      21      21      22      20      21      21      22      20      21      21
      22      20      21      21      22      20      21      21      22      20
      21      21      22      20      21      21      22      20      21      21
      22      20      21      21      22      20      21      21      22      20
      21      21      22      20      21      21      22      20      21      21
      22      20      21      21      22      20      21      21      22      20
      21      21      22      20      21      21      22      20      21      21
      22      20      21      21      22      20      21      21      22      20
      21      21      22      20      21      21      22      20      21      21
      22      20      21      21      22      20      21      21      22      20
      21      21      22      20      21      21      22      20      21      21
      22      20      21      21      22      20      21      21      22      20
      21      21      22      20      21      21      22      20      21      21
      22      20      21      21      22      20      21      21      22      20
      21      21      22      20      21      21      22      20      21      21
      22      20      21      21      22      20      21      21      22      20
      21      21      22      20      21      21      22      20      21      21
      22      20      21      21      22      20      21      21      22      20
      21      21      22      20      21      21      22      20      21      21
      22      20      21      21      22      20      21      21      22      20
      21      21      22      20      21      21      22      20      21      21
      22      20      21      21      22      20      21      21      22      20
      21      21      22      20      21      21      22      20      21      21
      22      20      21      21      22      20      21      21      22      20
      21      21      22      20      21      21      22      20      21      21
      22      20      21      21      22      20      21      21      22      20
      21      21      22      20      21      21      22      20      21      21
      22      20      21      21      22      20      21      21      22      20
      21      21      22      20      21      21      22      20      21      21
      22      20      21      21      22      20      21      21      22      20
      21      21      22      20      21      21      22      20      21      21
      22      20      21      21      22      20      21      21      22      20
      21      21      22      20      21      21      22      20      21      21
      22      20      21      21      22      20      21      21      22      20
      21      21      22      20      21      21      22      20      21      21
      22      20      21      21      22      20      21      21      22      20
      21      21      22      20      21      21      22      20      21      21
      22      20      21      21      22      20      21      21      22      20
      21      21      22      20      21      21      22      20      21      21
      22      20      21      21      22      20      21      21      22      20
      21      21      22      20      21      21      22      20      21      21
      22      20      21      21      22      20      21      21      22      20
      21      21      22      20      21      21      22      20      21      21
      22      20      21      21      22      20      21      21      22      20
      21      21      22      20      21      21      22      20      21      21
      22      20      21      21      22      20      21      21      22      20
      21      21      22      20      21      21      22      20      21      21
      22      20      21      21      22      20      21      21      22      20
      21      21      22      20      21      21      22      20      21      21
      22      20      21      21      22      20      21      21      22      20
      21      21      22      20      21      21      22      20      21      21
      22      20      21      21      22      20      21      21      22      20
      21      21      22      20      21      21      22      20      21      21
      22      20      21      21      22      20      21      21      22      20
      21      21      22      20      21      21      22      20      21      21
      22      20      21      21      22      20      21      21      22      20
      21      21      22      20      21      21      22      20      21      21
      22      20      21      21      22      20      21      21      22      20
      21      21      22      20      21      21      22      20      21      21
      22      20      21      21      22      20      21      21      22      20
      21      21      22      20      21      21      22      20      21      21
      22      20      21      21      22      20      21      21      22      20
      21      21      22      20      21      21      22      20      21      21
      22      20      21      21      22      20      21      21      22      20
      21      21      22      20      21      21      22      20      21      21
      22      20      21      21      22      20      21      21      22      20
      21      21      22      20      21      21      22      20      21      21
      22      20      21      21      22      20      21      21      22      20
      21      21      22      20      21      21      22      20      21      21
      22      20      21      21      22      20      21      21      22      20
      21      21      22      20      21      21      22      20      21      21
      22      20      21      21      22      20      21      21      22      20
      21      21      22      20      21      21      22      20      21      21
      22      20      21      21      22      20      21      21      22      20
      21      21      22      20      21      21      22      20      21      21
      22      20      21      21      22      20      21      21      22      20
      21      21      22      20      21      21      22      20      21      21
      22      20      21      21      22      20      21      21      22      20
      21      21      22      20      21      21      22      20      21      21
      22      20      21      21      22      20      21      21      22      20
      21      21      22      20      21      21      22      20      21      21
      22      20      21      21      22      20      21      21      22      20
      21      21      22      20      21      21      22      20      21      21
      22      20      21      21      22      20      21      21      22      20
      21      21      22      20      21      21      22      20      21      21
      22      20      21      21      22      20      21      21      22      20
      21      21      22      20      21      21      22      20      21      21
      22      20      21      21      22      20      21      21      22      20
      21      21      22      20      21      21      22      20      21      21
      22      20      21      21      22      20      21      21      22      20
      21      21      22      20      21      21      22      20      21      21
      22      20      21      21      22      20      21      21      22      20
      21      21      22      20      21      21      22      20      21      21
      22      20      21      21      22      20      21      21      22      20
      21      21      22      20      21      21      22      20      21      21
      22      20      21      21      22      20      21      21      22      20
      21      21      22      20      21      21      22      20      21      21
      22      20      21      21      22      20      21      21      22      20
      21      21      22      20      21      21      22      20      21      21
      22      20      21      21      22      20      21      21      22      20
      21      21      22      20      21      21      22      20      21      21
      22      20      21      21      22      20      21      21      22      20
      21      21      22      20      21      21      22      20      21      21
      22      20      21      21      22      20      21      21      22      20
      21      21      22      20      21      21      22      20      21      21
      22      20      21      21      22      20      21      21      22      20
      21      21      22      20      21      21      22      20      21      21
      22      20      21      21      22      20      21      21      22      20
      21      21      22      20      21      21      22      20      21      21
      22      20      21      21      22      20      21      21      22      20
      21      21      22      20      21      21      22      20      21      21
      22      20      21      21      22      20      21      21      22      20
      21      21      22      20      21      21      22      20      21      21
      22      20      21      21      22      20      21      21      22      20
      21      21      22      20      21      21      22      20      21      21
      22      20      21      21      22      20      21      21      22      20
      21      21      22      20      21      21      22      20      21      21
      22      20      21      21      22      20      21      21      22      20
      21      21      22      20      21      21      22      20      21      21
      22      20      21      21      22      20      21      21      22      20
      21      21      22      20      21      21      22      20      21      21
      22      20      21      21      22      20      21      21      22      20
      21      21      22      20      21      21      22      20      21      21
      22      20      21      21      22      20      21      21      22      20
      21      21      22      20      21      21      22      20      21      21
      22      20      21      21      22      20      21      21      22      20
      21      21      22      20      21      21      22      20      21      21
      22      20      21      21      22      20      21      21      22      20
      21      21      22      20      21      21      22      20      21      21
      22      20      21      21      22      20      21      21      22      20
      21      21      22      20      21      21      22      20      21      21
      22      20      21      21      22      20      21      21      22      20
      21      21      22      20      21      21      22      20      21      21
      22      20      21      21      22      20      21      21      22      20
      21      21      22      20      21      21      22      20      21      21
      22      20      21      21      22      20      21      21      22      20
      21      21      22      20      21      21      22      20      21      21
      22      20      21      21      22      20      21      21      22      20
      21      21      22      20      21      21      22      20      21      21
      22      20      21      21      22      20      21      21      22      20
      21      21      22      20      21      21      22      20      21      21
      22      20      21      21      22      20      21      21      22      20
      21      21      22      20      21      21      22      20      21      21
      22      20      21      21      22      20      21      21      22      20
      21      21      22      20      21      21      22      20      21      21
      22      20      21      21      22      20      21      21      22      20
      21      21      22      20      21      21      22      20      21      21
      22      20      21      21      22      20      21      21      22      20
      21      21      22      20      21      21      22      20      21      21
      22      20      21      21      22      20      21      21      22      20
      21      21      22      20      21      21      22      20      21      21
      22      20      21      21      22      20      21      21      22      20
      21      21      22      20      21      21      22      20      21      21
      22      20      21      21      22      20      21      21      22      20
      21      21      22      20      21      21      22      20      21      21
      22      20      21      21      22      20      21      21      22      20
      21      21      22      20      21      21      22      20      21      21
      22      20      21      21      22      20      21      21      22      20
      21      21      22      20      21      21      22      20      21      21
      22      20      21      21      22      20      21      21      22      20
      21      21      22      20      21      21      22      20      21      21
      22      20      21      21      22      20      21      21      22      20
      21      21      22      20      21      21      22      20      21      21
      22      20      21      21      22      20      21      21      22      20
      21      21      22      20      21      21      22      20      21      21
      22      20      21      21      22      20      21      21      22      20
      21      21      22      20      21      21      22      20      21      21
      22      20      21      21      22      20      21      21      22      20
      21      21      22      20      21      21      22      20      21      21
      22      20      21      21      22      20      21      21      22      20
      21      21      22      20      21      21      22      20      21      21
      22      20      21      21      22      20      21      21      22      20
      21      21      22      20      21      21      22      20      21      21
      22      20      21      21      22      20      21      21      22      20
      21      21      22      20      21      21      22      20      21      21
      22      20      21      21      22      20      21      21      22      20
      21      21      22      20      21      21      22      20      21      21
      22      20      21      21      22      20      21      21      22      20
      21      21      22      20      21      21      22      20      21      21
      22      20      21      21      22      20      21      21      22      20
      21      21      22      20      21      21      22      20      21      21
      22      20      21      21      22      20      21      21      22      20
      21      21      22      20      21      21      22      20      21      21
      22      20      21      21      22      20      21      21      22      20
      21      21      22      20      21      21      22      20      21      21
      22      20      21      21      22      20      21      21      22      20
      21      21      22      20      21      21      22      20      21      21
      22      20      21      21      22      20      21      21      22      20
      21      21      22      20      21      21      22      20      21      21
      22      20      21      21      22      20      21      21      22      20
      21      21      22      20      21      21      22      20      21      21
      22      20      21      21      22      20      21      21      22      20
      21      21      22      20      21      21      22      20      21      21
      22      20      21      21      22      20      21      21      22      20
      21      21      22      20      21      21      22      20      21      21
      22      20      21      21      22      20      21      21      22      20
      21      21      22      20      21      21      22      20      21      21
      22      20      21      21      22      20      21      21      22      20
      21      21      22      20      21      21      22      20      21      21
      22      20      21      21      22      20      21      21      22      20
      21      21      22      20      21      21      22      20      21      21
      22      20      21      21      22      20      21      21      22      20
      21      21      22      20      21      21      22      20      21      21
      22      20      21      21      22      20      21      21      22      20
      21      21      22      20      21      21      22      20      21      21
      22      20      21      21      22      20      21      21      22      20
      21      21      22      20      21      21      22      20      21      21
      22      20      21      21      22      20      21      21      22      20
      21      21      22      20      21      21      22      20      21      21
      22      20      21      21      22      20      21      21      22      20
      21      21      22      20      21      21      22      20      21      21
      22      20      21      21      22      20      21      21      22      20
      21      21      22      20      21      21      22      20      21      21
      22      20      21      21      22      20      21      21      22      20
      21      21      22      20      21      21      22      20      21      21
      22      20      21      21      22      20      21      21      22      20
      21      21      22      20      21      21      22      20      21      21
      22      20      21      21      22      20      21      21      22      20
      21      21      22      20      21      21      22      20      21      21
      22      20      21      21      22      20      21      21      22      20
      21      21      22      20      21      21      22      20      21      21
      22      20      21      21      22      20      21      21      22      20
      21      21      22      20      21      21      22      20      21      21
      22      20      21      21      22      20      21      21      22      20
      21      21      22      20      21      21      22      20      21      21
      22      20      21      21      22      20      21      21      22      20
      21      21      22      20      21      21      22      20      21      21
      22      20      21      21      22      20      21      21      22      20
      21      21      22      20      21      21      22      20      21      21
      22      20      21      21      22      20      21      21      22      20
      21      21      22      20      21      21      22      20      21      21
      22      20      21      21      22      20      21      21      22      20
      21      21      22      20      21      21      22      20      21      21
      22      20      21      21      22      20      21      21      22      20
      21      21      22      20      21      21      22      20      21      21
      22      20      21      21      22      20      21      21      22      20
      21      21      22      20      21      21      22      20      21      21
      22      20      21      21      22      20      21      21      22      20
      21      21      22      20      21      21      22      20      21      21
      22      20      21      21      22      20      21      21      22      20
      21      21      22      20      21      21      22      20      21      21
      22      20      21      21      22      20      21      21      22      20
      21      21      22      20      21      21      22      20      21      21
      22      20      21      21      22      20      21      21      22      20
      21      21      22      20      21      21      22      20      21      21
      22      20      21      21      22      20      21      21      22      20
      21      21      22      20      21      21      22      20      21      21
      22      20      21      21      22      20      21      21      22      20
      21      21      22      20      21      21      22      20      21      21
      22      20      21      21      22      20      21      21      22      20
      21      21      22      20      21      21      22      20      21      21
      22      20      21      21      22      20      21      21      22      20
      21      21      22      20      21      21      22      20      21      21
      22      20      21      21      22      20      21      21      22      20
      21      21      22      20      21      21      22      20      21      21
      22      20      21      21      22      20      21      21      22      20
      21      21      22      20      21      21      22      20      21      21
      22      20      21      21      22      20      21      21      22      20
      21      21      22      20      21      21      22      20      21      21
      22      20      21      21      22      20      21      21      22      20
      21      21      22      20      21      21      22      20      21      21
      22      20      21      21      22      20      21      21      22      20
      21      21      22      20      21      21      22      20      21      21
      22      20      21      21      22      20      21      21      22      20
      21      21      22      20      21      21      22      20      21      21
      22      20      21      21      22      20      21      21      22      20
      21      21      22      20      21      21      22      20      21      21
      22      20      21      21      22      20      21      21      22      20
      21      21      22      20      21      21      22      20      21      21
      22      20      21      21      22      20      21      21      22      20
      21      21      22      20      21      21      22      20      21      21
      22      20      21      21      22      20      21      21      22      20
      21      21      22      20      21      21      22      20      21      21
      22      20      21      21      22      20      21      21      22      20
      21      21      22      20      21      21      22      20      21      21
      22      20      21      21      22      20      21      21      22      20
      21      21      22      20      21      21      22      20      21      21
      22      20      21      21      22      20      21      21      22      20
      21      21      22      20      21      21      22      20      21      21
      22      20      21      21      22      20      21      21      22      20
      21      21      22      20      21      21      22      20      21      21
      22      20      21      21      22      20      21      21      22      20
      21      21      22      20      21      21      22      20      21      21
      22      20      21      21      22      20      21      21      22      20
      21      21      22      20      21      21      22      20      21      21
      22      20      21      21      22      20      21      21      22      20
      21      21      22      20      21      21      22      20      21      21
      22      20      21      21      22      20      21      21      22      20
      21      21      22      20      21      21      22      20      21      21
      22      20      21      21      22      20      21      21      22      20
      21      21      22      20      21      21      22      20      21      21
      22      20      21      21      22      20      21      21      22      20
      21      21      22      20      21      21      22      20      21      21
      22      20      21      21      22      20      21      21      22      20
      21      21      22      20      21      21      22      20      21      21
      22      20      21      21      22      20      21      21      22      20
      21      21      22      20      21      21      22      20      21      21
      22      20      21      21      22      20      21      21      22      20
      21      21      22      20      21      21      22      20      21      21
      22      20      21      21      22      20      21      21      22      20
      21      21      22      20      21      21      22      20      21      21
      22      20      21      21      22      20      21      21      22      20
      21      21      22      20      21      21      22      20      21      21
      22      20      21      21      22      20      21      21      22      20
      21      21      22      20      21      21      22      20      21      21
      22      20      21      21      22      20      21      21      22      20
      21      21      22      20      21      21      22      20      21      21
      22      20      21      21      22      20      21      21      22      20
      21      21      22      20      21      21      22      20      21      21
      22      20      21      21      22      20      21      21      22      20
      21      21      22      20      21      21      22      20      21      21
      22      20      21      21      22      20      21      21      22      20
      21      21      22      20      21      21      22      20      21      21
      22      20      21      21      22      20      21      21      22      20
      21      21      22      20      21      21      22      20      21      21
      22      20      21      21      22      20      21      21      22      20
      21      21      22      20      21      21      22      20      21      21
      22      20      21      21      22      20      21      21      22      20
      21      21      22      20      21      21      22      20      21      21
      22      20      21      21      22      20      21      21      22      20
      21      21      22      20      21      21      22      20      21      21
      22      20      21      21      22      20      21      21      22      20
      21      21      22      20      21      21      22      20      21      21
      22      20      21      21      22      20      21      21      22      20
      21      21      22      20      21      21      22      20      21      21
      22      20      21      21      22      20      21      21      22      20
      21      21      22      20      21      21      22      20      21      21
      22      20      21      21      22      20      21      21      22      20
      21      21      22      20      21      21      22      20      21      21
      22      20      21      21      22      20      21      21      22      20
      21      21      22      20      21      21      22      20      21      21
      22      20      21      21      22      20      21      21      22      20
      21      21      22      20      21      21      22      20      21      21
      22      20      21      21      22      20      21      21      22      20
      21      21      22      20      21      21      22      20      21      21
      22      20      21      21      22      20      21      21      22      20
      21      21      22      20      21      21      22      20      21      21
      22      20      21      21      22      20      21      21      22      20
      21      21      22      20      21      21      22      20      21      21
      22      20      21      21      22      20      21      21      22      20
      21      21      22      20      21      21      22      20      21      21
      22      20      21      21      22      20      21      21      22      20
      21      21      22      20      21      21      22      20      21      21
      22      20      21      21      22      20      21      21      22      20
      21      21      22      20      21      21      22      20      21      21
      22      20      21      21      22      20      21      21      22      20
      21      21      22      20      21      21      22      20      21      21
      22      20      21      21      22      20      21      21      22      20
      21      21      22      20      21      21      22      20      21      21
      22      20      21      21      22      20      21      21      22      20
      21      21      22      20      21      21      22      20      21      21
      22      20      21      21      22      20      21      21      22      20
      21      21      22      20      21      21      22      20      21      21
      22      20      21      21      22      20      21      21      22      20
      21      21      22      20      21      21      22      20      21      21
      22      20      21      21      22      20      21      21      22      20
      21      21      22      20      21      21      22      20      21      21
      22      20      21      21      22      20      21      21      22      20
      21      21      22      20      21      21      22      20      21      21
      22      20      21      21      22      20      21      21      22      20
      21      21      22      20      21      21      22      20      21      21
      22      20      21      21      22      20      21      21      22      20
      21      21      22      20      21      21      22      20      21      21
      22      20      21      21      22      20      21      21      22      20
      21      21      22      20      21      21      22      20      21      21
      22      20      21      21      22      20      21      21      22      20
      21      21      22      20      21      21      22      20      21      21
      22      20      21      21      22      20      21      21      22      20
      21      21      22      20      21      21      22      20      21      21
      22      20      21      21      22      20      21      21      22      20
      21      21      22      20      21      21      22      20      21      21
      22      20      21      21      22      20      21      21      22      20
      21      21      22      20      21      21      22      20      21      21
      22      20      21      21      22      20      21      21      22      20
      21      21      22      20      21      21      22      20      21      21
      22      20      21      21      22      20      21      21      22      20
      21      21      22      20      21      21      22      20      21      21
      22      20      21      21      22      20      21      21      22      20
      21      21      22      20      21      21      22      20      21      21
      22      20      21      21      22      20      21      21      22      20
      21      21      22      20      21      21      22      20      21      21
      22      20      21      21      22      20      21      21      22      20
      21      21      22      20      21      21      22      20      21      21
      22      20      21      21      22      20      21      21      22      20
      21      21      22      20      21      21      22      20      21      21
      22      20      21      21      22      20      21      21      22      20
      21      21      22      20      21      21      22      20      21      21
      22      20      21      21      22      20      21      21      22      20
      21      21      22      20      21      21      22      20      21      21
      22      20      21      21      22      20      21      21      22      20
      21      21      22      20      21      21      22      20      21      21
      22      20      21      21      22      20      21      21      22      20
      21      21      22      20      21      21      22      20      21      21
      22      20      21      21      22      20      21      21      22      20
      21      21      22      20      21      21      22      20      21      21
      22      20      21      21      22      20      21      21      22      20
      21      21      22      20      21      21      22      20      21      21
      22      20      21      21      22      20      21      21      22      20
      21      21      22      20      21      21      22      20      21      21
      22      20      21      21      22      20      21      21      22      20
      21      21      22      20      21      21      22      20      21      21
      22      20      21      21      22      20      21      21      22      20
      21      21      22      20      21      21      22      20      21      21
      22      20      21      21      22      20      21      21      22      20
      21      21      22      20      21      21      22      20      21      21
      22      20      21      21      22      20      21      21      22      20
      21      21      22      20      21      21      22      20      21      21
      22      20      21      21      22      20      21      21      22      20
      21      21      22      20      21      21      22      20      21      21
      22      20      21      21      22      20      21      21      22      20
      21      21      22      20      21      21      22      20      21      21
      22      20      21      21      22      20      21      21      22      20
      21      21      22      20      21      21      22      20      21      21
      22      20      21      21      22      20      21      21      22      20
      21      21      22      20      21      21      22      20      21      21
      22      20      21      21      22      20      21      21      22      20
      21      21      22      20      21      21      22      20      21      21
      22      20      21      21      22      20      21      21      22      20
      21      21      22      20      21      21      22      20      21      21
      22      20      21      21      22      20      21      21      22      20
      21      21      22      20      21      21      22      20      21      21
      22      20      21      21      22      20      21      21      22      20
      21      21      22      20      21      21      22      20      21      21
      22      20      21      21      22      20      21      21      22      20
      21      21      22      20      21      21      22      20      21      21
      22      20      21      21      22      20      21      21      22      20
      21      21      22      20      21      21      22      20      21      21
      22      20      21      21      22      20      21      21      22      20
      21      21      22      20      21      21      22      20      21      21
      22      20      21      21      22      20      21      21      22      20
      21      21      22      20      21      21      22      20      21      21
      22      20      21      21      22      20      21      21      22      20
      21      21      22      20      21      21      22      20      21      21
      22      20      21      21      22      20      21      21      22      20
      21      21      22      20      21      21      22      20      21      21
      22      20      21      21      22      20      21      21      22      20
      21      21      22      20      21      21      22      20      21      21
      22      20      21      21      22      20      21      21      22      20
      21      21      22      20      21      21      22      20      21      21
      22      20      21      21      22      20      21      21      22      20
      21      21      22      20      21      21      22      20      21      21
      22      20      21      21      22      20      21      21      22      20
      21      21      22      20      21      21      22      20      21      21
      22      20      21      21      22      20      21      21      22      20
      21      21      22      20      21      21      22      20      21      21
      22      20      21      21      22      20      21      21      22      20
      21      21      22      20      21      21      22      20      21      21
      22      20      21      21      22      20      21      21      22      20
      21      21      22      20      21      21      22      20      21      21
      22      20      21      21      22      20      21      21      22      20
      21      21      22      20      21      21      22      20      21      21
      22      20      21      21      22      20      21      21      22      20
      21      21      22      20      21      21      22      20      21      21
      22      20      21      21      22      20      21      21      22      20
      21      21      22      20      21      21      22      20      21      21
      22      20      21      21      22      20      21      21      22      20
      21      21      22      20      21      21      22      20      21      21
      22      20      21      21      22      20      21      21      22      20
      21      21      22      20      21      21      22      20      21      21
      22      20      21      21      22      20      21      21      22      20
      21      21      22      20      21      21      22      20      21      21
      22      20      21      21      22      20      21      21      22      20
      21      21      22      20      21      21      22      20      21      21
      22      20      21      21      22      20      21      21      22      20
      21      21      22      20      21      21      22      20      21      21
      22      20      21      21      22      20      21      21      22      20
      21      21      22      20      21      21      22      20      21      21
      22      20      21      21      22      20      21      21      22      20
      21      21      22      20      21      21      22      20      21      21
      22      20      21      21      22      20      21      21      22      20
      21      21      22      20      21      21      22      20      21      21
      22      20      21      21      22      20      21      21      22      20
      21      21      22      20      21      21      22      20      21      21
      22      20      21      21      22      20      21      21      22      20
      21      21      22      20      21      21      22      20      21      21
      22      20      21      21      22      20      21      21      22      20
      21      21      22      20      21      21      22      20      21      21
      22      20      21      21      22      20      21      21      22      20
      21      21      22      20      21      21      22      20      21      21
      22      20      21      21      22      20      21      21      22      20
      21      21      22      20      21      21      22      20      21      21
      22      20      21      21      22      20      21      21      22      20
      21      21      22      20      21      21      22      20      21      21
      22      20      21      21      22      20      21      21      22      20
      21      21      22      20      21      21      22      20      21      21
      22      20      21      21      22      20      21      21      22      20
      21      21      22      20      21      21      22      20      21      21
      22      20      21      21      22      20      21      21      22      20
      21      21      22      20      21      21      22      20      21      21
      22      20      21      21      22      20      21      21      22      20
      21      21      22      20      21      21      22      20      21      21
      22      20      21      21      22      20      21      21      22      20
      21      21      22      20      21      21      22      20      21      21
      22      20      21      21      22      20      21      21      22      20
      21      21      22      20      21      21      22      20      21      21
      22      20      21      21      22      20      21      21      22      20
      21      21      22      20      21      21      22      20      21      21
      22      20      21      21      22      20      21      21      22      20
      21      21      22      20      21      21      22      20      21      21
      22      20      21      21      22      20      21      21      22      20
      21      21      22      20      21      21      22      20      21      21
      22      20      21      21      22      20      21      21      22      20
      21      21      22      20      21      21      22      20      21      21
      22      20      21      21      22      20      21      21      22      20
      21      21      22      20      21      21      22      20      21      21
      22      20      21      21      22      20      21      21      22      20
      21      21      22      20      21      21      22      20      21      21
      22      20      21      21      22      20      21      21      22      20
      21      21      22      20      21      21      22      20      21      21
      22      20      21      21      22      20      21      21      22      20
      21      21      22      20      21      21      22      20      21      21
      22      20      21      21      22      20      21      21      22      20
      21      21      22      20      21      21      22      20      21      21
      22      20      21      21      22      20      21      21      22      20
      21      21      22      20      21      21      22      20      21      21
      22      20      21      21      22      20      21      21      22      20
      21      21      22      20      21      21      22      20      21      21
      22      20      21      21      22      20      21      21      22      20
      21      21      22      20      21      21      22      20      21      21
      22      20      21      21      22      20      21      21      22      20
      21      21      22      20      21      21      22      20      21      21
      22      20      21      21      22      20      21      21      22      20
      21      21      22      20      21      21      22      20      21      21
      22      20      21      21      22      20      21      21      22      20
      21      21      22      20      21      21      22      20      21      21
      22      20      21      21      22      20      21      21      22      20
      21      21      22      20      21      21      22      20      21      21
      22      20      21      21      22      20      21      21      22      20
      21      21      22      20      21      21      22      20      21      21
      22      20      21      21      22      20      21      21      22      20
      21      21      22      20      21      21      22      20      21      21
      22      20      21      21      22      20      21      21      22      20
      21      21      22      20      21      21      22      20      21      21
      22      20      21      21      22      20      21      21      22      20
      21      21      22      20      21      21      22      20      21      21
      22      20      21      21      22      20      21      21      22      20
      21      21      22      20      21      21      22      20      21      21
      22      20      21      21      22      20      21      21      22      20
      21      21      22      20      21      21      22      20      21      21
      22      20      21      21      22      20      21      21      22      20
      21      21      22      20      21      21      22      20      21      21
      22      20      21      21      22      20      21      21      22      20
      21      21      22      20      21      21      22      20      21      21
      22      20      21      21      22      20      21      21      22      20
      21      21      22      20      21      21      22      20      21      21
      22      20      21      21      22      20      21      21      22      20
      21      21      22      20      21      21      22      20      21      21
      22      20      21      21      22      20      21      21      22      20
      21      21      22      20      21      21      22      20      21      21
      22      20      21      21      22      20      21      21      22      20
      21      21      22      20      21      21      22      20      21      21
      22      20      21      21      22      20      21      21      22      20
      21      21      22      20      21      21      22      20      21      21
      22      20      21      21      22      20      21      21      22      20
      21      21      22      20      21      21      22      20      21      21
      22      20      21      21      22      20      21      21      22      20
      21      21      22      20      21      21      22      20      21      21
      22      20      21      21      22      20      21      21      22      20
      21      21      22      20      21      21      22      20      21      21
      22      20      21      21      22      20      21      21      22      20
      21      21      22      20      21      21      22      20      21      21
      22      20      21      21      22      20      21      21      22      20
      21      21      22      20      21      21      22      20      21      21
      22      20      21      21      22      20      21      21      22      20
      21      21      22      20      21      21      22      20      21      21
      22      20      21      21      22      20      21      21      22      20
      21      21      22      20      21      21      22      20      21      21
      22      20      21      21      22      20      21      21      22      20
      21      21      22      20      21      21      22      20      21      21
      22      20      21      21      22      20      21      21      22      20
      21      21      22      20      21      21      22      20      21      21
      22      20      21      21      22      20      21      21      22      20
      21      21      22      20      21      21      22      20      21      21
      22      20      21      21      22      20      21      21      22      20
      21      21      22      20      21      21      22      20      21      21
      22      20      21      21      22      20      21      21      22      20
      21      21      22      20      21      21      22      20      21      21
      22      20      21      21      22      20      21      21      22      20
      21      21      22      20      21      21      22      20      21      21
      22      20      21      21      22      20      21      21      22      20
      21      21      22      20      21      21      22      20      21      21
      22      20      21      21      22      20      21      21      22      20
      21      21      22      20      21      21      22      20      21      21
      22      20      21      21      22      20      21      21      22      20
      21      21      22      20      21      21      22      20      21      21
      22      20      21      21      22      20      21      21      22      20
      21      21      22      20      21      21      22      20      21      21
      22      20      21      21      22      20      21      21      22      20
      21      21      22      20      21      21      22      20      21      21
      22      20      21      21      22      20      21      21      22      20
      21      21      22      20      21      21      22      20      21      21
      22      20      21      21      22      20      21      21      22      20
      21      21      22      20      21      21      22      20      21      21
      22      20      21      21      22      20      21      21      22      20
      21      21      22      20      21      21      22      20      21      21
      22      20      21      21      22      20      21      21      22      20
      21      21      22      20      21      21      22      20      21      21
      22      20      21      21      22      20      21      21      22      20
      21      21      22      20      21      21      22      20      21      21
      22      20      21      21      22      20      21      21      22      20
      21      21      22      20      21      21      22      20      21      21
      22      20      21      21      22      20      21      21      22      20
      21      21      22      20      21      21      22      20      21      21
      22      20      21      21      22      20      21      21      22      20
      21      21      22      20      21      21      22      20      21      21
      22      20      21      21      22      20      21      21      22      20
      21      21      22      20      21      21      22      20      21      21
      22      20      21      21      22      20      21      21      22      20
      21      21      22      20      21      21      22      20      21      21
      22      20      21      21      22      20      21      21      22      20
      21      21      22      20      21      21      22      20      21      21
      22      20      21      21      22      20      21      21      22      20
      21      21      22      20      21      21      22      20      21      21
      22      20      21      21      22      20      21      21      22      20
      21      21      22      20      21      21      22      20      21      21
      22      20      21      21      22      20      21      21      22      20
      21      21      22      20      21      21      22      20      21      21
      22      20      21      21      22      20      21      21      22      20
      21      21      22      20      21      21      22      20      21      21
      22      20      21      21      22      20      21      21      22      20
      21      21      22      20      21      21      22      20      21      21
      22      20      21      21      22      20      21      21      22      20
      21      21      22      20      21      21      22      20      21      21
      22      20      21      21      22      20      21      21      22      20
      21      21      22      20      21      21      22      20      21      21
      22      20      21      21      22      20      21      21      22      20
      21      21      22      20      21      21      22      20      21      21
      22      20      21      21      22      20      21      21      22      20
      21      21      22      20      21      21      22      20      21      21
      22      20      21      21      22      20      21      21      22      20
      21      21      22      20      21      21      22      20      21      21
      22      20      21      21      22      20      21      21      22      20
      21      21      22      20      21      21      22      20      21      21
      22      20      21      21      22      20      21      21      22      20
      21      21      22      20      21      21      22      20      21      21
      22      20      21      21      22      20      21      21      22      20
      21      21      22      20      21      21      22      20      21      21
      22      20      21      21      22      20      21      21      22      20
      21      21      22      20      21      21      22      20      21      21
      22      20      21      21      22      20      21      21      22      20
      21      21      22      20      21      21      22      20      21      21
      22      20      21      21      22      20      21      21      22      20
      21      21      22      20      21      21      22      20      21      21
      22      20      21      21      22      20      21      21      22      20
      21      21      22      20      21      21      22      20      21      21
      22      20      21      21      22      20      21      21      22      20
      21      21      22      20      21      21      22      20      21      21
      22      20      21      21      22      20      21      21      22      20
      21      21      22      20      21      21      22      20      21      21
      22      20      21      21      22      20      21      21      22      20
      21      21      22      20      21      21      22      20      21      21
      22      20      21      21      22      20      21      21      22      20
      21      21      22      20      21      21      22      20      21      21
      22      20      21      21      22      20      21      21      22      20
      21      21      22      20      21      21      22      20      21      21
      22      20      21      21      22      20      21      21      22      20
      21      21      22      20      21      21      22      20      21      21
      22      20      21      21      22      20      21      21      22      20
      21      21      22      20      21      21      22      20      21      21
      22      20      21      21      22      20      21      21      22      20
      21      21      22      20      21      21      22      20      21      21
      22      20      21      21      22      20      21      21      22      20
      21      21      22      20      21      21      22      20      21      21
      22      20      21      21      22      20      21      21      22      20
      21      21      22      20      21      21      22      20      21      21
      22      20      21      21      22      20      21      21      22      20
      21      21      22      20      21      21      22      20      21      21
      22      20      21      21      22      20      21      21      22      20
      21      21      22      20      21      21      22      20      21      21
      22      20      21      21      22      20      21      21      22      20
      21      21      22      20      21      21      22      20      21      21
      22      20      21      21      22      20      21      21      22      20
      21      21      22      20      21      21      22      20      21      21
      22      20      21      21      22      20      21      21      22      20
      21      21      22      20      21      21      22      20      21      21
      22      20      21      21      22      20      21      21      22      20
      21      21      22      20      21      21      22      20      21      21
      22      20      21      21      22      20      21      21      22      20
      21      21      22      20      21      21      22      20      21      21
      22      20      21      21      22      20      21      21      22      20
      21      21      22      20      21      21      22      20      21      21
      22      20      21      21      22      20      21      21      22      20
      21      21      22      20      21      21      22      20      21      21
      22      20      21      21      22      20      21      21      22      20
      21      21      22      20      21      21      22      20      21      21
      22      20      21      21      22      20      21      21      22      20
      21      21      22      20      21      21      22      20      21      21
      22      20      21      21      22      20      21      21      22      20
      21      21      22      20      21      21      22      20      21      21
      22      20      21      21      22      20      21      21      22      20
      21      21      22      20      21      21      22      20      21      21
      22      20      21      21      22      20      21      21      22      20
      21      21      22      20      21      21      22      20      21      21
      22      20      21      21      22      20      21      21      22      20
      21      21      22      20      21      21      22      20      21      21
      22      20      21      21      22      20      21      21      22      20
      21      21      22      20      21      21      22      20      21      21
      22      20      21      21      22      20      21      21      22      20
      21      21      22      20      21      21      22      20      21      21
      22      20      21      21      22      20      21      21      22      20
      21      21      22      20      21      21      22      20      21      21
      22      20      21      21      22      20      21      21      22      20
      21      21      22      20      21      21      22      20      21      21
      22      20      21      21      22      20      21      21      22      20
      21      21      22      20      21      21      22      20      21      21
      22      20      21      21      22      20      21      21      22      20
      21      21      22      20      21      21      22      20      21      21
      22      20      21      21      22      20      21      21      22      20
      21      21      22      20      21      21      22      20      21      21
      22      20      21      21      22      20      21      21      22      20
      21      21      22      20      21      21      22      20      21      21
      22      20      21      21      22      20      21      21      22      20
      21      21      22      20      21      21      22      20      21      21
      22      20      21      21      22      20      21      21      22      20
      21      21      22      20      21      21      22      20      21      21
      22      20      21      21      22      20      21      21      22      20
      21      21      22      20      21      21      22      20      21      21
      22      20      21      21      22      20      21      21      22      20
      21      21      22      20      21      21      22      20      21      21
      22      20      21      21      22      20      21      21      22      20
      21      21      22      20      21      21      22      20      21      21
      22      20      21      21      22      20      21      21      22      20
      21      21      22      20      21      21      22      20      21      21
      22      20      21      21      22      20      21      21      22      20
      21      21      22      20      21      21      22      20      21      21
      22      20      21      21      22      20      21      21      22      20
      21      21      22      20      21      21      22      20      21      21
      22      20      21      21      22      20      21      21      22      20
      21      21      22      20      21      21      22      20      21      21
      22      20      21      21      22      20      21      21      22      20
      21      21      22      20      21      21      22      20      21      21
      22      20      21      21      22      20      21      21      22      20
      21      21      22      20      21      21      22      20      21      21
      22      20      21      21      22      20      21      21      22      20
      21      21      22      20      21      21      22      20      21      21
      22      20      21      21      22      20      21      21      22      20
      21      21      22      20      21      21      22      20      21      21
      22      20      21      21      22      20      21      21      22      20
      21      21      22      20      21      21      22      20      21      21
      22      20      21      21      22      20      21      21      22      20
      21      21      22      20      21      21      22      20      21      21
      22      20      21      21      22      20      21      21      22      20
      21      21      22      20      21      21      22      20      21      21
      22      20      21      21      22      20      21      21      22      20
      21      21      22      20      21      21      22      20      21      21
      22      20      21      21      22      20      21      21      22      20
      21      21      22      20      21      21      22      20      21      21
      22      20      21      21      22      20      21      21      22      20
      21      21      22      20      21      21      22      20      21      21
      22      20      21      21      22      20      21      21      22      20
      21      21      22      20      21      21      22      20      21      21
      22      20      21      21      22      20      21      21      22      20
      21      21      22      20      21      21      22      20      21      21
      22      20      21      21      22      20      21      21      22      20
      21      21      22      20      21      21      22      20      21      21
      22      20      21      21      22      20      21      21      22      20
      21      21      22      20      21      21      22      20      21      21
      22      20      21      21      22      20      21      21      22      20
      21      21      22      20      21      21      22      20      21      21
      22      20      21      21      22      20      21      21      22      20
      21      21      22      20      21      21      22      20      21      21
      22      20      21      21      22      20      21      21      22      20
      21      21      22      20      21      21      22      20      21      21
      22      20      21      21      22      20      21      21      22      20
      21      21      22      20      21      21      22      20      21      21
      22      20      21      21      22      20      21      21      22      20
      21      21      22      20      21      21      22      20      21      21
      22      20      21      21      22      20      21      21      22      20
      21      21      22      20      21      21      22      20      21      21
      22      20      21      21      22      20      21      21      22      20
      21      21      22      20      21      21      22      20      21      21
      22      20      21      21      22      20      21      21      22      20
      21      21      22      20      21      21      22      20      21      21
      22      20      21      21      22      20      21      21      22      20
      21      21      22      20      21      21      22      20      21      21
      22      20      21      21      22      20      21      21      22      20
      21      21      22      20      21      21      22      20      21      21
      22      20      21      21      22      20      21      21      22      20
      21      21      22      20      21      21      22      20      21      21
      22      20      21      21      22      20      21      21      22      20
      21      21      22      20      21      21      22      20      21      21
      22      20      21      21      22      20      21      21      22      20
      21      21      22      20      21      21      22      20      21      21
      22      20      21      21      22      20      21      21      22      20
      21      21      22      20      21      21      22      20      21      21
      22      20      21      21      22      20      21      21      22      20
      21      21      22      20      21      21      22      20      21      21
      22      20      21      21      22      20      21      21      22      20
      21      21      22      20      21      21      22      20      21      21
      22      20      21      21      22      20      21      21      22      20
      21      21      22      20      21      21      22      20      21      21
      22      20      21      21      22      20      21      21      22      20
      21      21      22      20      21      21      22      20      21      21
      22      20      21      21      22      20      21      21      22      20
      21      21      22      20      21      21      22      20      21      21
      22      20      21      21      22      20      21      21      22      20
      21      21      22      20      21      21      22      20      21      21
      22      20      21      21      22      20      21      21      22      20
      21      21      22      20      21      21      22      20      21      21
      22      20      21      21      22      20      21      21      22      20
      21      21      22      20      21      21      22      20      21      21
      22      20      21      21      22      20      21      21      22      20
      21      21      22      20      21      21      22      20      21      21
      22      20      21      21      22      20      21      21      22      20
      21      21      22      20      21      21      22      20      21      21
      22      20      21      21      22      20      21      21      22      20
      21      21      22      20      21      21      22      20      21      21
      22      20      21      21      22      20      21      21      22      20
      21      21      22      20      21      21      22      20      21      21
      22      20      21      21      22      20      21      21      22      20
      21      21      22      20      21      21      22      20      21      21
      22      20      21      21      22      20      21      21      22      20
      21      21      22      20      21      21      22      20      21      21
      22      20      21      21      22      20      21      21      22      20
      21      21      22      20      21      21      22      20      21      21
      22      20      21      21      22      20      21      21      22      20
      21      21      22      20      21      21      22      20      21      21
      22      20      21      21      22      20      21      21      22      20
      21      21      22      20      21      21      22      20      21      21
      22      20      21      21      22      20      21      21      22      20
      21      21      22      20      21      21      22      20      21      21
      22      20      21      21      22      20      21      21      22      20
      21      21      22      20      21      21      22      20      21      21
      22      20      21      21      22      20      21      21      22      20
      21      21      22      20      21      21      22      20      21      21
      22      20      21      21      22      20      21      21      22      20
      21      21      22      20      21      21      22      20      21      21
      22      20      21      21      22      20      21      21      22      20
      21      21      22      20      21      21      22      20      21      21
      22      20      21      21      22      20      21      21      22      20
      21      21      22      20      21      21      22      20      21      21
      22      20      21      21      22      20      21      21      22      20
      21      21      22      20      21      21      22      20      21      21
      22      20      21      21      22      20      21      21      22      20
      21      21      22      20      21      21      22      20      21      21
      22      20      21      21      22      20      21      21      22      20
      21      21      22      20      21      21      22      20      21      21
      22      20      21      21      22      20      21      21      22      20
      21      21      22      20      21      21      22      20      21      21
      22      20      21      21      22      20      21      21      22      20
      21      21      22      20      21      21      22      20      21      21
      22      20      21      21      22      20      21      21      22      20
      21      21      22      20      21      21      22      20      21      21
      22      20      21      21      22      20      21      21      22      20
      21      21      22      20      21      21      22      20      21      21
      22      20      21      21      22      20      21      21      22      20
      21      21      22      20      21      21      22      20      21      21
      22      20      21      21      22      20      21      21      22      20
      21      21      22      20      21      21      22      20      21      21
      22      20      21      21      22      20      21      21      22      20
      21      21      22      20      21      21      22      20      21      21
      22      20      21      21      22      20      21      21      22      20
      21      21      22      20      21      21      22      20      21      21
      22      20      21      21      22      20      21      21      22      20
      21      21      22      20      21      21      22      20      21      21
      22      20      21      21      22      20      21      21      22      20
      21      21      22      20      21      21      22      20      21      21
      22      20      21      21      22      20      21      21      22      20
      21      21      22      20      21      21      22      20      21      21
      22      20      21      21      22      20      21      21      22      20
      21      21      22      20      21      21      22      20      21      21
      22      20      21      21      22      20      21      21      22      20
      21      21      22      20      21      21      22      20      21      21
      22      20      21      21      22      20      21      21      22      20
      21      21      22      20      21      21      22      20      21      21
      22      20      21      21      22      20      21      21      22      20
      21      21      22      20      21      21      22      20      21      21
      22      20      21      21      22      20      21      21      22      20
      21      21      22      20      21      21      22      20      21      21
      22      20      21      21      22      20      21      21      22      20
      21      21      22      20      21      21      22      20      21      21
      22      20      21      21      22      20      21      21      22      20
      21      21      22      20      21      21      22      20      21      21
      22      20      21      21      22      20      21      21      22      20
      21      21      22      20      21      21      22      20      21      21
      22      20      21      21      22      20      21      21      22      20
      21      21      22      20      21      21      22      20      21      21
      22      20      21      21      22      20      21      21      22      20
      21      21      22      20      21      21      22      20      21      21
      22      20      21      21      22      20      21      21      22      20
      21      21      22      20      21      21      22      20      21      21
      22      20      21      21      22      20      21      21      22      20
      21      21      22      20      21      21      22      20      21      21
      22      20      21      21      22      20      21      21      22      20
      21      21      22      20      21      21      22      20      21      21
      22      20      21      21      22      20      21      21      22      20
      21      21      22      20      21      21      22      20      21      21
      22      20      21      21      22      20      21      21      22      20
      21      21      22      20      21      21      22      20      21      21
      22      20      21      21      22      20      21      21      22      20
      21      21      22      20      21      21      22      20      21      21
      22      20      21      21      22      20      21      21      22      20
      21      21      22      20      21      21      22      20      21      21
      22      20      21      21      22      20      21      21      22      20
      21      21      22      20      21      21      22      20      21      21
      22      20      21      21      22      20      21      21      22      20
      21      21      22      20      21      21      22      20      21      21
      22      20      21      21      22      20      21      21      22      20
      21      21      22      20      21      21      22      20      21      21
      22      20      21      21      22      20      21      21      22      20
      21      21      22      20      21      21      22      20      21      21
      22      20      21      21      22      20      21      21      22      20
      21      21      22      20      21      21      22      20      21      21
      22      20      21      21      22      20      21      21      22      20
      21      21      22      20      21      21      22      20      21      21
      22      20      21      21      22      20      21      21      22      20
      21      21      22      20      21      21      22      20      21      21
      22      20      21      21      22      20      21      21      22      20
      21      21      22      20      21      21      22      20      21      21
      22      20      21      21      22      20      21      21      22      20
      21      21      22      20      21      21      22      20      21      21
      22      20      21      21      22      20      21      21      22      20
      21      21      22      20      21      21      22      20      21      21
      22      20      21      21      22      20      21      21      22      20
      21      21      22      20      21      21      22      20      21      21
      22      20      21      21      22      20      21      21      22      20
      21      21      22      20      21      21      22      20      21      21
      22      20      21      21      22      20      21      21      22      20
      21      21      22      20      21      21      22      20      21      21
      22      20      21      21      22      20      21      21      22      20
      21      21      22      20      21      21      22      20      21      21
      22      20      21      21      22      20      21      21      22      20
      21      21      22      20      21      21      22      20      21      21
      22      20      21      21      22      20      21      21      22      20
      21      21      22      20      21      21      22      20      21      21
      22      20      21      21      22      20      21      21      22      20
      21      21      22      20      21      21      22      20      21      21
      22      20      21      21      22      20      21      21      22      20
      21      21      22      20      21      21      22      20      21      21
      22      20      21      21      22      20      21      21      22      20
      21      21      22      20      21      21      22      20      21      21
      22      20      21      21      22      20      21      21      22      20
      21      21      22      20      21      21      22      20      21      21
      22      20      21      21      22      20      21      21      22      20
      21      21      22      20      21      21      22      20      21      21
      22      20      21      21      22      20      21      21      22      20
      21      21      22      20      21      21      22      20      21      21
      22      20      21      21      22      20      21      21      22      20
      21      21      22      20      21      21      22      20      21      21
      22      20      21      21      22      20      21      21      22      20
      21      21      22      20      21      21      22      20      21      21
      22      20      21      21      22      20      21      21      22      20
      21      21      22      20      21      21      22      20      21      21
      22      20      21      21      22      20      21      21      22      20
      21      21      22      20      21      21      22      20      21      21
      22      20      21      21      22      20      21      21      22      20
      21      21      22      20      21      21      22      20      21      21
      22      20      21      21      22      20      21      21      22      20
      21      21      22      20      21      21      22      20      21      21
      22      20      21      21      22      20      21      21      22      20
      21      21      22      20      21      21      22      20      21      21
      22      20      21      21      22      20      21      21      22      20
      21      21      22      20      21      21      22      20      21      21
      22      20      21      21      22      20      21      21      22      20
      21      21      22      20      21      21      22      20      21      21
      22      20      21      21      22      20      21      21      22      20
      21      21      22      20      21      21      22      20      21      21
      22      20      21      21      22      20      21      21      22      20
      21      21      22      20      21      21      22      20      21      21
      22      20      21      21      22      20      21      21      22      20
      21      21      22      20      21      21      22      20      21      21
      22      20      21      21      22      20      21      21      22      20
      21      21      22      20      21      21      22      20      21      21
      22      20      21      21      22      20      21      21      22      20
      21      21      22      20      21      21      22      20      21      21
      22      20      21      21      22      20      21      21      22      20
      21      21      22      20      21      21      22      20      21      21
      22      20      21      21      22      20      21      21      22      20
      21      21      22      20      21      21      22      20      21      21
      22      20      21      21      22      20      21      21      22      20
      21      21      22      20      21      21      22      20      21      21
      22      20      21      21      22      20      21      21      22      20
      21      21      22      20      21      21      22      20      21      21
      22      20      21      21      22      20      21      21      22      20
      21      21      22      20      21      21      22      20      21      21
      22      20      21      21      22      20      21      21      22      20
      21      21      22      20      21      21      22      20      21      21
      22      20      21      21      22      20      21      21      22      20
      21      21      22      20      21      21      22      20      21      21
      22      20      21      21      22      20      21      21      22      20
      21      21      22      20      21      21      22      20      21      21
      22      20      21      21      22      20      21      21      22      20
      21      21      22      20      21      21      22      20      21      21
      22      20      21      21      22      20      21      21      22      20
      21      21      22      20      21      21      22      20      21      21
      22      20      21      21      22      20      21      21      22      20
      21      21      22      20      21      21      22      20      21      21
      22      20      21      21      22      20      21      21      22      20
      21      21      22      20      21      21      22      20      21      21
      22      20      21      21      22      20      21      21      22      20
      21      21      22      20      21      21      22      20      21      21
      22      20      21      21      22      20      21      21      22      20
      21      21      22      20      21      21      22      20      21      21
      22      20      21      21      22      20      21      21      22      20
      21      21      22      20      21      21      22      20      21      21
      22      20      21      21      22      20      21      21      22      20
      21      21      22      20      21      21      22      20      21      21
      22      20      21      21      22      20      21      21      22      20
      21      21      22      20      21      21      22      20      21      21
      22      20      21      21      22      20      21      21      22      20
      21      21      22      20      21      21      22      20      21      21
      22      20      21      21      22      20      21      21      22      20
      21      21      22      20      21      21      22      20      21      21
      22      20      21      21      22      20      21      21      22      20
      21      21      22      20      21      21      22      20      21      21
      22      20      21      21      22      20      21      21      22      20
      21      21      22      20      21      21      22      20      21      21
      22      20      21      21      22      20      21      21      22      20
      21      21      22      20      21      21      22      20      21      21
      22      20      21      21      22      20      21      21      22      20
      21      21      22      20      21      21      22      20      21      21
      22      20      21      21      22      20      21      21      22      20
      21      21      22      20      21      21      22      20      21      21
      22      20      21      21      22      20      21      21      22      20
      21      21      22      20      21      21      22      20      21      21
      22      20      21      21      22      20      21      21      22      20
      21      21      22      20      21      21      22      20      21      21
      22      20      21      21      22      20      21      21      22      20
      21      21      22      20      21      21      22      20      21      21
      22      20      21      21      22      20      21      21      22      20
      21      21      22      20      21      21      22      20      21      21
      22      20      21      21      22      20      21      21      22      20
      21      21      22      20      21      21      22      20      21      21
      22      20      21      21      22      20      21      21      22      20
      21      21      22      20      21      21      22      20      21      21
      22      20      21      21      22      20      21      21      22      20
      21      21      22      20      21      21      22      20      21      21
      22      20      21      21      22      20      21      21      22      20
      21      21      22      20      21      21      22      20      21      21
      22      20      21      21      22      20      21      21      22      20
      21      21      22      20      21      21      22      20      21      21
      22      20      21      21      22      20      21      21      22      20
      21      21      22      20      21      21      22      20      21      21
      22      20      21      21      22      20      21      21      22      20
      21      21      22      20      21      21      22      20      21      21
      22      20      21      21      22      20      21      21      22      20
      21      21      22      20      21      21      22      20      21      21
      22      20      21      21      22      20      21      21      22      20
      21      21      22      20      21      21      22      20      21      21
      22      20      21      21      22      20      21      21      22      20
      21      21      22      20      21      21      22      20      21      21
      22      20      21      21      22      20      21      21      22      20
      21      21      22      20      21      21      22      20      21      21
      22      20      21      21      22      20      21      21      22      20
      21      21      22      20      21      21      22      20      21      21
      22      20      21      21      22      20      21      21      22      20
      21      21      22      20      21      21      22      20      21      21
      22      20      21      21      22      20      21      21      22      20
      21      21      22      20      21      21      22      20      21      21
      22      20      21      21      22      20      21      21      22      20
      21      21      22      20      21      21      22      20      21      21
      22      20      21      21      22      20      21      21      22      20
      21      21      22      20      21      21      22      20      21      21
      22      20      21      21      22      20      21      21      22      20
      21      21      22      20      21      21      22      20      21      21
      22      20      21      21      22      20      21      21      22      20
      21      21      22      20      21      21      22      20      21      21
      22      20      21      21      22      20      21      21      22      20
      21      21      22      20      21      21      22      20      21      21
      22      20      21      21      22      20      21      21      22      20
      21      21      22      20      21      21      22      20      21      21
      22      20      21      21      22      20      21      21      22      20
      21      21      22      20      21      21      22      20      21      21
      22      20      21      21      22      20      21      21      22      20
      21      21      22      20      21      21      22      20      21      21
      22      20      21      21      22      20      21      21      22      20
      21      21      22      20      21      21      22      20      21      21
      22      20      21      21      22      20      21      21      22      20
      21      21      22      20      21      21      22      20      21      21
      22      20      21      21      22      20      21      21      22      20
      21      21      22      20      21      21      22      20      21      21
      22      20      21      21      22      20      21      21      22      20
      21      21      22      20      21      21      22      20      21      21
      22      20      21      21      22      20      21      21      22      20
      21      21      22      20      21      21      22      20      21      21
      22      20      21      21      22      20      21      21      22      20
      21      21      22      20      21      21      22      20      21      21
      22      20      21      21      22      20      21      21      22      20
      21      21      22      20      21      21      22      20      21      21
      22      20      21      21      22      20      21      21      22      20
      21      21      22      20      21      21      22      20      21      21
      22      20      21      21      22      20      21      21      22      20
      21      21      22      20      21      21      22      20      21      21
      22      20      21      21      22      20      21      21      22      20
      21      21      22      20      21      21      22      20      21      21
      22      20      21      21      22      20      21      21      22      20
      21      21      22      20      21      21      22      20      21      21
      22      20      21      21      22      20      21      21      22      20
      21      21      22      20      21      21      22      20      21      21
      22      20      21      21      22      20      21      21      22      20
      21      21      22      20      21      21      22      20      21      21
      22      20      21      21      22      20      21      21      22      20
      21      21      22      20      21      21      22      20      21      21
      22      20      21      21      22      20      21      21      22      20
      21      21      22      20      21      21      22      20      21      21
      22      20      21      21      22      20      21      21      22      20
      21      21      22      20      21      21      22      20      21      21
      22      20      21      21      22      20      21      21      22      20
      21      21      22      20      21      21      22      20      21      21
      22      20      21      21      22      20      21      21      22      20
      21      21      22      20      21      21      22      20      21      21
      22      20      21      21      22      20      21      21      22      20
      21      21      22      20      21      21      22      20      21      21
      22      20      21      21      22      20      21      21      22      20
      21      21      22      20      21      21      22      20      21      21
      22      20      21      21      22      20      21      21      22      20
      21      21      22      20      21      21      22      20      21      21
      22      20      21      21      22      20      21      21      22      20
      21      21      22      20      21      21      22      20      21      21
      22      20      21      21      22      20      21      21      22      20
      21      21      22      20      21      21      22      20      21      21
      22      20      21      21      22      20      21      21      22      20
      21      21      22      20      21      21      22      20      21      21
      22      20      21      21      22      20      21      21      22      20
      21      21      22      20      21      21      22      20      21      21
      22      20      21      21      22      20      21      21      22      20
      21      21      22      20      21      21      22      20      21      21
      22      20      21      21      22      20      21      21      22      20
      21      21      22      20      21      21      22      20      21      21
      22      20      21      21      22      20      21      21      22      20
      21      21      22      20      21      21      22      20      21      21
      22      20      21      21      22      20      21      21      22      20
      21      21      22      20      21      21      22      20      21      21
      22      20      21      21      22      20      21      21      22      20
      21      21      22      20      21      21      22      20      21      21
      22      20      21      21      22      20      21      21      22      20
      21      21      22      20      21      21      22      20      21      21
      22      20      21      21      22      20      21      21      22      20
      21      21      22      20      21      21      22      20      21      21
      22      20      21      21      22      20      21      21      22      20
      21      21      22      20      21      21      22      20      21      21
      22      20      21      21      22      20      21      21      22      20
      21      21      22      20      21      21      22      20      21      21
      22      20      21      21      22      20      21      21      22      20
      21      21      22      20      21      21      22      20      21      21
      22      20      21      21      22      20      21      21      22      20
      21      21      22      20      21      21      22      20      21      21
      22      20      21      21      22      20      21      21      22      20
      21      21      22      20      21      21      22      20      21      21
      22      20      21      21      22      20      21      21      22      20
      21      21      22      20      21      21      22      20      21      21
      22      20      21      21      22      20      21      21      22      20
      21      21      22      20      21      21      22      20      21      21
      22      20      21      21      22      20      21      21      22      20
      21      21      22      20      21      21      22      20      21      21
      22      20      21      21      22      20      21      21      22      20
      21      21      22      20      21      21      22      20      21      21
      22      20      21      21      22      20      21      21      22      20
      21      21      22      20      21      21      22      20      21      21
      22      20      21      21      22      20      21      21      22      20
      21      21      22      20      21      21      22      20      21      21
      22      20      21      21      22      20      21      21      22      20
      21      21      22      20      21      21      22      20      21      21
      22      20      21      21      22      20      21      21      22      20
      21      21      22      20      21      21      22      20      21      21
      22      20      21      21      22      20      21      21      22      20
      21      21      22      20      21      21      22      20      21      21
      22      20      21      21      22      20      21      21      22      20
      21      21      22      20      21      21      22      20      21      21
      22      20      21      21      22      20      21      21      22      20
      21      21      22      20      21      21      22      20      21      21
      22      20      21      21      22      20      21      21      22      20
      21      21      22      20      21      21      22      20      21      21
      22      20      21      21      22      20      21      21      22      20
      21      21      22      20      21      21      22      20      21      21
      22      20      21      21      22      20      21      21      22      20
      21      21      22      20      21      21      22      20      21      21
      22      20      21      21      22      20      21      21      22      20
      21      21      22      20      21      21      22      20      21      21
      22      20      21      21      22      20      21      21      22      20
      21      21      22      20      21      21      22      20      21      21
      22      20      21      21      22      20      21      21      22      20
      21      21      22      20      21      21      22      20      21      21
      22      20      21      21      22      20      21      21      22      20
      21      21      22      20      21      21      22      20      21      21
      22      20      21      21      22      20      21      21      22      20
      21      21      22      20      21      21      22      20      21      21
      22      20      21      21      22      20      21      21      22      20
      21      21      22      20      21      21      22      20      21      21
      22      20      21      21      22      20      21      21      22      20
      21      21      22      20      21      21      22      20      21      21
      22      20      21      21      22      20      21      21      22      20
      21      21      22      20      21      21      22      20      21      21
      22      20      21      21      22      20      21      21      22      20
      21      21      22      20      21      21      22      20      21      21
      22      20      21      21      22      20      21      21      22      20
      21      21      22      20      21      21      22      20      21      21
      22      20      21      21      22      20      21      21      22      20
      21      21      22      20      21      21      22      20      21      21
      22      20      21      21      22      20      21      21      22      20
      21      21      22      20      21      21      22      20      21      21
      22      20      21      21      22      20      21      21      22      20
      21      21      22      20      21      21      22      20      21      21
      22      20      21      21      22      20      21      21      22      20
      21      21      22      20      21      21      22      20      21      21
      22      20      21      21      22      20      21      21      22      20
      21      21      22      20      21      21      22      20      21      21
      22      20      21      21      22      20      21      21      22      20
      21      21      22      20      21      21      22      20      21      21
      22      20      21      21      22      20      21      21      22      20
      21      21      22      20      21      21      22      20      21      21
      22      20      21      21      22      20      21      21      22      20
      21      21      22      20      21      21      22      20      21      21
      22      20      21      21      22      20      21      21      22      20
      21      21      22      20      21      21      22      20      21      21
      22      20      21      21      22      20      21      21      22      20
      21      21      22      20      21      21      22      20      21      21
      22      20      21      21      22      20      21      21      22      20
      21      21      22      20      21      21      22      20      21      21
      22      20      21      21      22      20      21      21      22      20
      21      21      22      20      21      21      22      20      21      21
      22      20      21      21      22      20      21      21      22      20
      21      21      22      20      21      21      22      20      21      21
      22      20      21      21      22      20      21      21      22      20
      21      21      22      20      21      21      22      20      21      21
      22      20      21      21      22      20      21      21      22      20
      21      21      22      20      21      21      22      20      21      21
      22      20      21      21      22      20      21      21      22      20
      21      21      22      20      21      21      22      20      21      21
      22      20      21      21      22      20      21      21      22      20
      21      21      22      20      21      21      22      20      21      21
      22      20      21      21      22      20      21      21      22      20
      21      21      22      20      21      21      22      20      21      21
      22      20      21      21      22      20      21      21      22      20
      21      21      22      20      21      21      22      20      21      21
      22      20      21      21      22      20      21      21      22      20
      21      21      22      20      21      21      22      20      21      21
      22      20      21      21      22      20      21      21      22      20
      21      21      22      20      21      21      22      20      21      21
      22      20      21      21      22      20      21      21      22      20
      21      21      22      20      21      21      22      20      21      21
      22      20      21      21      22      20      21      21      22      20
      21      21      22      20      21      21      22      20      21      21
      22      20      21      21      22      20      21      21      22      20
      21      21      22      20      21      21      22      20      21      21
      22      20      21      21      22      20      21      21      22      20
      21      21      22      20      21      21      22      20      21      21
      22      20      21      21      22      20      21      21      22      20
      21      21      22      20      21      21      22      20      21      21
      22      20      21      21      22      20      21      21      22      20
      21      21      22      20      21      21      22      20      21      21
      22      20      21      21      22      20      21      21      22      20
      21      21      22      20      21      21      22      20      21      21
      22      20      21      21      22      20      21      21      22      20
      21      21      22      20      21      21      22      20      21      21
      22      20      21      21      22      20      21      21      22      20
      21      21      22      20      21      21      22      20      21      21
      22      20      21      21      22      20      21      21      22      20
      21      21      22      20      21      21      22      20      21      21
      22      20      21      21      22      20      21      21      22      20
      21      21      22      20      21      21      22      20      21      21
      22      20      21      21      22      20      21      21      22      20
      21      21      22      20      21      21      22      20      21      21
      22      20      21      21      22      20      21      21      22      20
      21      21      22      20      21      21      22      20      21      21
      22      20      21      21      22      20      21      21      22      20
      21      21      22      20      21      21      22      20      21      21
      22      20      21      21      22      20      21      21      22      20
      21      21      22      20      21      21      22      20      21      21
      22      20      21      21      22      20      21      21      22      20
      21      21      22      20      21      21      22      20      21      21
      22      20      21      21      22      20      21      21      22      20
      21      21      22      20      21      21      22      20      21      21
      22      20      21      21      22      20      21      21      22      20
      21      21      22      20      21      21      22      20      21      21
      22      20      21      21      22      20      21      21      22      20
      21      21      22      20      21      21      22      20      21      21
      22      20      21      21      22      20      21      21      22      20
      21      21      22      20      21      21      22      20      21      21
      22      20      21      21      22      20      21      21      22      20
      21      21      22      20      21      21      22      20      21      21
      22      20      21      21      22      20      21      21      22      20
      21      21      22      20      21      21      22      20      21      21
      22      20      21      21      22      20      21      21      22      20
      21      21      22      20      21      21      22      20      21      21
      22      20      21      21      22      20      21      21      22      20
      21      21      22      20      21      21      22      20      21      21
      22      20      21      21      22      20      21      21      22      20
      21      21      22      20      21      21      22      20      21      21
      22      20      21      21      22      20      21      21      22      20
      21      21      22      20      21      21      22      20      21      21
      22      20      21      21      22      20      21      21      22      20
      21      21      22      20      21      21      22      20      21      21
      22      20      21      21      22      20      21      21      22      20
      21      21      22      20      21      21      22      20      21      21
      22      20      21      21      22      20      21      21      22      20
      21      21      22      20      21      21      22      20      21      21
      22      20      21      21      22      20      21      21      22      20
      21      21      22      20      21      21      22      20      21      21
      22      20      21      21      22      20      21      21      22      20
      21      21      22      20      21      21      22      20      21      21
      22      20      21      21      22      20      21      21      22      20
      21      21      22      20      21      21      22      20      21      21
      22      20      21      21      22      20      21      21      22      20
      21      21      22      20      21      21      22      20      21      21
      22      20      21      21      22      20      21      21      22      20
      21      21      22      20      21      21      22      20      21      21
      22      20      21      21      22      20      21      21      22      20
      21      21      22      20      21      21      22      20      21      21
      22      20      21      21      22      20      21      21      22      20
      21      21      22      20      21      21      22      20      21      21
      22      20      21      21      22      20      21      21      22      20
      21      21      22      20      21      21      22      20      21      21
      22      20      21      21      22      20      21      21      22      20
      21      21      22      20      21      21      22      20      21      21
      22      20      21      21      22      20      21      21      22      20
      21      21      22      20      21      21      22      20      21      21
      22      20      21      21      22      20      21      21      22      20
      21      21      22      20      21      21      22      20      21      21
      22      20      21      21      22      20      21      21      22      20
      21      21      22      20      21      21      22      20      21      21
      22      20      21      21      22      20      21      21      22      20
      21      21      22      20      21      21      22      20      21      21
      22      20      21      21      22      20      21      21      22      20
      21      21      22      20      21      21      22      20      21      21
      22      20      21      21      22      20      21      21      22      20
      21      21      22      20      21      21      22      20      21      21
      22      20      21      21      22      20      21      21      22      20
      21      21      22      20      21      21      22      20      21      21
      22      20      21      21      22      20      21      21      22      20
      21      21      22      20      21      21      22      20      21      21
      22      20      21      21      22      20      21      21      22      20
      21      21      22      20      21      21      22      20      21      21
      22      20      21      21      22      20      21      21      22      20
      21      21      22      20      21      21      22      20      21      21
      22      20      21      21      22      20      21      21      22      20
      21      21      22      20      21      21      22      20      21      21
      22      20      21      21      22      20      21      21      22      20
      21      21      22      20      21      21      22      20      21      21
      22      20      21      21      22      20      21      21      22      20
      21      21      22      20      21      21      22      20      21      21
      22      20      21      21      22      20      21      21      22      20
      21      21      22      20      21      21      22      20      21      21
      22      20      21      21      22      20      21      21      22      20
      21      21      22      20      21      21      22      20      21      21
      22      20      21      21      22      20      21      21      22      20
      21      21      22      20      21      21      22      20      21      21
      22      20      21      21      22      20      21      21      22      20
      21      21      22      20      21      21      22      20      21      21
      22      20      21      21      22      20      21      21      22      20
      21      21      22      20      21      21      22      20      21      21
      22      20      21      21      22      20      21      21      22      20
      21      21      22      20      21      21      22      20      21      21
      22      20      21      21      22      20      21      21      22      20
      21      21      22      20      21      21      22      20      21      21
      22      20      21      21      22      20      21      21      22      20
      21      21      22      20      21      21      22      20      21      21
      22      20      21      21      22      20      21      21      22      20
      21      21      22      20      21      21      22      20      21      21
      22      20      21      21      22      20      21      21      22      20
      21      21      22      20      21      21      22      20      21      21
      22      20      21      21      22      20      21      21      22      20
      21      21      22      20      21      21      22      20      21      21
      22      20      21      21      22      20      21      21      22      20
      21      21      22      20      21      21      22      20      21      21
      22      20      21      21      22      20      21      21      22      20
      21      21      22      20      21      21      22      20      21      21
      22      20      21      21      22      20      21      21      22      20
      21      21      22      20      21      21      22      20      21      21
      22      20      21      21      22      20      21      21      22      20
      21      21      22      20      21      21      22      20      21      21
      22      20      21      21      22      20      21      21      22      20
      21      21      22      20      21      21      22      20      21      21
      22      20      21      21      22      20      21      21      22      20
      21      21      22      20      21      21      22      20      21      21
      22      20      21      21      22      20      21      21      22      20
      21      21      22      20      21      21      22      20      21      21
      22      20      21      21      22      20      21      21      22      20
      21      21      22      20      21      21      22      20      21      21
      22      20      21      21      22      20      21      21      22      20
      21      21      22      20      21      21      22      20      21      21
      22      20      21      21      22      20      21      21      22      20
      21      21      22      20      21      21      22      20      21      21
      22      20      21      21      22      20      21      21      22      20
      21      21      22      20      21      21      22      20      21      21
      22      20      21      21      22      20      21      21      22      20
      21      21      22      20      21      21      22      20      21      21
      22      20      21      21      22      20      21      21      22      20
      21      21      22      20      21      21      22      20      21      21
      22      20      21      21      22      20      21      21      22      20
      21      21      22      20      21      21      22      20      21      21
      22      20      21      21      22      20      21      21      22      20
      21      21      22      20      21      21      22      20      21      21
      22      20      21      21      22      20      21      21      22      20
      21      21      22      20      21      21      22      20      21      21
      22      20      21      21      22      20      21      21      22      20
      21      21      22      20      21      21      22      20      21      21
      22      20      21      21      22      20      21      21      22      20
      21      21      22      20      21      21      22      20      21      21
      22      20      21      21      22      20      21      21      22
%FLAG NUMBER_EXCLUDED_ATOMS                                                     
%FORMAT(10I8)                                                                   
       6       7       4       3       7       3      10       4      12       7
      12       5       4      11       7       4       7       3       8       7
       4       6       3       4       3       2       1       1       7       3
      10       4      16       7      12       9       8       3       2       1
       4       2       1       1       7       3      10       4      14       7
      10       7       6       3       2       1       2       1       7       3
      10       4      12       7      12       5       4       8       6       4
       4       2       2       1       1       7       3      10       4      13
       7      12       6       5       9       5       4       7       4       3
       8       3       6       5       2       1       2       1       1       7
       3      18       7      16      10      15      11      11      11      11
      11       7       2       1       1       3       2       3       2       2
       1       1       3       5       4       1      10       4      10       7
       6       3       2       1       7       3       7       4       7       4
       3       7       3      10       4      13       7      15       6       5
      10       8       7       3       2       1       3       2       1       1
       7       3      18       7      15      10      11       5       7       2
       1       1       3       2       1       1       1      10       4      11
       7       7       4       3       2       1       7       3      10       4
      13       7      12       6       5       9       5       4       7       4
       3       8       3       6       5       2       1       2       1       1
       7       3      10       4      11       7       7       4       3       2
       1       7       3       7       4       7       4       3       7       3
       7       4       7       4       3       7       3      10       4      16
       7      12       9       8       3       2       1       4       2       1
       1       7       3      10       4      16       7      12       9       8
       3       2       1       4       2       1       1       7       3      10
       4      13       7      12       6       5      10       5       4       9
       5       4       6       5       4       3       2       1       1       7
       3      10       4      12       7      10       5       4       5       3
       2       1       1       7       3      10       4      12       7      10
       5       4       5       3       2       1       1       7       3      10
       4      12       7      12       5       4      10       8       4       6
       3       5       3       3       2       1       1       7       3      10
       4      16       7      12       9       8       3       2       1       4
       2       1       1      10       3      14      11       6       5       8
       5       4       7       4       3       6       3       7       3      10
       4      14       7      10       7       6       3       2       1       2
       1       7       3      10       4      12       7       8       5       4
       3       1       1       7       3      10       4      16       7      12
       9       8       3       2       1       4       2       1       1       7
       3       7       4       7       4       3      10       3      14      11
       6       5       8       5       4       7       4       3       6       3
       7       3      10       4      12       7      12       5       4      10
       8       4       6       3       5       3       3       2       1       1
       7       3      10       4      10       7       6       3       2       1
       7       3      10       4      12       7      12       5       4      10
       8       4       6       3       5       3       3       2       1       1
       4       3       2       1       1       1       1       1       1       1
       1       1       1       1       1       1       1       1       1       1
       1       1       1       1       1       1       1       1       1       1
       1       1       1       1       1       1       1       1       1       1
       1       1       1       1       1       1       1       1       1       3
       2       1       1       3       2       1       1       3       2       1
       1       3       2       1       1       3       2       1       1       3
       2       1       1       3       2       1       1       3       2       1
       1       3       2       1       1       3       2       1       1       3
       2       1       1       3       2       1       1       3       2       1
       1       3       2       1       1       3       2       1       1       3
       2       1       1       3       2       1       1       3       2       1
       1       3       2       1       1       3       2       1       1       3
       2       1       1       3       2       1       1       3       2       1
       1       3       2       1       1       3       2       1       1       3
       2       1       1       3       2       1       1       3       2       1
       1       3       2       1       1       3       2       1       1       3
       2       1       1       3       2       1       1       3       2       1
       1       3       2       1       1       3       2       1       1       3
       2       1       1       3       2       1       1       3       2       1
       1       3       2       1       1       3       2       1       1       3
       2       1       1       3       2       1       1       3       2       1
       1       3       2       1       1       3       2       1       1       3
       2       1       1       3       2       1       1       3       2       1
       1       3       2       1       1       3       2       1       1       3
       2       1       1       3       2       1       1       3       2       1
       1       3       2       1       1       3       2       1       1       3
       2       1       1       3       2       1       1       3       2       1
       1       3       2       1       1       3       2       1       1       3
       2       1       1       3       2       1       1       3       2       1
       1       3       2       1       1       3       2       1       1       3
       2       1       1       3       2       1       1       3       2       1
       1       3       2       1       1       3       2       1       1       3
       2       1       1       3       2       1       1       3       2       1
       1       3       2       1       1       3       2       1       1       3
       2       1       1       3       2       1       1       3       2       1
       1       3       2       1       1       3       2       1       1       3
       2       1       1       3       2       1       1       3       2       1
       1       3       2       1       1       3       2       1       1       3
       2       1       1       3       2       1       1       3       2       1
       1       3       2       1       1       3       2       1       1       3
       2       1       1       3       2       1       1       3       2       1
       1       3       2       1       1       3       2       1       1       3
       2       1       1       3       2       1       1       3       2       1
       1       3       2       1       1       3       2       1       1       3
       2       1       1       3       2       1       1       3       2       1
       1       3       2       1       1       3       2       1       1       3
       2       1       1       3       2       1       1       3       2       1
       1       3       2       1       1       3       2       1       1       3
       2       1       1       3       2       1       1       3       2       1
       1       3       2       1       1       3       2       1       1       3
       2       1       1       3       2       1       1       3       2       1
       1       3       2       1       1       3       2       1       1       3
       2       1       1       3       2       1       1       3       2       1
       1       3       2       1       1       3       2       1       1       3
       2       1       1       3       2       1       1       3       2       1
       1       3       2       1       1       3       2       1       1       3
       2       1       1       3       2       1       1       3       2       1
       1       3       2       1       1       3       2       1       1       3
       2       1       1       3       2       1       1       3       2       1
       1       3       2       1       1       3       2       1       1       3
       2       1       1       3       2       1       1       3       2       1
       1       3       2       1       1       3       2       1       1       3
       2       1       1       3       2       1       1       3       2       1
       1       3       2       1       1       3       2       1       1       3
       2       1       1       3       2       1       1       3       2       1
       1       3       2       1       1       3       2       1       1       3
       2       1       1       3       2       1       1       3       2       1
       1       3       2       1       1       3       2       1       1       3
       2       1       1       3       2       1       1       3       2       1
       1       3       2       1       1       3       2       1       1       3
       2       1       1       3       2       1       1       3       2       1
       1       3       2       1       1       3       2       1       1       3
       2       1       1       3       2       1       1       3       2       1
       1       3       2       1       1       3       2       1       1       3
       2       1       1       3       2       1       1       3       2       1
       1       3       2       1       1       3       2       1       1       3
       2       1       1       3       2       1       1       3       2       1
       1       3       2       1       1       3       2       1       1       3
       2       1       1       3       2       1       1       3       2       1
       1       3       2       1       1       3       2       1       1       3
       2       1       1       3       2       1       1       3       2       1
       1       3       2       1       1       3       2       1       1       3
       2       1       1       3       2       1       1       3       2       1
       1       3       2       1       1       3       2       1       1       3
       2       1       1       3       2       1       1       3       2       1
       1       3       2       1       1       3       2       1       1       3
       2       1       1       3       2       1       1       3       2       1
       1       3       2       1       1       3       2       1       1       3
       2       1       1       3       2       1       1       3       2       1
       1       3       2       1       1       3       2       1       1       3
       2       1       1       3       2       1       1       3       2       1
       1       3       2       1       1       3       2       1       1       3
       2       1       1       3       2       1       1       3       2       1
       1       3       2       1       1       3       2       1       1       3
       2       1       1       3       2       1       1       3       2       1
       1       3       2       1       1       3       2       1       1       3
       2       1       1       3       2       1       1       3       2       1
       1       3       2       1       1       3       2       1       1       3
       2       1       1       3       2       1       1       3       2       1
       1       3       2       1       1       3       2       1       1       3
       2       1       1       3       2       1       1       3       2       1
       1       3       2       1       1       3       2       1       1       3
       2       1       1       3       2       1       1       3       2       1
       1       3       2       1       1       3       2       1       1       3
       2       1       1       3       2       1       1       3       2       1
       1       3       2       1       1       3       2       1       1       3
       2       1       1       3       2       1       1       3       2       1
       1       3       2       1       1       3       2       1       1       3
       2       1       1       3       2       1       1       3       2       1
       1       3       2       1       1       3       2       1       1       3
       2       1       1       3       2       1       1       3       2       1
       1       3       2       1       1       3       2       1       1       3
       2       1       1       3       2       1       1       3       2       1
       1       3       2       1       1       3       2       1       1       3
       2       1       1       3       2       1       1       3       2       1
       1       3       2       1       1       3       2       1       1       3
       2       1       1       3       2       1       1       3       2       1
       1       3       2       1       1       3       2       1       1       3
       2       1       1       3       2       1       1       3       2       1
       1       3       2       1       1       3       2       1       1       3
       2       1       1       3       2       1       1       3       2       1
       1       3       2       1       1       3       2       1       1       3
       2       1       1       3       2       1       1       3       2       1
       1       3       2       1       1       3       2       1       1       3
       2       1       1       3       2       1       1       3       2       1
       1       3       2       1       1       3       2       1       1       3
       2       1       1       3       2       1       1       3       2       1
       1       3       2       1       1       3       2       1       1       3
       2       1       1       3       2       1       1       3       2       1
       1       3       2       1       1       3       2       1       1       3
       2       1       1       3       2       1       1       3       2       1
       1       3       2       1       1       3       2       1       1       3
       2       1       1       3       2       1       1       3       2       1
       1       3       2       1       1       3       2       1       1       3
       2       1       1       3       2       1       1       3       2       1
       1       3       2       1       1       3       2       1       1       3
       2       1       1       3       2       1       1       3       2       1
       1       3       2       1       1       3       2       1       1       3
       2       1       1       3       2       1       1       3       2       1
       1       3       2       1       1       3       2       1       1       3
       2       1       1       3       2       1       1       3       2       1
       1       3       2       1       1       3       2       1       1       3
       2       1       1       3       2       1       1       3       2       1
       1       3       2       1       1       3       2       1       1       3
       2       1       1       3       2       1       1       3       2       1
       1       3       2       1       1       3       2       1       1       3
       2       1       1       3       2       1       1       3       2       1
       1       3       2       1       1       3       2       1       1       3
       2       1       1       3       2       1       1       3       2       1
       1       3       2       1       1       3       2       1       1       3
       2       1       1       3       2       1       1       3       2       1
       1       3       2       1       1       3       2       1       1       3
       2       1       1       3       2       1       1       3       2       1
       1       3       2       1       1       3       2       1       1       3
       2       1       1       3       2       1       1       3       2       1
       1       3       2       1       1       3       2       1       1       3
       2       1       1       3       2       1       1       3       2       1
       1       3       2       1       1       3       2       1       1       3
       2       1       1       3       2       1       1       3       2       1
       1       3       2       1       1       3       2       1       1       3
       2       1       1       3       2       1       1       3       2       1
       1       3       2       1       1       3       2       1       1       3
       2       1       1       3       2       1       1       3       2       1
       1       3       2       1       1       3       2       1       1       3
       2       1       1       3       2       1       1       3       2       1
       1       3       2       1       1       3       2       1       1       3
       2       1       1       3       2       1       1       3       2       1
       1       3       2       1       1       3       2       1       1       3
       2       1       1       3       2       1       1       3       2       1
       1       3       2       1       1       3       2       1       1       3
       2       1       1       3       2       1       1       3       2       1
       1       3       2       1       1       3       2       1       1       3
       2       1       1       3       2       1       1       3       2       1
       1       3       2       1       1       3       2       1       1       3
       2       1       1       3       2       1       1       3       2       1
       1       3       2       1       1       3       2       1       1       3
       2       1       1       3       2       1       1       3       2       1
       1       3       2       1       1       3       2       1       1       3
       2       1       1       3       2       1       1       3       2       1
       1       3       2       1       1       3       2       1       1       3
       2       1       1       3       2       1       1       3       2       1
       1       3       2       1       1       3       2       1       1       3
       2       1       1       3       2       1       1       3       2       1
       1       3       2       1       1       3       2       1       1       3
       2       1       1       3       2       1       1       3       2       1
       1       3       2       1       1       3       2       1       1       3
       2       1       1       3       2       1       1       3       2       1
       1       3       2       1       1       3       2       1       1       3
       2       1       1       3       2       1       1       3       2       1
       1       3       2       1       1       3       2       1       1       3
       2       1       1       3       2       1       1       3       2       1
       1       3       2       1       1       3       2       1       1       3
       2       1       1       3       2       1       1       3       2       1
       1       3       2       1       1       3       2       1       1       3
       2       1       1       3       2       1       1       3       2       1
       1       3       2       1       1       3       2       1       1       3
       2       1       1       3       2       1       1       3       2       1
       1       3       2       1       1       3       2       1       1       3
       2       1       1       3       2       1       1       3       2       1
       1       3       2       1       1       3       2       1       1       3
       2       1       1       3       2       1       1       3       2       1
       1       3       2       1       1       3       2       1       1       3
       2       1       1       3       2       1       1       3       2       1
       1       3       2       1       1       3       2       1       1       3
       2       1       1       3       2       1       1       3       2       1
       1       3       2       1       1       3       2       1       1       3
       2       1       1       3       2       1       1       3       2       1
       1       3       2       1       1       3       2       1       1       3
       2       1       1       3       2       1       1       3       2       1
       1       3       2       1       1       3       2       1       1       3
       2       1       1       3       2       1       1       3       2       1
       1       3       2       1       1       3       2       1       1       3
       2       1       1       3       2       1       1       3       2       1
       1       3       2       1       1       3       2       1       1       3
       2       1       1       3       2       1       1       3       2       1
       1       3       2       1       1       3       2       1       1       3
       2       1       1       3       2       1       1       3       2       1
       1       3       2       1       1       3       2       1       1       3
       2       1       1       3       2       1       1       3       2       1
       1       3       2       1       1       3       2       1       1       3
       2       1       1       3       2       1       1       3       2       1
       1       3       2       1       1       3       2       1       1       3
       2       1       1       3       2       1       1       3       2       1
       1       3       2       1       1       3       2       1       1       3
       2       1       1       3       2       1       1       3       2       1
       1       3       2       1       1       3       2       1       1       3
       2       1       1       3       2       1       1       3       2       1
       1       3       2       1       1       3       2       1       1       3
       2       1       1       3       2       1       1       3       2       1
       1       3       2       1       1       3       2       1       1       3
       2       1       1       3       2       1       1       3       2       1
       1       3       2       1       1       3       2       1       1       3
       2       1       1       3       2       1       1       3       2       1
       1       3       2       1       1       3       2       1       1       3
       2       1       1       3       2       1       1       3       2       1
       1       3       2       1       1       3       2       1       1       3
       2       1       1       3       2       1       1       3       2       1
       1       3       2       1       1       3       2       1       1       3
       2       1       1       3       2       1       1       3       2       1
       1       3       2       1       1       3       2       1       1       3
       2       1       1       3       2       1       1       3       2       1
       1       3       2       1       1       3       2       1       1       3
       2       1       1       3       2       1       1       3       2       1
       1       3       2       1       1       3       2       1       1       3
       2       1       1       3       2       1       1       3       2       1
       1       3       2       1       1       3       2       1       1       3
       2       1       1       3       2       1       1       3       2       1
       1       3       2       1       1       3       2       1       1       3
       2       1       1       3       2       1       1       3       2       1
       1       3       2       1       1       3       2       1       1       3
       2       1       1       3       2       1       1       3       2       1
       1       3       2       1       1       3       2       1       1       3
       2       1       1       3       2       1       1       3       2       1
       1       3       2       1       1       3       2       1       1       3
       2       1       1       3       2       1       1       3       2       1
       1       3       2       1       1       3       2       1       1       3
       2       1       1       3       2       1       1       3       2       1
       1       3       2       1       1       3       2       1       1       3
       2       1       1       3       2       1       1       3       2       1
       1       3       2       1       1       3       2       1       1       3
       2       1       1       3       2       1       1       3       2       1
       1       3       2       1       1       3       2       1       1       3
       2       1       1       3       2       1       1       3       2       1
       1       3       2       1       1       3       2       1       1       3
       2       1       1       3       2       1       1       3       2       1
       1       3       2       1       1       3       2       1       1       3
       2       1       1       3       2       1       1       3       2       1
       1       3       2       1       1       3       2       1       1       3
       2       1       1       3       2       1       1       3       2       1
       1       3       2       1       1       3       2       1       1       3
       2       1       1       3       2       1       1       3       2       1
       1       3       2       1       1       3       2       1       1       3
       2       1       1       3       2       1       1       3       2       1
       1       3       2       1       1       3       2       1       1       3
       2       1       1       3       2       1       1       3       2       1
       1       3       2       1       1       3       2       1       1       3
       2       1       1       3       2       1       1       3       2       1
       1       3       2       1       1       3       2       1       1       3
       2       1       1       3       2       1       1       3       2       1
       1       3       2       1       1       3       2       1       1       3
       2       1       1       3       2       1       1       3       2       1
       1       3       2       1       1       3       2       1       1       3
       2       1       1       3       2       1       1       3       2       1
       1       3       2       1       1       3       2       1       1       3
       2       1       1       3       2       1       1       3       2       1
       1       3       2       1       1       3       2       1       1       3
       2       1       1       3       2       1       1       3       2       1
       1       3       2       1       1       3       2       1       1       3
       2       1       1       3       2       1       1       3       2       1
       1       3       2       1       1       3       2       1       1       3
       2       1       1       3       2       1       1       3       2       1
       1       3       2       1       1       3       2       1       1       3
       2       1       1       3       2       1       1       3       2       1
       1       3       2       1       1       3       2       1       1       3
       2       1       1       3       2       1       1       3       2       1
       1       3       2       1       1       3       2       1       1       3
       2       1       1       3       2       1       1       3       2       1
       1       3       2       1       1       3       2       1       1       3
       2       1       1       3       2       1       1       3       2       1
       1       3       2       1       1       3       2       1       1       3
       2       1       1       3       2       1       1       3       2       1
       1       3       2       1       1       3       2       1       1       3
       2       1       1       3       2       1       1       3       2       1
       1       3       2       1       1       3       2       1       1       3
       2       1       1       3       2       1       1       3       2       1
       1       3       2       1       1       3       2       1       1       3
       2       1       1       3       2       1       1       3       2       1
       1       3       2       1       1       3       2       1       1       3
       2       1       1       3       2       1       1       3       2       1
       1       3       2       1       1       3       2       1       1       3
       2       1       1       3       2       1       1       3       2       1
       1       3       2       1       1       3       2       1       1       3
       2       1       1       3       2       1       1       3       2       1
       1       3       2       1       1       3       2       1       1       3
       2       1       1       3       2       1       1       3       2       1
       1       3       2       1       1       3       2       1       1       3
       2       1       1       3       2       1       1       3       2       1
       1       3       2       1       1       3       2       1       1       3
       2       1       1       3       2       1       1       3       2       1
       1       3       2       1       1       3       2       1       1       3
       2       1       1       3       2       1       1       3       2       1
       1       3       2       1       1       3       2       1       1       3
       2       1       1       3       2       1       1       3       2       1
       1       3       2       1       1       3       2       1       1       3
       2       1       1       3       2       1       1       3       2       1
       1       3       2       1       1       3       2       1       1       3
       2       1       1       3       2       1       1       3       2       1
       1       3       2       1       1       3       2       1       1       3
       2       1       1       3       2       1       1       3       2       1
       1       3       2       1       1       3       2       1       1       3
       2       1       1       3       2       1       1       3       2       1
       1       3       2       1       1       3       2       1       1       3
       2       1       1       3       2       1       1       3       2       1
       1       3       2       1       1       3       2       1       1       3
       2       1       1       3       2       1       1       3       2       1
       1       3       2       1       1       3       2       1       1       3
       2       1       1       3       2       1       1       3       2       1
       1       3       2       1       1       3       2       1       1       3
       2       1       1       3       2       1       1       3       2       1
       1       3       2       1       1       3       2       1       1       3
       2       1       1       3       2       1       1       3       2       1
       1       3       2       1       1       3       2       1       1       3
       2       1       1       3       2       1       1       3       2       1
       1       3       2       1       1       3       2       1       1       3
       2       1       1       3       2       1       1       3       2       1
       1       3       2       1       1       3       2       1       1       3
       2       1       1       3       2       1       1       3       2       1
       1       3       2       1       1       3       2       1       1       3
       2       1       1       3       2       1       1       3       2       1
       1       3       2       1       1       3       2       1       1       3
       2       1       1       3       2       1       1       3       2       1
       1       3       2       1       1       3       2       1       1       3
       2       1       1       3       2       1       1       3       2       1
       1       3       2       1       1       3       2       1       1       3
       2       1       1       3       2       1       1       3       2       1
       1       3       2       1       1       3       2       1       1       3
       2       1       1       3       2       1       1       3       2       1
       1       3       2       1       1       3       2       1       1       3
       2       1       1       3       2       1       1       3       2       1
       1       3       2       1       1       3       2       1       1       3
       2       1       1       3       2       1       1       3       2       1
       1       3       2       1       1       3       2       1       1       3
       2       1       1       3       2       1       1       3       2       1
       1       3       2       1       1       3       2       1       1       3
       2       1       1       3       2       1       1       3       2       1
       1       3       2       1       1       3       2       1       1       3
       2       1       1       3       2       1       1       3       2       1
       1       3       2       1       1       3       2       1       1       3
       2       1       1       3       2       1       1       3       2       1
       1       3       2       1       1       3       2       1       1       3
       2       1       1       3       2       1       1       3       2       1
       1       3       2       1       1       3       2       1       1       3
       2       1       1       3       2       1       1       3       2       1
       1       3       2       1       1       3       2       1       1       3
       2       1       1       3       2       1       1       3       2       1
       1       3       2       1       1       3       2       1       1       3
       2       1       1       3       2       1       1       3       2       1
       1       3       2       1       1       3       2       1       1       3
       2       1       1       3       2       1       1       3       2       1
       1       3       2       1       1       3       2       1       1       3
       2       1       1       3       2       1       1       3       2       1
       1       3       2       1       1       3       2       1       1       3
       2       1       1       3       2       1       1       3       2       1
       1       3       2       1       1       3       2       1       1       3
       2       1       1       3       2       1       1       3       2       1
       1       3       2       1       1       3       2       1       1       3
       2       1       1       3       2       1       1       3       2       1
       1       3       2       1       1       3       2       1       1       3
       2       1       1       3       2       1       1       3       2       1
       1       3       2       1       1       3       2       1       1       3
       2       1       1       3       2       1       1       3       2       1
       1       3       2       1       1       3       2       1       1       3
       2       1       1       3       2       1       1       3       2       1
       1       3       2       1       1       3       2       1       1       3
       2       1       1       3       2       1       1       3       2       1
       1       3       2       1       1       3       2       1       1       3
       2       1       1       3       2       1       1       3       2       1
       1       3       2       1       1       3       2       1       1       3
       2       1       1       3       2       1       1       3       2       1
       1       3       2       1       1       3       2       1       1       3
       2       1       1       3       2       1       1       3       2       1
       1       3       2       1       1       3       2       1       1       3
       2       1       1       3       2       1       1       3       2       1
       1       3       2       1       1       3       2       1       1       3
       2       1       1       3       2       1       1       3       2       1
       1       3       2       1       1       3       2       1       1       3
       2       1       1       3       2       1       1       3       2       1
       1       3       2       1       1       3       2       1       1       3
       2       1       1       3       2       1       1       3       2       1
       1       3       2       1       1       3       2       1       1       3
       2       1       1       3       2       1       1       3       2       1
       1       3       2       1       1       3       2       1       1       3
       2       1       1       3       2       1       1       3       2       1
       1       3       2       1       1       3       2       1       1       3
       2       1       1       3       2       1       1       3       2       1
       1       3       2       1       1       3       2       1       1       3
       2       1       1       3       2       1       1       3       2       1
       1       3       2       1       1       3       2       1       1       3
       2       1       1       3       2       1       1       3       2       1
       1       3       2       1       1       3       2       1       1       3
       2       1       1       3       2       1       1       3       2       1
       1       3       2       1       1       3       2       1       1       3
       2       1       1       3       2       1       1       3       2       1
       1       3       2       1       1       3       2       1       1       3
       2       1       1       3       2       1       1       3       2       1
       1       3       2       1       1       3       2       1       1       3
       2       1       1       3       2       1       1       3       2       1
       1       3       2       1       1       3       2       1       1       3
       2       1       1       3       2       1       1       3       2       1
       1       3       2       1       1       3       2       1       1       3
       2       1       1       3       2       1       1       3       2       1
       1       3       2       1       1       3       2       1       1       3
       2       1       1       3       2       1       1       3       2       1
       1       3       2       1       1       3       2       1       1       3
       2       1       1       3       2       1       1       3       2       1
       1       3       2       1       1       3       2       1       1       3
       2       1       1       3       2       1       1       3       2       1
       1       3       2       1       1       3       2       1       1       3
       2       1       1       3       2       1       1       3       2       1
       1       3       2       1       1       3       2       1       1       3
       2       1       1       3       2       1       1       3       2       1
       1       3       2       1       1       3       2       1       1       3
       2       1       1       3       2       1       1       3       2       1
       1       3       2       1       1       3       2       1       1       3
       2       1       1       3       2       1       1       3       2       1
       1       3       2       1       1       3       2       1       1       3
       2       1       1       3       2       1       1       3       2       1
       1       3       2       1       1       3       2       1       1       3
       2       1       1       3       2       1       1       3       2       1
       1       3       2       1       1       3       2       1       1       3
       2       1       1       3       2       1       1       3       2       1
       1       3       2       1       1       3       2       1       1       3
       2       1       1       3       2       1       1       3       2       1
       1       3       2       1       1       3       2       1       1       3
       2       1       1       3       2       1       1       3       2       1
       1       3       2       1       1       3       2       1       1       3
       2       1       1       3       2       1       1       3       2       1
       1       3       2       1       1       3       2       1       1       3
       2       1       1       3       2       1       1       3       2       1
       1       3       2       1       1       3       2       1       1       3
       2       1       1       3       2       1       1       3       2       1
       1       3       2       1       1       3       2       1       1       3
       2       1       1       3       2       1       1       3       2       1
       1       3       2       1       1       3       2       1       1       3
       2       1       1       3       2       1       1       3       2       1
       1       3       2       1       1       3       2       1       1       3
       2       1       1       3       2       1       1       3       2       1
       1       3       2       1       1       3       2       1       1       3
       2       1       1       3       2       1       1       3       2       1
       1       3       2       1       1       3       2       1       1       3
       2       1       1       3       2       1       1       3       2       1
       1       3       2       1       1       3       2       1       1       3
       2       1       1       3       2       1       1       3       2       1
       1       3       2       1       1       3       2       1       1       3
       2       1       1       3       2       1       1       3       2       1
       1       3       2       1       1       3       2       1       1       3
       2       1       1       3       2       1       1       3       2       1
       1       3       2       1       1       3       2       1       1       3
       2       1       1       3       2       1       1       3       2       1
       1       3       2       1       1       3       2       1       1       3
       2       1       1       3       2       1       1       3       2       1
       1       3       2       1       1       3       2       1       1       3
       2       1       1       3       2       1       1       3       2       1
       1       3       2       1       1       3       2       1       1       3
       2       1       1       3       2       1       1       3       2       1
       1       3       2       1       1       3       2       1       1       3
       2       1       1       3       2       1       1       3       2       1
       1       3       2       1       1       3       2       1       1       3
       2       1       1       3       2       1       1       3       2       1
       1       3       2       1       1       3       2       1       1       3
       2       1       1       3       2       1       1       3       2       1
       1       3       2       1       1       3       2       1       1       3
       2       1       1       3       2       1       1       3       2       1
       1       3       2       1       1       3       2       1       1       3
       2       1       1       3       2       1       1       3       2       1
       1       3       2       1       1       3       2       1       1       3
       2       1       1       3       2       1       1       3       2       1
       1       3       2       1       1       3       2       1       1       3
       2       1       1       3       2       1       1       3       2       1
       1       3       2       1       1       3       2       1       1       3
       2       1       1       3       2       1       1       3       2       1
       1       3       2       1       1       3       2       1       1       3
       2       1       1       3       2       1       1       3       2       1
       1       3       2       1       1       3       2       1       1       3
       2       1       1       3       2       1       1       3       2       1
       1       3       2       1       1       3       2       1       1       3
       2       1       1       3       2       1       1       3       2       1
       1       3       2       1       1       3       2       1       1       3
       2       1       1       3       2       1       1       3       2       1
       1       3       2       1       1       3       2       1       1       3
       2       1       1       3       2       1       1       3       2       1
       1       3       2       1       1       3       2       1       1       3
       2       1       1       3       2       1       1       3       2       1
       1       3       2       1       1       3       2       1       1       3
       2       1       1       3       2       1       1       3       2       1
       1       3       2       1       1       3       2       1       1       3
       2       1       1       3       2       1       1       3       2       1
       1       3       2       1       1       3       2       1       1       3
       2       1       1       3       2       1       1       3       2       1
       1       3       2       1       1       3       2       1       1       3
       2       1       1       3       2       1       1       3       2       1
       1       3       2       1       1       3       2       1       1       3
       2       1       1       3       2       1       1       3       2       1
       1       3       2       1       1       3       2       1       1       3
       2       1       1       3       2       1       1       3       2       1
       1       3       2       1       1       3       2       1       1       3
       2       1       1       3       2       1       1       3       2       1
       1       3       2       1       1       3       2       1       1       3
       2       1       1       3       2       1       1       3       2       1
       1       3       2       1       1       3       2       1       1       3
       2       1       1       3       2       1       1       3       2       1
       1       3       2       1       1       3       2       1       1       3
       2       1       1       3       2       1       1       3       2       1
       1       3       2       1       1       3       2       1       1       3
       2       1       1       3       2       1       1       3       2       1
       1       3       2       1       1       3       2       1       1       3
       2       1       1       3       2       1       1       3       2       1
       1       3       2       1       1       3       2       1       1       3
       2       1       1       3       2       1       1       3       2       1
       1       3       2       1       1       3       2       1       1       3
       2       1       1       3       2       1       1       3       2       1
       1       3       2       1       1       3       2       1       1       3
       2       1       1       3       2       1       1       3       2       1
       1       3       2       1       1       3       2       1       1       3
       2       1       1       3       2       1       1       3       2       1
       1       3       2       1       1       3       2       1       1       3
       2       1       1       3       2       1       1       3       2       1
       1       3       2       1       1       3       2       1       1       3
       2       1       1       3       2       1       1       3       2       1
       1       3       2       1       1       3       2       1       1       3
       2       1       1       3       2       1       1       3       2       1
       1       3       2       1       1       3       2       1       1       3
       2       1       1       3       2       1       1       3       2       1
       1       3       2       1       1       3       2       1       1       3
       2       1       1       3       2       1       1       3       2       1
       1       3       2       1       1       3       2       1       1       3
       2       1       1       3       2       1       1       3       2       1
       1       3       2       1       1       3       2       1       1       3
       2       1       1       3       2       1       1       3       2       1
       1       3       2       1       1       3       2       1       1       3
       2       1       1       3       2       1       1       3       2       1
       1       3       2       1       1       3       2       1       1       3
       2       1       1       3       2       1       1       3       2       1
       1       3       2       1       1       3       2       1       1       3
       2       1       1       3       2       1       1       3       2       1
       1       3       2       1       1       3       2       1       1       3
       2       1       1       3       2       1       1       3       2       1
       1       3       2       1       1       3       2       1       1       3
       2       1       1       3       2       1       1       3       2       1
       1       3       2       1       1       3       2       1       1       3
       2       1       1       3       2       1       1       3       2       1
       1       3       2       1       1       3       2       1       1       3
       2       1       1       3       2       1       1       3       2       1
       1       3       2       1       1       3       2       1       1       3
       2       1       1       3       2       1       1       3       2       1
       1       3       2       1       1       3       2       1       1       3
       2       1       1       3       2       1       1       3       2       1
       1       3       2       1       1       3       2       1       1       3
       2       1       1       3       2       1       1       3       2       1
       1       3       2       1       1       3       2       1       1       3
       2       1       1       3       2       1       1       3       2       1
       1       3       2       1       1       3       2       1       1       3
       2       1       1       3       2       1       1       3       2       1
       1       3       2       1       1       3       2       1       1       3
       2       1       1       3       2       1       1       3       2       1
       1       3       2       1       1       3       2       1       1       3
       2       1       1       3       2       1       1       3       2       1
       1       3       2       1       1       3       2       1       1       3
       2       1       1       3       2       1       1       3       2       1
       1       3       2       1       1       3       2       1       1       3
       2       1       1       3       2       1       1       3       2       1
       1       3       2       1       1       3       2       1       1       3
       2       1       1       3       2       1       1       3       2       1
       1       3       2       1       1       3       2       1       1       3
       2       1       1       3       2       1       1       3       2       1
       1       3       2       1       1       3       2       1       1       3
       2       1       1       3       2       1       1       3       2       1
       1       3       2       1       1       3       2       1       1       3
       2       1       1       3       2       1       1       3       2       1
       1       3       2       1       1       3       2       1       1       3
       2       1       1       3       2       1       1       3       2       1
       1       3       2       1       1       3       2       1       1       3
       2       1       1       3       2       1       1       3       2       1
       1       3       2       1       1       3       2       1       1       3
       2       1       1       3       2       1       1       3       2       1
       1       3       2       1       1       3       2       1       1       3
       2       1       1       3       2       1       1       3       2       1
       1       3       2       1       1       3       2       1       1       3
       2       1       1       3       2       1       1       3       2       1
       1       3       2       1       1       3       2       1       1       3
       2       1       1       3       2       1       1       3       2       1
       1       3       2       1       1       3       2       1       1       3
       2       1       1       3       2       1       1       3       2       1
       1       3       2       1       1       3       2       1       1       3
       2       1       1       3       2       1       1       3       2       1
       1       3       2       1       1       3       2       1       1       3
       2       1       1       3       2       1       1       3       2       1
       1       3       2       1       1       3       2       1       1       3
       2       1       1       3       2       1       1       3       2       1
       1       3       2       1       1       3       2       1       1       3
       2       1       1       3       2       1       1       3       2       1
       1       3       2       1       1       3       2       1       1       3
       2       1       1       3       2       1       1       3       2       1
       1       3       2       1       1       3       2       1       1       3
       2       1       1       3       2       1       1       3       2       1
       1       3       2       1       1       3       2       1       1       3
       2       1       1       3       2       1       1       3       2       1
       1       3       2       1       1       3       2       1       1       3
       2       1       1       3       2       1       1       3       2       1
       1       3       2       1       1       3       2       1       1       3
       2       1       1       3       2       1       1       3       2       1
       1       3       2       1       1       3       2       1       1       3
       2       1       1       3       2       1       1       3       2       1
       1       3       2       1       1       3       2       1       1       3
       2       1       1       3       2       1       1       3       2       1
       1       3       2       1       1       3       2       1       1       3
       2       1       1       3       2       1       1       3       2       1
       1       3       2       1       1       3       2       1       1       3
       2       1       1       3       2       1       1       3       2       1
       1       3       2       1       1       3       2       1       1       3
       2       1       1       3       2       1       1       3       2       1
       1       3       2       1       1       3       2       1       1       3
       2       1       1       3       2       1       1       3       2       1
       1       3       2       1       1       3       2       1       1       3
       2       1       1       3       2       1       1       3       2       1
       1       3       2       1       1       3       2       1       1       3
       2       1       1       3       2       1       1       3       2       1
       1       3       2       1       1       3       2       1       1       3
       2       1       1       3       2       1       1       3       2       1
       1       3       2       1       1       3       2       1       1       3
       2       1       1       3       2       1       1       3       2       1
       1       3       2       1       1       3       2       1       1       3
       2       1       1       3       2       1       1       3       2       1
       1       3       2       1       1       3       2       1       1       3
       2       1       1       3       2       1       1       3       2       1
       1       3       2       1       1       3       2       1       1       3
       2       1       1       3       2       1       1       3       2       1
       1       3       2       1       1       3       2       1       1       3
       2       1       1       3       2       1       1       3       2       1
       1       3       2       1       1       3       2       1       1       3
       2       1       1       3       2       1       1       3       2       1
       1       3       2       1       1       3       2       1       1       3
       2       1       1       3       2       1       1       3       2       1
       1       3       2       1       1       3       2       1       1       3
       2       1       1       3       2       1       1       3       2       1
       1       3       2       1       1       3       2       1       1       3
       2       1       1       3       2       1       1       3       2       1
       1       3       2       1       1       3       2       1       1       3
       2       1       1       3       2       1       1       3       2       1
       1       3       2       1       1       3       2       1       1       3
       2       1       1       3       2       1       1       3       2       1
       1       3       2       1       1       3       2       1       1       3
       2       1       1       3       2       1       1       3       2       1
       1       3       2       1       1       3       2       1       1       3
       2       1       1       3       2       1       1       3       2       1
       1       3       2       1       1       3       2       1       1       3
       2       1       1       3       2       1       1       3       2       1
       1       3       2       1       1       3       2       1       1       3
       2       1       1       3       2       1       1       3       2       1
       1       3       2       1       1       3       2       1       1       3
       2       1       1       3       2       1       1       3       2       1
       1       3       2       1       1       3       2       1       1       3
       2       1       1       3       2       1       1       3       2       1
       1       3       2       1       1       3       2       1       1       3
       2       1       1       3       2       1       1       3       2       1
       1       3       2       1       1       3       2       1       1       3
       2       1       1       3       2       1       1       3       2       1
       1       3       2       1       1       3       2       1       1       3
       2       1       1       3       2       1       1       3       2       1
       1       3       2       1       1       3       2       1       1       3
       2       1       1       3       2       1       1       3       2       1
       1       3       2       1       1       3       2       1       1       3
       2       1       1       3       2       1       1       3       2       1
       1       3       2       1       1       3       2       1       1       3
       2       1       1       3       2       1       1       3       2       1
       1       3       2       1       1       3       2       1       1       3
       2       1       1       3       2       1       1       3       2       1
       1       3       2       1       1       3       2       1       1       3
       2       1       1       3       2       1       1       3       2       1
       1       3       2       1       1       3       2       1       1       3
       2       1       1       3       2       1       1       3       2       1
       1       3       2       1       1       3       2       1       1       3
       2       1       1       3       2       1       1       3       2       1
       1       3       2       1       1       3       2       1       1       3
       2       1       1       3       2       1       1       3       2       1
       1       3       2       1       1       3       2       1       1       3
       2       1       1       3       2       1       1       3       2       1
       1       3       2       1       1       3       2       1       1       3
       2       1       1       3       2       1       1       3       2       1
       1       3       2       1       1       3       2       1       1       3
       2       1       1       3       2       1       1       3       2       1
       1       3       2       1       1       3       2       1       1       3
       2       1       1       3       2       1       1       3       2       1
       1       3       2       1       1       3       2       1       1       3
       2       1       1       3       2       1       1       3       2       1
       1       3       2       1       1       3       2       1       1       3
       2       1       1       3       2       1       1       3       2       1
       1       3       2       1       1       3       2       1       1       3
       2       1       1       3       2       1       1       3       2       1
       1       3       2       1       1       3       2       1       1       3
       2       1       1       3       2       1       1       3       2       1
       1       3       2       1       1       3       2       1       1       3
       2       1       1       3       2       1       1       3       2       1
       1       3       2       1       1       3       2       1       1       3
       2       1       1       3       2       1       1       3       2       1
       1       3       2       1       1       3       2       1       1       3
       2       1       1       3       2       1       1       3       2       1
       1       3       2       1       1       3       2       1       1       3
       2       1       1       3       2       1       1       3       2       1
       1       3       2       1       1       3       2       1       1       3
       2       1       1       3       2       1       1       3       2       1
       1       3       2       1       1       3       2       1       1       3
       2       1       1       3       2       1       1       3       2       1
       1       3       2       1       1       3       2       1       1       3
       2       1       1       3       2       1       1       3       2       1
       1       3       2       1       1       3       2       1       1       3
       2       1       1       3       2       1       1       3       2       1
       1       3       2       1       1       3       2       1       1       3
       2       1       1       3       2       1       1       3       2       1
       1       3       2       1       1       3       2       1       1       3
       2       1       1       3       2       1       1       3       2       1
       1       3       2       1       1       3       2       1       1       3
       2       1       1       3       2       1       1       3       2       1
       1       3       2       1       1       3       2       1       1       3
       2       1       1       3       2       1       1       3       2       1
       1       3       2       1       1       3       2       1       1       3
       2       1       1       3       2       1       1       3       2       1
       1       3       2       1       1       3       2       1       1       3
       2       1       1       3       2       1       1       3       2       1
       1       3       2       1       1       3       2       1       1       3
       2       1       1       3       2       1       1       3       2       1
       1       3       2       1       1       3       2       1       1       3
       2       1       1       3       2       1       1       3       2       1
       1       3       2       1       1       3       2       1       1       3
       2       1       1       3       2       1       1       3       2       1
       1       3       2       1       1       3       2       1       1       3
       2       1       1       3       2       1       1       3       2       1
       1       3       2       1       1       3       2       1       1       3
       2       1       1       3       2       1       1       3       2       1
       1       3       2       1       1       3       2       1       1       3
       2       1       1       3       2       1       1       3       2       1
       1       3       2       1       1       3       2       1       1       3
       2       1       1       3       2       1       1       3       2       1
       1       3       2       1       1       3       2       1       1       3
       2       1       1       3       2       1       1       3       2       1
       1       3       2       1       1       3       2       1       1       3
       2       1       1       3       2       1       1       3       2       1
       1       3       2       1       1       3       2       1       1       3
       2       1       1       3       2       1       1       3       2       1
       1       3       2       1       1       3       2       1       1       3
       2       1       1       3       2       1       1       3       2       1
       1       3       2       1       1       3       2       1       1       3
       2       1       1       3       2       1       1       3       2       1
       1       3       2       1       1       3       2       1       1       3
       2       1       1       3       2       1       1       3       2       1
       1       3       2       1       1       3       2       1       1       3
       2       1       1       3       2       1       1       3       2       1
       1       3       2       1       1       3       2       1       1       3
       2       1       1       3       2       1       1       3       2       1
       1       3       2       1       1       3       2       1       1       3
       2       1       1       3       2       1       1       3       2       1
       1       3       2       1       1       3       2       1       1       3
       2       1       1       3       2       1       1       3       2       1
       1       3       2       1       1       3       2       1       1       3
       2       1       1       3       2       1       1       3       2       1
       1       3       2       1       1       3       2       1       1       3
       2       1       1       3       2       1       1       3       2       1
       1       3       2       1       1       3       2       1       1       3
       2       1       1       3       2       1       1       3       2       1
       1       3       2       1       1       3       2       1       1       3
       2       1       1       3       2       1       1       3       2       1
       1       3       2       1       1       3       2       1       1       3
       2       1       1       3       2       1       1       3       2       1
       1       3       2       1       1       3       2       1       1       3
       2       1       1       3       2       1       1       3       2       1
       1       3       2       1       1       3       2       1       1       3
       2       1       1       3       2       1       1       3       2       1
       1       3       2       1       1       3       2       1       1       3
       2       1       1       3       2       1       1       3       2       1
       1       3       2       1       1       3       2       1       1       3
       2       1       1       3       2       1       1       3       2       1
       1       3       2       1       1       3       2       1       1       3
       2       1       1       3       2       1       1       3       2       1
       1       3       2       1       1       3       2       1       1       3
       2       1       1       3       2       1       1       3       2       1
       1       3       2       1       1       3       2       1       1       3
       2       1       1       3       2       1       1       3       2       1
       1       3       2       1       1       3       2       1       1       3
       2       1       1       3       2       1       1       3       2       1
       1       3       2       1       1       3       2       1       1       3
       2       1       1       3       2       1       1       3       2       1
       1       3       2       1       1       3       2       1       1       3
       2       1       1       3       2       1       1       3       2       1
       1       3       2       1       1       3       2       1       1       3
       2       1       1       3       2       1       1       3       2       1
       1       3       2       1       1       3       2       1       1       3
       2       1       1       3       2       1       1       3       2       1
       1       3       2       1       1       3       2       1       1       3
       2       1       1       3       2       1       1       3       2       1
       1       3       2       1       1       3       2       1       1       3
       2       1       1       3       2       1       1       3       2       1
       1       3       2       1       1       3       2       1       1       3
       2       1       1       3       2       1       1       3       2       1
       1       3       2       1       1       3       2       1       1       3
       2       1       1       3       2       1       1       3       2       1
       1       3       2       1       1       3       2       1       1       3
       2       1       1       3       2       1       1       3       2       1
       1       3       2       1       1       3       2       1       1       3
       2       1       1       3       2       1       1       3       2       1
       1       3       2       1       1       3       2       1       1       3
       2       1       1       3       2       1       1       3       2       1
       1       3       2       1       1       3       2       1       1       3
       2       1       1       3       2       1       1       3       2       1
       1       3       2       1       1       3       2       1       1       3
       2       1       1       3       2       1       1       3       2       1
       1       3       2       1       1       3       2       1       1       3
       2       1       1       3       2       1       1       3       2       1
       1       3       2       1       1       3       2       1       1       3
       2       1       1       3       2       1       1       3       2       1
       1       3       2       1       1       3       2       1       1       3
       2       1       1       3       2       1       1       3       2       1
       1       3       2       1       1       3       2       1       1       3
       2       1       1       3       2       1       1       3       2       1
       1       3       2       1       1       3       2       1       1       3
       2       1       1       3       2       1       1       3       2       1
       1       3       2       1       1       3       2       1       1       3
       2       1       1       3       2       1       1       3       2       1
       1       3       2       1       1       3       2       1       1       3
       2       1       1       3       2       1       1       3       2       1
       1       3       2       1       1       3       2       1       1       3
       2       1       1       3       2       1       1       3       2       1
       1       3       2       1       1       3       2       1       1       3
       2       1       1       3       2       1       1       3       2       1
       1       3       2       1       1       3       2       1       1       3
       2       1       1       3       2       1       1       3       2       1
       1       3       2       1       1       3       2       1       1       3
       2       1       1       3       2       1       1       3       2       1
       1       3       2       1       1       3       2       1       1       3
       2       1       1       3       2       1       1       3       2       1
       1       3       2       1       1       3       2       1       1       3
       2       1       1       3       2       1       1       3       2       1
       1       3       2       1       1       3       2       1       1       3
       2       1       1       3       2       1       1       3       2       1
       1       3       2       1       1       3       2       1       1       3
       2       1       1       3       2       1       1       3       2       1
       1       3       2       1       1       3       2       1       1       3
       2       1       1       3       2       1       1       3       2       1
       1       3       2       1       1       3       2       1       1       3
       2       1       1       3       2       1       1       3       2       1
       1       3       2       1       1       3       2       1       1       3
       2       1       1       3       2       1       1       3       2       1
       1       3       2       1       1       3       2       1       1       3
       2       1       1       3       2       1       1       3       2       1
       1       3       2       1       1       3       2       1       1       3
       2       1       1       3       2       1       1       3       2       1
       1       3       2       1       1       3       2       1       1       3
       2       1       1       3       2       1       1       3       2       1
       1       3       2       1       1       3       2       1       1       3
       2       1       1       3       2       1       1       3       2       1
       1       3       2       1       1       3       2       1       1       3
       2       1       1       3       2       1       1       3       2       1
       1       3       2       1       1       3       2       1       1       3
       2       1       1       3       2       1       1       3       2       1
       1       3       2       1       1       3       2       1       1       3
       2       1       1       3       2       1       1       3       2       1
       1       3       2       1       1       3       2       1       1       3
       2       1       1       3       2       1       1       3       2       1
       1       3       2       1       1       3       2       1       1       3
       2       1       1       3       2       1       1       3       2       1
       1       3       2       1       1       3       2       1       1       3
       2       1       1       3       2       1       1       3       2       1
       1       3       2       1       1       3       2       1       1       3
       2       1       1       3       2       1       1       3       2       1
       1       3       2       1       1       3       2       1       1       3
       2       1       1       3       2       1       1       3       2       1
       1       3       2       1       1       3       2       1       1       3
       2       1       1       3       2       1       1       3       2       1
       1       3       2       1       1       3       2       1       1       3
       2       1       1       3       2       1       1       3       2       1
       1       3       2       1       1       3       2       1       1       3
       2       1       1       3       2       1       1       3       2       1
       1       3       2       1       1       3       2       1       1       3
       2       1       1       3       2       1       1       3       2       1
       1       3       2       1       1       3       2       1       1       3
       2       1       1       3       2       1       1       3       2       1
       1       3       2       1       1       3       2       1       1       3
       2       1       1       3       2       1       1       3       2       1
       1       3       2       1       1       3       2       1       1       3
       2       1       1       3       2       1       1       3       2       1
       1       3       2       1       1       3       2       1       1       3
       2       1       1       3       2       1       1       3       2       1
       1       3       2       1       1       3       2       1       1       3
       2       1       1       3       2       1       1       3       2       1
       1       3       2       1       1       3       2       1       1       3
       2       1       1       3       2       1       1       3       2       1
       1       3       2       1       1       3       2       1       1       3
       2       1       1       3       2       1       1       3       2       1
       1       3       2       1       1       3       2       1       1       3
       2       1       1       3       2       1       1       3       2       1
       1       3       2       1       1       3       2       1       1       3
       2       1       1       3       2       1       1       3       2       1
       1       3       2       1       1       3       2       1       1       3
       2       1       1       3       2       1       1       3       2       1
       1       3       2       1       1       3       2       1       1       3
       2       1       1       3       2       1       1       3       2       1
       1       3       2       1       1       3       2       1       1       3
       2       1       1       3       2       1       1       3       2       1
       1       3       2       1       1       3       2       1       1       3
       2       1       1       3       2       1       1       3       2       1
       1       3       2       1       1       3       2       1       1       3
       2       1       1       3       2       1       1       3       2       1
       1       3       2       1       1       3       2       1       1       3
       2       1       1       3       2       1       1       3       2       1
       1       3       2       1       1       3       2       1       1       3
       2       1       1       3       2       1       1       3       2       1
       1       3       2       1       1       3       2       1       1       3
       2       1       1       3       2       1       1       3       2       1
       1       3       2       1       1       3       2       1       1       3
       2       1       1       3       2       1       1       3       2       1
       1       3       2       1       1       3       2       1       1       3
       2       1       1       3       2       1       1       3       2       1
       1       3       2       1       1       3       2       1       1       3
       2       1       1       3       2       1       1       3       2       1
       1       3       2       1       1       3       2       1       1       3
       2       1       1       3       2       1       1       3       2       1
       1       3       2       1       1       3       2       1       1       3
       2       1       1       3       2       1       1       3       2       1
       1       3       2       1       1       3       2       1       1       3
       2       1       1       3       2       1       1       3       2       1
       1       3       2       1       1       3       2       1       1       3
       2       1       1       3       2       1       1       3       2       1
       1       3       2       1       1       3       2       1       1       3
       2       1       1       3       2       1       1       3       2       1
       1       3       2       1       1       3       2       1       1       3
       2       1       1       3       2       1       1       3       2       1
       1       3       2       1       1       3       2       1       1       3
       2       1       1       3       2       1       1       3       2       1
       1       3       2       1       1       3       2       1       1       3
       2       1       1       3       2       1       1       3       2       1
       1       3       2       1       1       3       2       1       1       3
       2       1       1       3       2       1       1       3       2       1
       1       3       2       1       1       3       2       1       1       3
       2       1       1       3       2       1       1       3       2       1
       1       3       2       1       1       3       2       1       1       3
       2       1       1       3       2       1       1       3       2       1
       1       3       2       1       1       3       2       1       1       3
       2       1       1       3       2       1       1       3       2       1
       1       3       2       1       1       3       2       1       1       3
       2       1       1       3       2       1       1       3       2       1
       1       3       2       1       1       3       2       1       1       3
       2       1       1       3       2       1       1       3       2       1
       1       3       2       1       1       3       2       1       1       3
       2       1       1       3       2       1       1       3       2       1
       1       3       2       1       1       3       2       1       1       3
       2       1       1       3       2       1       1       3       2       1
       1       3       2       1       1       3       2       1       1       3
       2       1       1       3       2       1       1       3       2       1
       1       3       2       1       1       3       2       1       1       3
       2       1       1       3       2       1       1       3       2       1
       1       3       2       1       1       3       2       1       1       3
       2       1       1       3       2       1       1       3       2       1
       1       3       2       1       1       3       2       1       1       3
       2       1       1       3       2       1       1       3       2       1
       1       3       2       1       1       3       2       1       1       3
       2       1       1       3       2       1       1       3       2       1
       1       3       2       1       1       3       2       1       1       3
       2       1       1       3       2       1       1       3       2       1
       1       3       2       1       1       3       2       1       1       3
       2       1       1       3       2       1       1       3       2       1
       1       3       2       1       1       3       2       1       1       3
       2       1       1       3       2       1       1       3       2       1
       1       3       2       1       1       3       2       1       1       3
       2       1       1       3       2       1       1       3       2       1
       1       3       2       1       1       3       2       1       1       3
       2       1       1       3       2       1       1       3       2       1
       1       3       2       1       1       3       2       1       1       3
       2       1       1       3       2       1       1       3       2       1
       1       3       2       1       1       3       2       1       1       3
       2       1       1       3       2       1       1       3       2       1
       1       3       2       1       1       3       2       1       1       3
       2       1       1       3       2       1       1       3       2       1
       1       3       2       1       1       3       2       1       1       3
       2       1       1       3       2       1       1       3       2       1
       1       3       2       1       1       3       2       1       1       3
       2       1       1       3       2       1       1       3       2       1
       1       3       2       1       1       3       2       1       1       3
       2       1       1       3       2       1       1       3       2       1
       1       3       2       1       1       3       2       1       1       3
       2       1       1       3       2       1       1       3       2       1
       1       3       2       1       1       3       2       1       1       3
       2       1       1       3       2       1       1       3       2       1
       1       3       2       1       1       3       2       1       1       3
       2       1       1       3       2       1       1       3       2       1
       1       3       2       1       1       3       2       1       1       3
       2       1       1       3       2       1       1       3       2       1
       1       3       2       1       1       3       2       1       1       3
       2       1       1       3       2       1       1       3       2       1
       1       3       2       1       1       3       2       1       1       3
       2       1       1       3       2       1       1       3       2       1
       1       3       2       1       1       3       2       1       1       3
       2       1       1       3       2       1       1       3       2       1
       1       3       2       1       1       3       2       1       1       3
       2       1       1       3       2       1       1       3       2       1
       1       3       2       1       1       3       2       1       1       3
       2       1       1       3       2       1       1       3       2       1
       1       3       2       1       1       3       2       1       1       3
       2       1       1       3       2       1       1       3       2       1
       1       3       2       1       1       3       2       1       1       3
       2       1       1       3       2       1       1       3       2       1
       1       3       2       1       1       3       2       1       1       3
       2       1       1       3       2       1       1       3       2       1
       1       3       2       1       1       3       2       1       1       3
       2       1       1       3       2       1       1       3       2       1
       1       3       2       1       1       3       2       1       1       3
       2       1       1       3       2       1       1       3       2       1
       1       3       2       1       1       3       2       1       1       3
       2       1       1       3       2       1       1       3       2       1
       1       3       2       1       1       3       2       1       1       3
       2       1       1       3       2       1       1       3       2       1
       1       3       2       1       1       3       2       1       1       3
       2       1       1       3       2       1       1       3       2       1
       1       3       2       1       1       3       2       1       1       3
       2       1       1       3       2       1       1       3       2       1
       1       3       2       1       1       3       2       1       1       3
       2       1       1       3       2       1       1       3       2       1
       1       3       2       1       1       3       2       1       1       3
       2       1       1       3       2       1       1       3       2       1
       1       3       2       1       1       3       2       1       1       3
       2       1       1       3       2       1       1       3       2       1
       1       3       2       1       1       3       2       1       1       3
       2       1       1       3       2       1       1       3       2       1
       1       3       2       1       1       3       2       1       1       3
       2       1       1       3       2       1       1       3       2       1
       1       3       2       1       1       3       2       1       1       3
       2       1       1       3       2       1       1       3       2       1
       1       3       2       1       1       3       2       1       1       3
       2       1       1       3       2       1       1       3       2       1
       1       3       2       1       1       3       2       1       1       3
       2       1       1       3       2       1       1       3       2       1
       1       3       2       1       1       3       2       1       1       3
       2       1       1       3       2       1       1       3       2       1
       1       3       2       1       1       3       2       1       1       3
       2       1       1       3       2       1       1       3       2       1
       1       3       2       1       1       3       2       1       1       3
       2       1       1       3       2       1       1       3       2       1
       1       3       2       1       1       3       2       1       1       3
       2       1       1       3       2       1       1       3       2       1
       1       3       2       1       1       3       2       1       1       3
       2       1       1       3       2       1       1       3       2       1
       1       3       2       1       1       3       2       1       1       3
       2       1       1       3       2       1       1       3       2       1
       1       3       2       1       1       3       2       1       1       3
       2       1       1       3       2       1       1       3       2       1
       1       3       2       1       1       3       2       1       1       3
       2       1       1       3       2       1       1       3       2       1
       1       3       2       1       1       3       2       1       1       3
       2       1       1       3       2       1       1       3       2       1
       1       3       2       1       1       3       2       1       1       3
       2       1       1       3       2       1       1       3       2       1
       1       3       2       1       1       3       2       1       1       3
       2       1       1       3       2       1       1       3       2       1
       1       3       2       1       1       3       2       1       1       3
       2       1       1       3       2       1       1       3       2       1
       1       3       2       1       1       3       2       1       1       3
       2       1       1       3       2       1       1       3       2       1
       1       3       2       1       1       3       2       1       1       3
       2       1       1       3       2       1       1       3       2       1
       1       3       2       1       1       3       2       1       1       3
       2       1       1       3       2       1       1       3       2       1
       1       3       2       1       1       3       2       1       1       3
       2       1       1       3       2       1       1       3       2       1
       1       3       2       1       1       3       2       1       1       3
       2       1       1       3       2       1       1       3       2       1
       1       3       2       1       1       3       2       1       1       3
       2       1       1       3       2       1       1       3       2       1
       1       3       2       1       1       3       2       1       1       3
       2       1       1       3       2       1       1       3       2       1
       1       3       2       1       1       3       2       1       1       3
       2       1       1       3       2       1       1       3       2       1
       1       3       2       1       1       3       2       1       1       3
       2       1       1       3       2       1       1       3       2       1
       1       3       2       1       1       3       2       1       1       3
       2       1       1       3       2       1       1       3       2       1
       1       3       2       1       1       3       2       1       1       3
       2       1       1       3       2       1       1       3       2       1
       1       3       2       1       1       3       2       1       1       3
       2       1       1       3       2       1       1       3       2       1
       1       3       2       1       1       3       2       1       1       3
       2       1       1       3       2       1       1       3       2       1
       1       3       2       1       1       3       2       1       1       3
       2       1       1       3       2       1       1       3       2       1
       1       3       2       1       1       3       2       1       1       3
       2       1       1       3       2       1       1       3       2       1
       1       3       2       1       1       3       2       1       1       3
       2       1       1       3       2       1       1       3       2       1
       1       3       2       1       1       3       2       1       1       3
       2       1       1       3       2       1       1       3       2       1
       1       3       2       1       1       3       2       1       1       3
       2       1       1       3       2       1       1       3       2       1
       1       3       2       1       1       3       2       1       1       3
       2       1       1       3       2       1       1       3       2       1
       1       3       2       1       1       3       2       1       1       3
       2       1       1       3       2       1       1       3       2       1
       1       3       2       1       1       3       2       1       1       3
       2       1       1       3       2       1       1       3       2       1
       1       3       2       1       1       3       2       1       1       3
       2       1       1       3       2       1       1       3       2       1
       1       3       2       1       1       3       2       1       1       3
       2       1       1       3       2       1       1       3       2       1
       1       3       2       1       1       3       2       1       1       3
       2       1       1       3       2       1       1       3       2       1
       1       3       2       1       1       3       2       1       1       3
       2       1       1       3       2       1       1       3       2       1
       1       3       2       1       1       3       2       1       1       3
       2       1       1       3       2       1       1       3       2       1
       1       3       2       1       1       3       2       1       1       3
       2       1       1       3       2       1       1       3       2       1
       1       3       2       1       1       3       2       1       1       3
       2       1       1       3       2       1       1       3       2       1
       1       3       2       1       1       3       2       1       1       3
       2       1       1       3       2       1       1       3       2       1
       1       3       2       1       1       3       2       1       1       3
       2       1       1       3       2       1       1       3       2       1
       1       3       2       1       1       3       2       1       1       3
       2       1       1       3       2       1       1       3       2       1
       1       3       2       1       1       3       2       1       1       3
       2       1       1       3       2       1       1       3       2       1
       1       3       2       1       1       3       2       1       1       3
       2       1       1       3       2       1       1       3       2       1
       1       3       2       1       1       3       2       1       1       3
       2       1       1       3       2       1       1       3       2       1
       1       3       2       1       1       3       2       1       1       3
       2       1       1       3       2       1       1       3       2       1
       1       3       2       1       1       3       2       1       1       3
       2       1       1       3       2       1       1       3       2       1
       1       3       2       1       1       3       2       1       1       3
       2       1       1       3       2       1       1       3       2       1
       1       3       2       1       1       3       2       1       1       3
       2       1       1       3       2       1       1       3       2       1
       1       3       2       1       1       3       2       1       1       3
       2       1       1       3       2       1       1       3       2       1
       1       3       2       1       1       3       2       1       1       3
       2       1       1       3       2       1       1       3       2       1
       1       3       2       1       1       3       2       1       1       3
       2       1       1       3       2       1       1       3       2       1
       1       3       2       1       1       3       2       1       1       3
       2       1       1       3       2       1       1       3       2       1
       1       3       2       1       1       3       2       1       1       3
       2       1       1       3       2       1       1       3       2       1
       1       3       2       1       1       3       2       1       1       3
       2       1       1       3       2       1       1       3       2       1
       1       3       2       1       1       3       2       1       1       3
       2       1       1       3       2       1       1       3       2       1
       1       3       2       1       1       3       2       1       1       3
       2       1       1       3       2       1       1       3       2       1
       1       3       2       1       1       3       2       1       1       3
       2       1       1       3       2       1       1       3       2       1
       1       3       2       1       1       3       2       1       1       3
       2       1       1       3       2       1       1       3       2       1
       1       3       2       1       1       3       2       1       1       3
       2       1       1       3       2       1       1       3       2       1
       1       3       2       1       1       3       2       1       1       3
       2       1       1       3       2       1       1       3       2       1
       1       3       2       1       1       3       2       1       1       3
       2       1       1       3       2       1       1       3       2       1
       1       3       2       1       1       3       2       1       1       3
       2       1       1       3       2       1       1       3       2       1
       1       3       2       1       1       3       2       1       1       3
       2       1       1       3       2       1       1       3       2       1
       1       3       2       1       1       3       2       1       1       3
       2       1       1       3       2       1       1       3       2       1
       1       3       2       1       1       3       2       1       1       3
       2       1       1       3       2       1       1       3       2       1
       1       3       2       1       1       3       2       1       1       3
       2       1       1       3       2       1       1       3       2       1
       1       3       2       1       1       3       2       1       1       3
       2       1       1       3       2       1       1       3       2       1
       1       3       2       1       1       3       2       1       1       3
       2       1       1       3       2       1       1       3       2       1
       1       3       2       1       1       3       2       1       1       3
       2       1       1       3       2       1       1       3       2       1
       1       3       2       1       1       3       2       1       1       3
       2       1       1       3       2       1       1       3       2       1
       1       3       2       1       1       3       2       1       1       3
       2       1       1       3       2       1       1       3       2       1
       1       3       2       1       1       3       2       1       1       3
       2       1       1       3       2       1       1       3       2       1
       1       3       2       1       1       3       2       1       1       3
       2       1       1       3       2       1       1       3       2       1
       1       3       2       1       1       3       2       1       1       3
       2       1       1       3       2       1       1       3       2       1
       1       3       2       1       1       3       2       1       1       3
       2       1       1       3       2       1       1       3       2       1
       1       3       2       1       1       3       2       1       1       3
       2       1       1       3       2       1       1       3       2       1
       1       3       2       1       1       3       2       1       1       3
       2       1       1       3       2       1       1       3       2       1
       1       3       2       1       1       3       2       1       1       3
       2       1       1       3       2       1       1       3       2       1
       1       3       2       1       1       3       2       1       1       3
       2       1       1       3       2       1       1       3       2       1
       1       3       2       1       1       3       2       1       1       3
       2       1       1       3       2       1       1       3       2       1
       1       3       2       1       1       3       2       1       1       3
       2       1       1       3       2       1       1       3       2       1
       1       3       2       1       1       3       2       1       1       3
       2       1       1       3       2       1       1       3       2       1
       1       3       2       1       1       3       2       1       1       3
       2       1       1       3       2       1       1       3       2       1
       1       3       2       1       1       3       2       1       1       3
       2       1       1       3       2       1       1       3       2       1
       1       3       2       1       1       3       2       1       1       3
       2       1       1       3       2       1       1       3       2       1
       1       3       2       1       1       3       2       1       1       3
       2       1       1       3       2       1       1       3       2       1
       1       3       2       1       1       3       2       1       1       3
       2       1       1       3       2       1       1       3       2       1
       1       3       2       1       1       3       2       1       1       3
       2       1       1       3       2       1       1       3       2       1
       1       3       2       1       1       3       2       1       1       3
       2       1       1       3       2       1       1       3       2       1
       1       3       2       1       1       3       2       1       1       3
       2       1       1       3       2       1       1       3       2       1
       1       3       2       1       1       3       2       1       1       3
       2       1       1       3       2       1       1       3       2       1
       1       3       2       1       1       3       2       1       1       3
       2       1       1       3       2       1       1       3       2       1
       1       3       2       1       1       3       2       1       1       3
       2       1       1       3       2       1       1       3       2       1
       1       3       2       1       1       3       2       1       1       3
       2       1       1       3       2       1       1       3       2       1
       1       3       2       1       1       3       2       1       1       3
       2       1       1       3       2       1       1       3       2       1
       1       3       2       1       1       3       2       1       1       3
       2       1       1       3       2       1       1       3       2       1
       1       3       2       1       1       3       2       1       1       3
       2       1       1       3       2       1       1       3       2       1
       1       3       2       1       1       3       2       1       1       3
       2       1       1       3       2       1       1       3       2       1
       1       3       2       1       1       3       2       1       1       3
       2       1       1       3       2       1       1       3       2       1
       1       3       2       1       1       3       2       1       1       3
       2       1       1       3       2       1       1       3       2       1
       1       3       2       1       1       3       2       1       1       3
       2       1       1       3       2       1       1       3       2       1
       1       3       2       1       1       3       2       1       1       3
       2       1       1       3       2       1       1       3       2       1
       1       3       2       1       1       3       2       1       1       3
       2       1       1       3       2       1       1       3       2       1
       1       3       2       1       1       3       2       1       1       3
       2       1       1       3       2       1       1       3       2       1
       1       3       2       1       1       3       2       1       1       3
       2       1       1       3       2       1       1       3       2       1
       1       3       2       1       1       3       2       1       1       3
       2       1       1       3       2       1       1       3       2       1
       1       3       2       1       1       3       2       1       1       3
       2       1       1       3       2       1       1       3       2       1
       1       3       2       1       1       3       2       1       1       3
       2       1       1       3       2       1       1       3       2       1
       1       3       2       1       1       3       2       1       1       3
       2       1       1       3       2       1       1       3       2       1
       1       3       2       1       1       3       2       1       1       3
       2       1       1       3       2       1       1       3       2       1
       1       3       2       1       1       3       2       1       1       3
       2       1       1       3       2       1       1       3       2       1
       1       3       2       1       1       3       2       1       1       3
       2       1       1       3       2       1       1       3       2       1
       1       3       2       1       1       3       2       1       1       3
       2       1       1       3       2       1       1       3       2       1
       1       3       2       1       1       3       2       1       1       3
       2       1       1       3       2       1       1       3       2       1
       1       3       2       1       1       3       2       1       1       3
       2       1       1       3       2       1       1       3       2       1
       1       3       2       1       1       3       2       1       1       3
       2       1       1       3       2       1       1       3       2       1
       1       3       2       1       1       3       2       1       1       3
       2       1       1       3       2       1       1       3       2       1
       1       3       2       1       1       3       2       1       1       3
       2       1       1       3       2       1       1       3       2       1
       1       3       2       1       1       3       2       1       1       3
       2       1       1       3       2       1       1       3       2       1
       1       3       2       1       1       3       2       1       1       3
       2       1       1       3       2       1       1       3       2       1
       1       3       2       1       1       3       2       1       1       3
       2       1       1       3       2       1       1       3       2       1
       1       3       2       1       1       3       2       1       1       3
       2       1       1       3       2       1       1       3       2       1
       1       3       2       1       1       3       2       1       1       3
       2       1       1       3       2       1       1       3       2       1
       1       3       2       1       1       3       2       1       1       3
       2       1       1       3       2       1       1       3       2       1
       1       3       2       1       1       3       2       1       1       3
       2       1       1       3       2       1       1       3       2       1
       1       3       2       1       1       3       2       1       1       3
       2       1       1       3       2       1       1       3       2       1
       1       3       2       1       1       3       2       1       1       3
       2       1       1       3       2       1       1       3       2       1
       1       3       2       1       1       3       2       1       1       3
       2       1       1       3       2       1       1       3       2       1
       1       3       2       1       1       3       2       1       1       3
       2       1       1       3       2       1       1       3       2       1
       1       3       2       1       1       3       2       1       1       3
       2       1       1       3       2       1       1       3       2       1
       1       3       2       1       1       3       2       1       1       3
       2       1       1       3       2       1       1       3       2       1
       1       3       2       1       1       3       2       1       1       3
       2       1       1       3       2       1       1       3       2       1
       1       3       2       1       1       3       2       1       1       3
       2       1       1       3       2       1       1       3       2       1
       1       3       2       1       1       3       2       1       1       3
       2       1       1       3       2       1       1       3       2       1
       1       3       2       1       1       3       2       1       1       3
       2       1       1       3       2       1       1       3       2       1
       1       3       2       1       1       3       2       1       1       3
       2       1       1       3       2       1       1       3       2       1
       1       3       2       1       1       3       2       1       1       3
       2       1       1       3       2       1       1       3       2       1
       1       3       2       1       1       3       2       1       1       3
       2       1       1       3       2       1       1       3       2       1
       1       3       2       1       1       3       2       1       1       3
       2       1       1       3       2       1       1       3       2       1
       1       3       2       1       1       3       2       1       1       3
       2       1       1       3       2       1       1       3       2       1
       1       3       2       1       1       3       2       1       1       3
       2       1       1       3       2       1       1       3       2       1
       1       3       2       1       1       3       2       1       1       3
       2       1       1       3       2       1       1       3       2       1
       1       3       2       1       1       3       2       1       1       3
       2       1       1       3       2       1       1       3       2       1
       1       3       2       1       1       3       2       1       1       3
       2       1       1       3       2       1       1       3       2       1
       1       3       2       1       1       3       2       1       1       3
       2       1       1       3       2       1       1       3       2       1
       1       3       2       1       1       3       2       1       1       3
       2       1       1       3       2       1       1       3       2       1
       1       3       2       1       1       3       2       1       1       3
       2       1       1       3       2       1       1       3       2       1
       1       3       2       1       1       3       2       1       1       3
       2       1       1       3       2       1       1       3       2       1
       1       3       2       1       1       3       2       1       1       3
       2       1       1       3       2       1       1       3       2       1
       1       3       2       1       1       3       2       1       1       3
       2       1       1       3       2       1       1       3       2       1
       1       3       2       1       1       3       2       1       1       3
       2       1       1       3       2       1       1       3       2       1
       1       3       2       1       1       3       2       1       1       3
       2       1       1       3       2       1       1       3       2       1
       1       3       2       1       1       3       2       1       1       3
       2       1       1       3       2       1       1       3       2       1
       1       3       2       1       1       3       2       1       1       3
       2       1       1       3       2       1       1       3       2       1
       1       3       2       1       1       3       2       1       1       3
       2       1       1       3       2       1       1       3       2       1
       1       3       2       1       1       3       2       1       1       3
       2       1       1       3       2       1       1       3       2       1
       1       3       2       1       1       3       2       1       1       3
       2       1       1       3       2       1       1       3       2       1
       1       3       2       1       1       3       2       1       1       3
       2       1       1       3       2       1       1       3       2       1
       1       3       2       1       1       3       2       1       1       3
       2       1       1       3       2       1       1       3       2       1
       1       3       2       1       1       3       2       1       1       3
       2       1       1       3       2       1       1       3       2       1
       1       3       2       1       1       3       2       1       1       3
       2       1       1       3       2       1       1       3       2       1
       1       3       2       1       1       3       2       1       1       3
       2       1       1       3       2       1       1       3       2       1
       1       3       2       1       1       3       2       1       1       3
       2       1       1       3       2       1       1       3       2       1
       1       3       2       1       1       3       2       1       1       3
       2       1       1       3       2       1       1       3       2       1
       1       3       2       1       1       3       2       1       1       3
       2       1       1       3       2       1       1       3       2       1
       1       3       2       1       1       3       2       1       1       3
       2       1       1       3       2       1       1       3       2       1
       1       3       2       1       1       3       2       1       1       3
       2       1       1       3       2       1       1       3       2       1
       1       3       2       1       1       3       2       1       1       3
       2       1       1       3       2       1       1       3       2       1
       1       3       2       1       1       3       2       1       1       3
       2       1       1       3       2       1       1       3       2       1
       1       3       2       1       1       3       2       1       1       3
       2       1       1       3       2       1       1       3       2       1
       1       3       2       1       1       3       2       1       1       3
       2       1       1       3       2       1       1       3       2       1
       1       3       2       1       1       3       2       1       1       3
       2       1       1       3       2       1       1       3       2       1
       1       3       2       1       1       3       2       1       1       3
       2       1       1       3       2       1       1       3       2       1
       1       3       2       1       1       3       2       1       1       3
       2       1       1       3       2       1       1       3       2       1
       1       3       2       1       1       3       2       1       1       3
       2       1       1       3       2       1       1       3       2       1
       1       3       2       1       1       3       2       1       1       3
       2       1       1       3       2       1       1       3       2       1
       1       3       2       1       1       3       2       1       1       3
       2       1       1       3       2       1       1       3       2       1
       1       3       2       1       1       3       2       1       1       3
       2       1       1       3       2       1       1       3       2       1
       1       3       2       1       1       3       2       1       1       3
       2       1       1       3       2       1       1       3       2       1
       1       3       2       1       1       3       2       1       1       3
       2       1       1       3       2       1       1       3       2       1
       1       3       2       1       1       3       2       1       1       3
       2       1       1       3       2       1       1       3       2       1
       1       3       2       1       1       3       2       1       1       3
       2       1       1       3       2       1       1       3       2       1
       1       3       2       1       1       3       2       1       1       3
       2       1       1       3       2       1       1       3       2       1
       1       3       2       1       1       3       2       1       1       3
       2       1       1       3       2       1       1       3       2       1
       1       3       2       1       1       3       2       1       1       3
       2       1       1       3       2       1       1       3       2       1
       1       3       2       1       1       3       2       1       1       3
       2       1       1       3       2       1       1       3       2       1
       1       3       2       1       1       3       2       1       1       3
       2       1       1       3       2       1       1       3       2       1
       1       3       2       1       1       3       2       1       1       3
       2       1       1       3       2       1       1       3       2       1
       1       3       2       1       1       3       2       1       1       3
       2       1       1       3       2       1       1       3       2       1
       1       3       2       1       1       3       2       1       1       3
       2       1       1       3       2       1       1       3       2       1
       1       3       2       1       1       3       2       1       1       3
       2       1       1       3       2       1       1       3       2       1
       1       3       2       1       1       3       2       1       1       3
       2       1       1       3       2       1       1       3       2       1
       1       3       2       1       1       3       2       1       1       3
       2       1       1       3       2       1       1       3       2       1
       1       3       2       1       1       3       2       1       1       3
       2       1       1       3       2       1       1       3       2       1
       1       3       2       1       1       3       2       1       1       3
       2       1       1       3       2       1       1       3       2       1
       1       3       2       1       1       3       2       1       1       3
       2       1       1       3       2       1       1       3       2       1
       1       3       2       1       1       3       2       1       1       3
       2       1       1       3       2       1       1       3       2       1
       1       3       2       1       1       3       2       1       1       3
       2       1       1       3       2       1       1       3       2       1
       1       3       2       1       1       3       2       1       1       3
       2       1       1       3       2       1       1       3       2       1
       1       3       2       1       1       3       2       1       1       3
       2       1       1       3       2       1       1       3       2       1
       1       3       2       1       1       3       2       1       1       3
       2       1       1       3       2       1       1       3       2       1
       1       3       2       1       1       3       2       1       1       3
       2       1       1       3       2       1       1       3       2       1
       1       3       2       1       1       3       2       1       1       3
       2       1       1       3       2       1       1       3       2       1
       1       3       2       1       1       3       2       1       1       3
       2       1       1       3       2       1       1       3       2       1
       1       3       2       1       1       3       2       1       1       3
       2       1       1       3       2       1       1       3       2       1
       1       3       2       1       1       3       2       1       1       3
       2       1       1       3       2       1       1       3       2       1
       1       3       2       1       1       3       2       1       1       3
       2       1       1       3       2       1       1       3       2       1
       1       3       2       1       1       3       2       1       1       3
       2       1       1       3       2       1       1       3       2       1
       1       3       2       1       1       3       2       1       1       3
       2       1       1       3       2       1       1       3       2       1
       1       3       2       1       1       3       2       1       1       3
       2       1       1       3       2       1       1       3       2       1
       1       3       2       1       1       3       2       1       1       3
       2       1       1       3       2       1       1       3       2       1
       1       3       2       1       1       3       2       1       1       3
       2       1       1       3       2       1       1       3       2       1
       1       3       2       1       1       3       2       1       1       3
       2       1       1       3       2       1       1       3       2       1
       1       3       2       1       1       3       2       1       1       3
       2       1       1       3       2       1       1       3       2       1
       1       3       2       1       1       3       2       1       1       3
       2       1       1       3       2       1       1       3       2       1
       1       3       2       1       1       3       2       1       1       3
       2       1       1       3       2       1       1       3       2       1
       1       3       2       1       1       3       2       1       1       3
       2       1       1       3       2       1       1       3       2       1
       1       3       2       1       1       3       2       1       1       3
       2       1       1       3       2       1       1       3       2       1
       1       3       2       1       1       3       2       1       1       3
       2       1       1       3       2       1       1       3       2       1
       1       3       2       1       1       3       2       1       1       3
       2       1       1       3       2       1       1       3       2       1
       1       3       2       1       1       3       2       1       1       3
       2       1       1       3       2       1       1       3       2       1
       1       3       2       1       1       3       2       1       1       3
       2       1       1       3       2       1       1       3       2       1
       1       3       2       1       1       3       2       1       1       3
       2       1       1       3       2       1       1       3       2       1
       1       3       2       1       1       3       2       1       1       3
       2       1       1       3       2       1       1       3       2       1
       1       3       2       1       1       3       2       1       1       3
       2       1       1       3       2       1       1       3       2       1
       1       3       2       1       1       3       2       1       1       3
       2       1       1       3       2       1       1       3       2       1
       1       3       2       1       1       3       2       1       1       3
       2       1       1       3       2       1       1       3       2       1
       1       3       2       1       1       3       2       1       1       3
       2       1       1       3       2       1       1       3       2       1
       1       3       2       1       1       3       2       1       1       3
       2       1       1       3       2       1       1       3       2       1
       1       3       2       1       1       3       2       1       1       3
       2       1       1       3       2       1       1       3       2       1
       1       3       2       1       1       3       2       1       1       3
       2       1       1       3       2       1       1       3       2       1
       1       3       2       1       1       3       2       1       1       3
       2       1       1       3       2       1       1       3       2       1
       1       3       2       1       1       3       2       1       1       3
       2       1       1       3       2       1       1       3       2       1
       1       3       2       1       1       3       2       1       1       3
       2       1       1       3       2       1       1       3       2       1
       1       3       2       1       1       3       2       1       1       3
       2       1       1       3       2       1       1       3       2       1
       1       3       2       1       1       3       2       1       1       3
       2       1       1       3       2       1       1       3       2       1
       1       3       2       1       1       3       2       1       1       3
       2       1       1       3       2       1       1       3       2       1
       1       3       2       1       1       3       2       1       1       3
       2       1       1       3       2       1       1       3       2       1
       1       3       2       1       1       3       2       1       1       3
       2       1       1       3       2       1       1       3       2       1
       1       3       2       1       1       3       2       1       1       3
       2       1       1       3       2       1       1       3       2       1
       1       3       2       1       1       3       2       1       1       3
       2       1       1       3       2       1       1       3       2       1
       1       3       2       1       1       3       2       1       1       3
       2       1       1       3       2       1       1       3       2       1
       1       3       2       1       1       3       2       1       1       3
       2       1       1       3       2       1       1       3       2       1
       1       3       2       1       1       3       2       1       1       3
       2       1       1       3       2       1       1       3       2       1
       1       3       2       1       1       3       2       1       1       3
       2       1       1       3       2       1       1       3       2       1
       1       3       2       1       1       3       2       1       1       3
       2       1       1       3       2       1       1       3       2       1
       1       3       2       1       1       3       2       1       1       3
       2       1       1       3       2       1       1       3       2       1
       1       3       2       1       1       3       2       1       1       3
       2       1       1       3       2       1       1       3       2       1
       1       3       2       1       1       3       2       1       1       3
       2       1       1       3       2       1       1       3       2       1
       1       3       2       1       1       3       2       1       1       3
       2       1       1       3       2       1       1       3       2       1
       1       3       2       1       1       3       2       1       1       3
       2       1       1       3       2       1       1       3       2       1
       1       3       2       1       1       3       2       1       1       3
       2       1       1       3       2       1       1       3       2       1
       1       3       2       1       1       3       2       1       1       3
       2       1       1       3       2       1       1       3       2       1
       1       3       2       1       1       3       2       1       1       3
       2       1       1       3       2       1       1       3       2       1
       1       3       2       1       1       3       2       1       1       3
       2       1       1       3       2       1       1       3       2       1
       1       3       2       1       1       3       2       1       1       3
       2       1       1       3       2       1       1       3       2       1
       1       3       2       1       1       3       2       1       1       3
       2       1       1       3       2       1       1       3       2       1
       1       3       2       1       1       3       2       1       1       3
       2       1       1       3       2       1       1       3       2       1
       1       3       2       1       1       3       2       1       1       3
       2       1       1       3       2       1       1       3       2       1
       1       3       2       1       1       3       2       1       1       3
       2       1       1       3       2       1       1       3       2       1
       1       3       2       1       1       3       2       1       1       3
       2       1       1       3       2       1       1       3       2       1
       1       3       2       1       1       3       2       1       1       3
       2       1       1       3       2       1       1       3       2       1
       1       3       2       1       1       3       2       1       1       3
       2       1       1       3       2       1       1       3       2       1
       1       3       2       1       1       3       2       1       1       3
       2       1       1       3       2       1       1       3       2       1
       1       3       2       1       1       3       2       1       1       3
       2       1       1       3       2       1       1       3       2       1
       1       3       2       1       1       3       2       1       1       3
       2       1       1       3       2       1       1       3       2       1
       1       3       2       1       1       3       2       1       1       3
       2       1       1       3       2       1       1       3       2       1
       1       3       2       1       1       3       2       1       1       3
       2       1       1       3       2       1       1       3       2       1
       1       3       2       1       1       3       2       1       1       3
       2       1       1       3       2       1       1       3       2       1
       1       3       2       1       1       3       2       1       1       3
       2       1       1       3       2       1       1       3       2       1
       1       3       2       1       1       3       2       1       1       3
       2       1       1       3       2       1       1       3       2       1
       1       3       2       1       1       3       2       1       1       3
       2       1       1       3       2       1       1       3       2       1
       1       3       2       1       1       3       2       1       1       3
       2       1       1       3       2       1       1       3       2       1
       1       3       2       1       1       3       2       1       1       3
       2       1       1       3       2       1       1       3       2       1
       1       3       2       1       1       3       2       1       1       3
       2       1       1       3       2       1       1       3       2       1
       1       3       2       1       1       3       2       1       1       3
       2       1       1       3       2       1       1       3       2       1
       1       3       2       1       1       3       2       1       1       3
       2       1       1       3       2       1       1       3       2       1
       1       3       2       1       1       3       2       1       1       3
       2       1       1       3       2       1       1       3       2       1
       1       3       2       1       1       3       2       1       1       3
       2       1       1       3       2       1       1       3       2       1
       1       3       2       1       1       3       2       1       1       3
       2       1       1       3       2       1       1       3       2       1
       1       3       2       1       1       3       2       1       1       3
       2       1       1       3       2       1       1       3       2       1
       1       3       2       1       1       3       2       1       1       3
       2       1       1       3       2       1       1       3       2       1
       1       3       2       1       1       3       2       1       1       3
       2       1       1       3       2       1       1       3       2       1
       1       3       2       1       1       3       2       1       1       3
       2       1       1       3       2       1       1       3       2       1
       1       3       2       1       1       3       2       1       1       3
       2       1       1       3       2       1       1       3       2       1
       1       3       2       1       1       3       2       1       1       3
       2       1       1       3       2       1       1       3       2       1
       1       3       2       1       1       3       2       1       1       3
       2       1       1       3       2       1       1       3       2       1
       1       3       2       1       1       3       2       1       1       3
       2       1       1       3       2       1       1       3       2       1
       1       3       2       1       1       3       2       1       1       3
       2       1       1       3       2       1       1       3       2       1
       1       3       2       1       1       3       2       1       1       3
       2       1       1       3       2       1       1       3       2       1
       1       3       2       1       1       3       2       1       1       3
       2       1       1       3       2       1       1       3       2       1
       1       3       2       1       1       3       2       1       1       3
       2       1       1       3       2       1       1       3       2       1
       1       3       2       1       1       3       2       1       1       3
       2       1       1       3       2       1       1       3       2       1
       1       3       2       1       1       3       2       1       1       3
       2       1       1       3       2       1       1       3       2       1
       1       3       2       1       1       3       2       1       1       3
       2       1       1       3       2       1       1       3       2       1
       1       3       2       1       1       3       2       1       1       3
       2       1       1       3       2       1       1       3       2       1
       1       3       2       1       1       3       2       1       1       3
       2       1       1       3       2       1       1       3       2       1
       1       3       2       1       1       3       2       1       1       3
       2       1       1       3       2       1       1       3       2       1
       1       3       2       1       1       3       2       1       1       3
       2       1       1       3       2       1       1       3       2       1
       1       3       2       1       1       3       2       1       1       3
       2       1       1       3       2       1       1       3       2       1
       1       3       2       1       1       3       2       1       1       3
       2       1       1       3       2       1       1       3       2       1
       1       3       2       1       1       3       2       1       1       3
       2       1       1       3       2       1       1       3       2       1
       1       3       2       1       1       3       2       1       1       3
       2       1       1       3       2       1       1       3       2       1
       1       3       2       1       1       3       2       1       1       3
       2       1       1       3       2       1       1       3       2       1
       1       3       2       1       1       3       2       1       1       3
       2       1       1       3       2       1       1       3       2       1
       1       3       2       1       1       3       2       1       1       3
       2       1       1       3       2       1       1       3       2       1
       1       3       2       1       1       3       2       1       1       3
       2       1       1       3       2       1       1       3       2       1
       1       3       2       1       1       3       2       1       1       3
       2       1       1       3       2       1       1       3       2       1
       1       3       2       1       1       3       2       1       1       3
       2       1       1       3       2       1       1       3       2       1
       1       3       2       1       1       3       2       1       1       3
       2       1       1       3       2       1       1       3       2       1
       1       3       2       1       1       3       2       1       1       3
       2       1       1       3       2       1       1       3       2       1
       1       3       2       1       1       3       2       1       1       3
       2       1       1       3       2       1       1       3       2       1
       1       3       2       1       1       3       2       1       1       3
       2       1       1       3       2       1       1       3       2       1
       1       3       2       1       1       3       2       1       1       3
       2       1       1       3       2       1       1       3       2       1
       1       3       2       1       1       3       2       1       1       3
       2       1       1       3       2       1       1       3       2       1
       1       3       2       1       1       3       2       1       1       3
       2       1       1       3       2       1       1       3       2       1
       1       3       2       1       1       3       2       1       1       3
       2       1       1       3       2       1       1       3       2       1
       1       3       2       1       1       3       2       1       1       3
       2       1       1       3       2       1       1       3       2       1
       1       3       2       1       1       3       2       1       1       3
       2       1       1       3       2       1       1       3       2       1
       1       3       2       1       1       3       2       1       1       3
       2       1       1       3       2       1       1       3       2       1
       1       3       2       1       1       3       2       1       1       3
       2       1       1       3       2       1       1       3       2       1
       1       3       2       1       1       3       2       1       1       3
       2       1       1       3       2       1       1       3       2       1
       1       3       2       1       1       3       2       1       1       3
       2       1       1       3       2       1       1       3       2       1
       1       3       2       1       1       3       2       1       1       3
       2       1       1       3       2       1       1       3       2       1
       1       3       2       1       1       3       2       1       1       3
       2       1       1       3       2       1       1       3       2       1
       1       3       2       1       1       3       2       1       1       3
       2       1       1       3       2       1       1       3       2       1
       1       3       2       1       1       3       2       1       1       3
       2       1       1       3       2       1       1       3       2       1
       1       3       2       1       1       3       2       1       1       3
       2       1       1       3       2       1       1       3       2       1
       1       3       2       1       1       3       2       1       1       3
       2       1       1       3       2       1       1       3       2       1
       1       3       2       1       1       3       2       1       1       3
       2       1       1       3       2       1       1       3       2       1
       1       3       2       1       1       3       2       1       1       3
       2       1       1       3       2       1       1       3       2       1
       1       3       2       1       1       3       2       1       1       3
       2       1       1       3       2       1       1       3       2       1
       1       3       2       1       1       3       2       1       1       3
       2       1       1       3       2       1       1       3       2       1
       1       3       2       1       1       3       2       1       1       3
       2       1       1       3       2       1       1       3       2       1
       1       3       2       1       1       3       2       1       1       3
       2       1       1       3       2       1       1       3       2       1
       1       3       2       1       1       3       2       1       1       3
       2       1       1       3       2       1       1       3       2       1
       1       3       2       1       1       3       2       1       1       3
       2       1       1       3       2       1       1       3       2       1
       1       3       2       1       1       3       2       1       1       3
       2       1       1       3       2       1       1       3       2       1
       1       3       2       1       1       3       2       1       1       3
       2       1       1       3       2       1       1       3       2       1
       1       3       2       1       1       3       2       1       1       3
       2       1       1       3       2       1       1       3       2       1
       1       3       2       1       1       3       2       1       1       3
       2       1       1       3       2       1       1       3       2       1
       1       3       2       1       1       3       2       1       1       3
       2       1       1       3       2       1       1       3       2       1
       1       3       2       1       1       3       2       1       1       3
       2       1       1       3       2       1       1       3       2       1
       1       3       2       1       1       3       2       1       1       3
       2       1       1       3       2       1       1       3       2       1
       1       3       2       1       1       3       2       1       1       3
       2       1       1       3       2       1       1       3       2       1
       1       3       2       1       1       3       2       1       1       3
       2       1       1       3       2       1       1       3       2       1
       1       3       2       1       1       3       2       1       1       3
       2       1       1       3       2       1       1       3       2       1
       1       3       2       1       1       3       2       1       1       3
       2       1       1       3       2       1       1       3       2       1
       1       3       2       1       1       3       2       1       1       3
       2       1       1       3       2       1       1       3       2       1
       1       3       2       1       1       3       2       1       1       3
       2       1       1       3       2       1       1       3       2       1
       1       3       2       1       1       3       2       1       1       3
       2       1       1       3       2       1       1       3       2       1
       1       3       2       1       1       3       2       1       1       3
       2       1       1       3       2       1       1       3       2       1
       1       3       2       1       1       3       2       1       1       3
       2       1       1       3       2       1       1       3       2       1
       1       3       2       1       1       3       2       1       1       3
       2       1       1       3       2       1       1       3       2       1
       1       3       2       1       1       3       2       1       1       3
       2       1       1       3       2       1       1       3       2       1
       1       3       2       1       1       3       2       1       1       3
       2       1       1       3       2       1       1       3       2       1
       1       3       2       1       1       3       2       1       1       3
       2       1       1       3       2       1       1       3       2       1
       1       3       2       1       1       3       2       1       1       3
       2       1       1       3       2       1       1       3       2       1
       1       3       2       1       1       3       2       1       1       3
       2       1       1       3       2       1       1       3       2       1
       1       3       2       1       1       3       2       1       1       3
       2       1       1       3       2       1       1       3       2       1
       1       3       2       1       1       3       2       1       1       3
       2       1       1       3       2       1       1       3       2       1
       1       3       2       1       1       3       2       1       1       3
       2       1       1       3       2       1       1       3       2       1
       1       3       2       1       1       3       2       1       1       3
       2       1       1       3       2       1       1       3       2       1
       1       3       2       1       1       3       2       1       1       3
       2       1       1       3       2       1       1       3       2       1
       1       3       2       1       1       3       2       1       1       3
       2       1       1       3       2       1       1       3       2       1
       1       3       2       1       1       3       2       1       1       3
       2       1       1       3       2       1       1       3       2       1
       1       3       2       1       1       3       2       1       1       3
       2       1       1       3       2       1       1       3       2       1
       1       3       2       1       1       3       2       1       1       3
       2       1       1       3       2       1       1       3       2       1
       1       3       2       1       1       3       2       1       1       3
       2       1       1       3       2       1       1       3       2       1
       1       3       2       1       1       3       2       1       1       3
       2       1       1       3       2       1       1       3       2       1
       1       3       2       1       1       3       2       1       1       3
       2       1       1       3       2       1       1       3       2       1
       1       3       2       1       1       3       2       1       1       3
       2       1       1       3       2       1       1       3       2       1
       1       3       2       1       1       3       2       1       1       3
       2       1       1       3       2       1       1       3       2       1
       1       3       2       1       1       3       2       1       1       3
       2       1       1       3       2       1       1       3       2       1
       1       3       2       1       1       3       2       1       1       3
       2       1       1       3       2       1       1       3       2       1
       1       3       2       1       1       3       2       1       1       3
       2       1       1       3       2       1       1       3       2       1
       1       3       2       1       1       3       2       1       1       3
       2       1       1       3       2       1       1       3       2       1
       1       3       2       1       1       3       2       1       1       3
       2       1       1       3       2       1       1       3       2       1
       1       3       2       1       1       3       2       1       1       3
       2       1       1       3       2       1       1       3       2       1
       1       3       2       1       1       3       2       1       1       3
       2       1       1       3       2       1       1       3       2       1
       1       3       2       1       1       3       2       1       1       3
       2       1       1       3       2       1       1       3       2       1
       1       3       2       1       1       3       2       1       1       3
       2       1       1       3       2       1       1       3       2       1
       1       3       2       1       1       3       2       1       1       3
       2       1       1       3       2       1       1       3       2       1
       1       3       2       1       1       3       2       1       1       3
       2       1       1       3       2       1       1       3       2       1
       1       3       2       1       1       3       2       1       1       3
       2       1       1       3       2       1       1       3       2       1
       1       3       2       1       1       3       2       1       1       3
       2       1       1       3       2       1       1       3       2       1
       1       3       2       1       1       3       2       1       1       3
       2       1       1       3       2       1       1       3       2       1
       1       3       2       1       1       3       2       1       1       3
       2       1       1       3       2       1       1       3       2       1
       1       3       2       1       1       3       2       1       1       3
       2       1       1       3       2       1       1       3       2       1
       1       3       2       1       1       3       2       1       1       3
       2       1       1       3       2       1       1       3       2       1
       1       3       2       1       1       3       2       1       1       3
       2       1       1       3       2       1       1       3       2       1
       1       3       2       1       1       3       2       1       1       3
       2       1       1       3       2       1       1       3       2       1
       1       3       2       1       1       3       2       1       1       3
       2       1       1       3       2       1       1       3       2       1
       1       3       2       1       1       3       2       1       1       3
       2       1       1       3       2       1       1       3       2       1
       1       3       2       1       1       3       2       1       1       3
       2       1       1       3       2       1       1       3       2       1
       1       3       2       1       1       3       2       1       1       3
       2       1       1       3       2       1       1       3       2       1
       1       3       2       1       1       3       2       1       1       3
       2       1       1       3       2       1       1       3       2       1
       1       3       2       1       1       3       2       1       1       3
       2       1       1       3       2       1       1       3       2       1
       1       3       2       1       1       3       2       1       1       3
       2       1       1       3       2       1       1       3       2       1
       1       3       2       1       1       3       2       1       1       3
       2       1       1       3       2       1       1       3       2       1
       1       3       2       1       1       3       2       1       1       3
       2       1       1       3       2       1       1       3       2       1
       1       3       2       1       1       3       2       1       1       3
       2       1       1       3       2       1       1       3       2       1
       1       3       2       1       1       3       2       1       1       3
       2       1       1       3       2       1       1       3       2       1
       1       3       2       1       1       3       2       1       1       3
       2       1       1       3       2       1       1       3       2       1
       1       3       2       1       1       3       2       1       1       3
       2       1       1       3       2       1       1       3       2       1
       1       3       2       1       1       3       2       1       1       3
       2       1       1       3       2       1       1       3       2       1
       1       3       2       1       1       3       2       1       1       3
       2       1       1       3       2       1       1       3       2       1
       1       3       2       1       1       3       2       1       1       3
       2       1       1       3       2       1       1       3       2       1
       1       3       2       1       1       3       2       1       1       3
       2       1       1       3       2       1       1       3       2       1
       1       3       2       1       1       3       2       1       1       3
       2       1       1       3       2       1       1       3       2       1
       1       3       2       1       1       3       2       1       1       3
       2       1       1       3       2       1       1       3       2       1
       1       3       2       1       1       3       2       1       1       3
       2       1       1       3       2       1       1       3       2       1
       1       3       2       1       1       3       2       1       1       3
       2       1       1       3       2       1       1       3       2       1
       1       3       2       1       1       3       2       1       1       3
       2       1       1       3       2       1       1       3       2       1
       1       3       2       1       1       3       2       1       1       3
       2       1       1       3       2       1       1       3       2       1
       1       3       2       1       1       3       2       1       1       3
       2       1       1       3       2       1       1       3       2       1
       1       3       2       1       1       3       2       1       1       3
       2       1       1       3       2       1       1       3       2       1
       1       3       2       1       1       3       2       1       1       3
       2       1       1       3       2       1       1       3       2       1
       1       3       2       1       1       3       2       1       1       3
       2       1       1       3       2       1       1       3       2       1
       1       3       2       1       1       3       2       1       1       3
       2       1       1       3       2       1       1       3       2       1
       1       3       2       1       1       3       2       1       1       3
       2       1       1       3       2       1       1       3       2       1
       1       3       2       1       1       3       2       1       1       3
       2       1       1       3       2       1       1       3       2       1
       1       3       2       1       1       3       2       1       1       3
       2       1       1       3       2       1       1       3       2       1
       1       3       2       1       1       3       2       1       1       3
       2       1       1       3       2       1       1       3       2       1
       1       3       2       1       1       3       2       1       1       3
       2       1       1       3       2       1       1       3       2       1
       1       3       2       1       1       3       2       1       1       3
       2       1       1       3       2       1       1       3       2       1
       1       3       2       1       1       3       2       1       1       3
       2       1       1       3       2       1       1       3       2       1
       1       3       2       1       1       3       2       1       1       3
       2       1       1       3       2       1       1       3       2       1
       1       3       2       1       1       3       2       1       1       3
       2       1       1       3       2       1       1       3       2       1
       1       3       2       1       1       3       2       1       1       3
       2       1       1       3       2       1       1       3       2       1
       1       3       2       1       1       3       2       1       1       3
       2       1       1       3       2       1       1       3       2       1
       1       3       2       1       1       3       2       1       1       3
       2       1       1       3       2       1       1       3       2       1
       1       3       2       1       1       3       2       1       1       3
       2       1       1       3       2       1       1       3       2       1
       1       3       2       1       1       3       2       1       1       3
       2       1       1       3       2       1       1       3       2       1
       1       3       2       1       1       3       2       1       1       3
       2       1       1       3       2       1       1       3       2       1
       1       3       2       1       1       3       2       1       1       3
       2       1       1       3       2       1       1       3       2       1
       1       3       2       1       1       3       2       1       1       3
       2       1       1       3       2       1       1       3       2       1
       1       3       2       1       1       3       2       1       1       3
       2       1       1       3       2       1       1       3       2       1
       1       3       2       1       1       3       2       1       1       3
       2       1       1       3       2       1       1       3       2       1
       1       3       2       1       1       3       2       1       1       3
       2       1       1       3       2       1       1       3       2       1
       1       3       2       1       1       3       2       1       1       3
       2       1       1       3       2       1       1       3       2       1
       1       3       2       1       1       3       2       1       1       3
       2       1       1       3       2       1       1       3       2       1
       1       3       2       1       1       3       2       1       1       3
       2       1       1       3       2       1       1       3       2       1
       1       3       2       1       1       3       2       1       1       3
       2       1       1       3       2       1       1       3       2       1
       1       3       2       1       1       3       2       1       1       3
       2       1       1       3       2       1       1       3       2       1
       1       3       2       1       1       3       2       1       1       3
       2       1       1       3       2       1       1       3       2       1
       1       3       2       1       1       3       2       1       1       3
       2       1       1       3       2       1       1       3       2       1
       1       3       2       1       1       3       2       1       1       3
       2       1       1       3       2       1       1       3       2       1
       1       3       2       1       1       3       2       1       1       3
       2       1       1       3       2       1       1       3       2       1
       1       3       2       1       1       3       2       1       1       3
       2       1       1       3       2       1       1       3       2       1
       1       3       2       1       1       3       2       1       1       3
       2       1       1       3       2       1       1       3       2       1
       1       3       2       1       1       3       2       1       1       3
       2       1       1       3       2       1       1       3       2       1
       1       3       2       1       1       3       2       1       1       3
       2       1       1       3       2       1       1       3       2       1
       1       3       2       1       1       3       2       1       1       3
       2       1       1       3       2       1       1       3       2       1
       1       3       2       1       1       3       2       1       1       3
       2       1       1       3       2       1       1       3       2       1
       1       3       2       1       1       3       2       1       1       3
       2       1       1       3       2       1       1       3       2       1
       1       3       2       1       1       3       2       1       1       3
       2       1       1       3       2       1       1       3       2       1
       1       3       2       1       1       3       2       1       1       3
       2       1       1       3       2       1       1       3       2       1
       1       3       2       1       1       3       2       1       1       3
       2       1       1       3       2       1       1       3       2       1
       1       3       2       1       1       3       2       1       1       3
       2       1       1       3       2       1       1       3       2       1
       1       3       2       1       1       3       2       1       1       3
       2       1       1       3       2       1       1       3       2       1
       1       3       2       1       1       3       2       1       1       3
       2       1       1       3       2       1       1       3       2       1
       1       3       2       1       1       3       2       1       1       3
       2       1       1       3       2       1       1       3       2       1
       1       3       2       1       1       3       2       1       1       3
       2       1       1       3       2       1       1       3       2       1
       1       3       2       1       1       3       2       1       1       3
       2       1       1       3       2       1       1       3       2       1
       1       3       2       1       1       3       2       1       1       3
       2       1       1       3       2       1       1       3       2       1
       1       3       2       1       1       3       2       1       1       3
       2       1       1       3       2       1       1       3       2       1
       1       3       2       1       1       3       2       1       1       3
       2       1       1       3       2       1       1       3       2       1
       1       3       2       1       1       3       2       1       1       3
       2       1       1       3       2       1       1       3       2       1
       1       3       2       1       1       3       2       1       1       3
       2       1       1       3       2       1       1       3       2       1
       1       3       2       1       1       3       2       1       1       3
       2       1       1       3       2       1       1       3       2       1
       1       3       2       1       1       3       2       1       1       3
       2       1       1       3       2       1       1       3       2       1
       1       3       2       1       1       3       2       1       1       3
       2       1       1       3       2       1       1       3       2       1
       1       3       2       1       1       3       2       1       1       3
       2       1       1       3       2       1       1       3       2       1
       1       3       2       1       1       3       2       1       1       3
       2       1       1       3       2       1       1       3       2       1
       1       3       2       1       1       3       2       1       1       3
       2       1       1       3       2       1       1       3       2       1
       1       3       2       1       1       3       2       1       1       3
       2       1       1       3       2       1       1       3       2       1
       1       3       2       1       1       3       2       1       1       3
       2       1       1       3       2       1       1       3       2       1
       1       3       2       1       1       3       2       1       1       3
       2       1       1       3       2       1       1       3       2       1
       1       3       2       1       1       3       2       1       1       3
       2       1       1       3       2       1       1       3       2       1
       1       3       2       1       1       3       2       1       1       3
       2       1       1       3       2       1       1       3       2       1
       1       3       2       1       1       3       2       1       1       3
       2       1       1       3       2       1       1       3       2       1
       1       3       2       1       1       3       2       1       1       3
       2       1       1       3       2       1       1       3       2       1
       1       3       2       1       1       3       2       1       1       3
       2       1       1       3       2       1       1       3       2       1
       1       3       2       1       1       3       2       1       1       3
       2       1       1       3       2       1       1       3       2       1
       1       3       2       1       1       3       2       1       1       3
       2       1       1       3       2       1       1       3       2       1
       1       3       2       1       1       3       2       1       1       3
       2       1       1       3       2       1       1       3       2       1
       1       3       2       1       1       3       2       1       1       3
       2       1       1       3       2       1       1       3       2       1
       1       3       2       1       1       3       2       1       1       3
       2       1       1       3       2       1       1       3       2       1
       1       3       2       1       1       3       2       1       1       3
       2       1       1       3       2       1       1       3       2       1
       1       3       2       1       1       3       2       1       1       3
       2       1       1       3       2       1       1       3       2       1
       1       3       2       1       1       3       2       1       1       3
       2       1       1       3       2       1       1       3       2       1
       1       3       2       1       1       3       2       1       1       3
       2       1       1       3       2       1       1       3       2       1
       1       3       2       1       1       3       2       1       1       3
       2       1       1       3       2       1       1       3       2       1
       1       3       2       1       1       3       2       1       1       3
       2       1       1       3       2       1       1       3       2       1
       1       3       2       1       1       3       2       1       1       3
       2       1       1       3       2       1       1       3       2       1
       1       3       2       1       1       3       2       1       1       3
       2       1       1       3       2       1       1       3       2       1
       1       3       2       1       1       3       2       1       1       3
       2       1       1       3       2       1       1       3       2       1
       1       3       2       1       1       3       2       1       1       3
       2       1       1       3       2       1       1       3       2       1
       1       3       2       1       1       3       2       1       1       3
       2       1       1       3       2       1       1       3       2       1
       1       3       2       1       1       3       2       1       1       3
       2       1       1       3       2       1       1       3       2       1
       1       3       2       1       1       3       2       1       1       3
       2       1       1       3       2       1       1       3       2       1
       1       3       2       1       1       3       2       1       1       3
       2       1       1       3       2       1       1       3       2       1
       1       3       2       1       1       3       2       1       1       3
       2       1       1       3       2       1       1       3       2       1
       1       3       2       1       1       3       2       1       1       3
       2       1       1       3       2       1       1       3       2       1
       1       3       2       1       1       3       2       1       1       3
       2       1       1       3       2       1       1       3       2       1
       1       3       2       1       1       3       2       1       1       3
       2       1       1       3       2       1       1       3       2       1
       1       3       2       1       1       3       2       1       1       3
       2       1       1       3       2       1       1       3       2       1
       1       3       2       1       1       3       2       1       1       3
       2       1       1       3       2       1       1       3       2       1
       1       3       2       1       1       3       2       1       1       3
       2       1       1       3       2       1       1       3       2       1
       1       3       2       1       1       3       2       1       1       3
       2       1       1       3       2       1       1       3       2       1
       1       3       2       1       1       3       2       1       1       3
       2       1       1       3       2       1       1       3       2       1
       1       3       2       1       1       3       2       1       1       3
       2       1       1       3       2       1       1       3       2       1
       1       3       2       1       1       3       2       1       1       3
       2       1       1       3       2       1       1       3       2       1
       1       3       2       1       1       3       2       1       1       3
       2       1       1       3       2       1       1       3       2       1
       1       3       2       1       1       3       2       1       1       3
       2       1       1       3       2       1       1       3       2       1
       1       3       2       1       1       3       2       1       1       3
       2       1       1       3       2       1       1       3       2       1
       1       3       2       1       1       3       2       1       1       3
       2       1       1       3       2       1       1       3       2       1
       1       3       2       1       1       3       2       1       1       3
       2       1       1       3       2       1       1       3       2       1
       1       3       2       1       1       3       2       1       1       3
       2       1       1       3       2       1       1       3       2       1
       1       3       2       1       1       3       2       1       1       3
       2       1       1       3       2       1       1       3       2       1
       1       3       2       1       1       3       2       1       1       3
       2       1       1       3       2       1       1       3       2       1
       1       3       2       1       1       3       2       1       1       3
       2       1       1       3       2       1       1       3       2       1
       1       3       2       1       1       3       2       1       1       3
       2       1       1       3       2       1       1       3       2       1
       1       3       2       1       1       3       2       1       1       3
       2       1       1       3       2       1       1       3       2       1
       1       3       2       1       1       3       2       1       1       3
       2       1       1       3       2       1       1       3       2       1
       1       3       2       1       1       3       2       1       1       3
       2       1       1       3       2       1       1       3       2       1
       1       3       2       1       1       3       2       1       1       3
       2       1       1       3       2       1       1       3       2       1
       1       3       2       1       1       3       2       1       1       3
       2       1       1       3       2       1       1       3       2       1
       1       3       2       1       1       3       2       1       1       3
       2       1       1       3       2       1       1       3       2       1
       1       3       2       1       1       3       2       1       1       3
       2       1       1       3       2       1       1       3       2       1
       1       3       2       1       1       3       2       1       1       3
       2       1       1       3       2       1       1       3       2       1
       1       3       2       1       1       3       2       1       1       3
       2       1       1       3       2       1       1       3       2       1
       1       3       2       1       1       3       2       1       1       3
       2       1       1       3       2       1       1       3       2       1
       1       3       2       1       1       3       2       1       1       3
       2       1       1       3       2       1       1       3       2       1
       1       3       2       1       1       3       2       1       1       3
       2       1       1       3       2       1       1       3       2       1
       1       3       2       1       1       3       2       1       1       3
       2       1       1       3       2       1       1       3       2       1
       1       3       2       1       1       3       2       1       1       3
       2       1       1       3       2       1       1       3       2       1
       1       3       2       1       1       3       2       1       1       3
       2       1       1       3       2       1       1       3       2       1
       1       3       2       1       1       3       2       1       1       3
       2       1       1       3       2       1       1       3       2       1
       1       3       2       1       1       3       2       1       1       3
       2       1       1       3       2       1       1       3       2       1
       1       3       2       1       1       3       2       1       1       3
       2       1       1       3       2       1       1       3       2       1
       1       3       2       1       1       3       2       1       1       3
       2       1       1       3       2       1       1       3       2       1
       1       3       2       1       1       3       2       1       1       3
       2       1       1       3       2       1       1       3       2       1
       1       3       2       1       1       3       2       1       1       3
       2       1       1       3       2       1       1       3       2       1
       1       3       2       1       1       3       2       1       1       3
       2       1       1       3       2       1       1       3       2       1
       1       3       2       1       1       3       2       1       1       3
       2       1       1       3       2       1       1       3       2       1
       1       3       2       1       1       3       2       1       1       3
       2       1       1       3       2       1       1       3       2       1
       1       3       2       1       1       3       2       1       1       3
       2       1       1       3       2       1       1       3       2       1
       1       3       2       1       1       3       2       1       1       3
       2       1       1       3       2       1       1       3       2       1
       1       3       2       1       1       3       2       1       1       3
       2       1       1       3       2       1       1       3       2       1
       1       3       2       1       1       3       2       1       1       3
       2       1       1       3       2       1       1       3       2       1
       1       3       2       1       1       3       2       1       1       3
       2       1       1       3       2       1       1       3       2       1
       1       3       2       1       1       3       2       1       1       3
       2       1       1       3       2       1       1       3       2       1
       1       3       2       1       1       3       2       1       1       3
       2       1       1       3       2       1       1       3       2       1
       1       3       2       1       1       3       2       1       1       3
       2       1       1       3       2       1       1       3       2       1
       1       3       2       1       1       3       2       1       1       3
       2       1       1       3       2       1       1       3       2       1
       1       3       2       1       1       3       2       1       1       3
       2       1       1       3       2       1       1       3       2       1
       1       3       2       1       1       3       2       1       1       3
       2       1       1       3       2       1       1       3       2       1
       1       3       2       1       1       3       2       1       1       3
       2       1       1       3       2       1       1       3       2       1
       1       3       2       1       1       3       2       1       1       3
       2       1       1       3       2       1       1       3       2       1
       1       3       2       1       1       3       2       1       1       3
       2       1       1       3       2       1       1       3       2       1
       1       3       2       1       1       3       2       1       1       3
       2       1       1       3       2       1       1       3       2       1
       1       3       2       1       1       3       2       1       1       3
       2       1       1       3       2       1       1       3       2       1
       1       3       2       1       1       3       2       1       1       3
       2       1       1       3       2       1       1       3       2       1
       1       3       2       1       1       3       2       1       1       3
       2       1       1       3       2       1       1       3       2       1
       1       3       2       1       1       3       2       1       1       3
       2       1       1       3       2       1       1       3       2       1
       1       3       2       1       1       3       2       1       1       3
       2       1       1       3       2       1       1       3       2       1
       1       3       2       1       1       3       2       1       1       3
       2       1       1       3       2       1       1       3       2       1
       1       3       2       1       1       3       2       1       1       3
       2       1       1       3       2       1       1       3       2       1
       1       3       2       1       1       3       2       1       1       3
       2       1       1       3       2       1       1       3       2       1
       1       3       2       1       1       3       2       1       1       3
       2       1       1       3       2       1       1       3       2       1
       1       3       2       1       1       3       2       1       1       3
       2       1       1       3       2       1       1       3       2       1
       1       3       2       1       1       3       2       1       1       3
       2       1       1       3       2       1       1       3       2       1
       1       3       2       1       1       3       2       1       1       3
       2       1       1       3       2       1       1       3       2       1
       1       3       2       1       1       3       2       1       1       3
       2       1       1       3       2       1       1       3       2       1
       1       3       2       1       1       3       2       1       1       3
       2       1       1       3       2       1       1       3       2       1
       1       3       2       1       1       3       2       1       1       3
       2       1       1       3       2       1       1       3       2       1
       1       3       2       1       1       3       2       1       1       3
       2       1       1       3       2       1       1       3       2       1
       1       3       2       1       1       3       2       1       1       3
       2       1       1       3       2       1       1       3       2       1
       1       3       2       1       1       3       2       1       1       3
       2       1       1       3       2       1       1       3       2       1
       1       3       2       1       1       3       2       1       1       3
       2       1       1       3       2       1       1       3       2       1
       1       3       2       1       1       3       2       1       1       3
       2       1       1       3       2       1       1       3       2       1
       1       3       2       1       1       3       2       1       1       3
       2       1       1       3       2       1       1       3       2       1
       1       3       2       1       1       3       2       1       1       3
       2       1       1       3       2       1       1       3       2       1
       1       3       2       1       1       3       2       1       1       3
       2       1       1       3       2       1       1       3       2       1
       1       3       2       1       1       3       2       1       1       3
       2       1       1       3       2       1       1       3       2       1
       1       3       2       1       1       3       2       1       1       3
       2       1       1       3       2       1       1       3       2       1
       1       3       2       1       1       3       2       1       1       3
       2       1       1       3       2       1       1       3       2       1
       1       3       2       1       1       3       2       1       1       3
       2       1       1       3       2       1       1       3       2       1
       1       3       2       1       1       3       2       1       1       3
       2       1       1       3       2       1       1       3       2       1
       1       3       2       1       1       3       2       1       1       3
       2       1       1       3       2       1       1       3       2       1
       1       3       2       1       1       3       2       1       1       3
       2       1       1       3       2       1       1       3       2       1
       1       3       2       1       1       3       2       1       1       3
       2       1       1       3       2       1       1       3       2       1
       1       3       2       1       1       3       2       1       1       3
       2       1       1       3       2       1       1       3       2       1
       1       3       2       1       1       3       2       1       1       3
       2       1       1       3       2       1       1       3       2       1
       1       3       2       1       1       3       2       1       1       3
       2       1       1       3       2       1       1       3       2       1
       1       3       2       1       1       3       2       1       1       3
       2       1       1       3       2       1       1       3       2       1
       1       3       2       1       1       3       2       1       1       3
       2       1       1       3       2       1       1       3       2       1
       1       3       2       1       1       3       2       1       1       3
       2       1       1       3       2       1       1       3       2       1
       1       3       2       1       1       3       2       1       1       3
       2       1       1       3       2       1       1       3       2       1
       1       3       2       1       1       3       2       1       1       3
       2       1       1       3       2       1       1       3       2       1
       1       3       2       1       1       3       2       1       1       3
       2       1       1       3       2       1       1       3       2       1
       1       3       2       1       1       3       2       1       1       3
       2       1       1       3       2       1       1       3       2       1
       1       3       2       1       1       3       2       1       1       3
       2       1       1       3       2       1       1       3       2       1
       1       3       2       1       1       3       2       1       1       3
       2       1       1       3       2       1       1       3       2       1
       1       3       2       1       1       3       2       1       1       3
       2       1       1       3       2       1       1       3       2       1
       1       3       2       1       1       3       2       1       1       3
       2       1       1       3       2       1       1       3       2       1
       1       3       2       1       1       3       2       1       1       3
       2       1       1       3       2       1       1       3       2       1
       1       3       2       1       1       3       2       1       1       3
       2       1       1       3       2       1       1       3       2       1
       1       3       2       1       1       3       2       1       1       3
       2       1       1       3       2       1       1       3       2       1
       1       3       2       1       1       3       2       1       1       3
       2       1       1       3       2       1       1       3       2       1
       1       3       2       1       1       3       2       1       1       3
       2       1       1       3       2       1       1       3       2       1
       1       3       2       1       1       3       2       1       1       3
       2       1       1       3       2       1       1       3       2       1
       1       3       2       1       1       3       2       1       1       3
       2       1       1       3       2       1       1       3       2       1
       1       3       2       1       1       3       2       1       1       3
       2       1       1       3       2       1       1       3       2       1
       1       3       2       1       1       3       2       1       1       3
       2       1       1       3       2       1       1       3       2       1
       1       3       2       1       1       3       2       1       1       3
       2       1       1       3       2       1       1       3       2       1
       1       3       2       1       1       3       2       1       1       3
       2       1       1       3       2       1       1       3       2       1
       1       3       2       1       1       3       2       1       1       3
       2       1       1       3       2       1       1       3       2       1
       1       3       2       1       1       3       2       1       1       3
       2       1       1       3       2       1       1       3       2       1
       1       3       2       1       1       3       2       1       1       3
       2       1       1       3       2       1       1       3       2       1
       1       3       2       1       1       3       2       1       1       3
       2       1       1       3       2       1       1       3       2       1
       1       3       2       1       1       3       2       1       1       3
       2       1       1       3       2       1       1       3       2       1
       1       3       2       1       1       3       2       1       1       3
       2       1       1       3       2       1       1       3       2       1
       1       3       2       1       1       3       2       1       1       3
       2       1       1       3       2       1       1       3       2       1
       1       3       2       1       1       3       2       1       1       3
       2       1       1       3       2       1       1       3       2       1
       1       3       2       1       1       3       2       1       1       3
       2       1       1       3       2       1       1       3       2       1
       1       3       2       1       1       3       2       1       1       3
       2       1       1       3       2       1       1       3       2       1
       1       3       2       1       1       3       2       1       1       3
       2       1       1       3       2       1       1       3       2       1
       1       3       2       1       1       3       2       1       1       3
       2       1       1       3       2       1       1       3       2       1
       1       3       2       1       1       3       2       1       1       3
       2       1       1       3       2       1       1       3       2       1
       1       3       2       1       1       3       2       1       1       3
       2       1       1       3       2       1       1       3       2       1
       1       3       2       1       1       3       2       1       1       3
       2       1       1       3       2       1       1       3       2       1
       1       3       2       1       1       3       2       1       1       3
       2       1       1       3       2       1       1       3       2       1
       1       3       2       1       1       3       2       1       1       3
       2       1       1       3       2       1       1       3       2       1
       1       3       2       1       1       3       2       1       1       3
       2       1       1       3       2       1       1       3       2       1
       1       3       2       1       1       3       2       1       1       3
       2       1       1       3       2       1       1       3       2       1
       1       3       2       1       1       3       2       1       1       3
       2       1       1       3       2       1       1       3       2       1
       1       3       2       1       1       3       2       1       1       3
       2       1       1       3       2       1       1       3       2       1
       1       3       2       1       1       3       2       1       1       3
       2       1       1       3       2       1       1       3       2       1
       1       3       2       1       1       3       2       1       1       3
       2       1       1       3       2       1       1       3       2       1
       1       3       2       1       1       3       2       1       1       3
       2       1       1       3       2       1       1       3       2       1
       1       3       2       1       1       3       2       1       1       3
       2       1       1       3       2       1       1       3       2       1
       1       3       2       1       1       3       2       1       1       3
       2       1       1       3       2       1       1       3       2       1
       1       3       2       1       1       3       2       1       1       3
       2       1       1       3       2       1       1       3       2       1
       1       3       2       1       1       3       2       1       1       3
       2       1       1       3       2       1       1       3       2       1
       1       3       2       1       1       3       2       1       1       3
       2       1       1       3       2       1       1       3       2       1
       1       3       2       1       1       3       2       1       1       3
       2       1       1       3       2       1       1       3       2       1
       1       3       2       1       1       3       2       1       1       3
       2       1       1       3       2       1       1       3       2       1
       1       3       2       1       1       3       2       1       1       3
       2       1       1       3       2       1       1       3       2       1
       1       3       2       1       1       3       2       1       1       3
       2       1       1       3       2       1       1       3       2       1
       1       3       2       1       1       3       2       1       1       3
       2       1       1       3       2       1       1       3       2       1
       1       3       2       1       1       3       2       1       1       3
       2       1       1       3       2       1       1       3       2       1
       1       3       2       1       1       3       2       1       1       3
       2       1       1       3       2       1       1       3       2       1
       1       3       2       1       1       3       2       1       1       3
       2       1       1       3       2       1       1       3       2       1
       1       3       2       1       1       3       2       1       1       3
       2       1       1       3       2       1       1       3       2       1
       1       3       2       1       1       3       2       1       1       3
       2       1       1       3       2       1       1       3       2       1
       1       3       2       1       1       3       2       1       1       3
       2       1       1       3       2       1       1       3       2       1
       1       3       2       1       1       3       2       1       1       3
       2       1       1       3       2       1       1       3       2       1
       1       3       2       1       1       3       2       1       1       3
       2       1       1       3       2       1       1       3       2       1
       1       3       2       1       1       3       2       1       1       3
       2       1       1       3       2       1       1       3       2       1
       1       3       2       1       1       3       2       1       1       3
       2       1       1       3       2       1       1       3       2       1
       1       3       2       1       1       3       2       1       1       3
       2       1       1       3       2       1       1       3       2       1
       1       3       2       1       1       3       2       1       1       3
       2       1       1       3       2       1       1       3       2       1
       1       3       2       1       1       3       2       1       1       3
       2       1       1       3       2       1       1       3       2       1
       1       3       2       1       1       3       2       1       1       3
       2       1       1       3       2       1       1       3       2       1
       1       3       2       1       1       3       2       1       1       3
       2       1       1       3       2       1       1       3       2       1
       1       3       2       1       1       3       2       1       1       3
       2       1       1       3       2       1       1       3       2       1
       1       3       2       1       1       3       2       1       1       3
       2       1       1       3       2       1       1       3       2       1
       1       3       2       1       1       3       2       1       1       3
       2       1       1       3       2       1       1       3       2       1
       1       3       2       1       1       3       2       1       1       3
       2       1       1       3       2       1       1       3       2       1
       1       3       2       1       1       3       2       1       1       3
       2       1       1       3       2       1       1       3       2       1
       1       3       2       1       1       3       2       1       1       3
       2       1       1       3       2       1       1       3       2       1
       1       3       2       1       1       3       2       1       1       3
       2       1       1       3       2       1       1       3       2       1
       1       3       2       1       1       3       2       1       1       3
       2       1       1       3       2       1       1       3       2       1
       1       3       2       1       1       3       2       1       1       3
       2       1       1       3       2       1       1       3       2       1
       1       3       2       1       1       3       2       1       1       3
       2       1       1       3       2       1       1       3       2       1
       1       3       2       1       1       3       2       1       1       3
       2       1       1       3       2       1       1       3       2       1
       1       3       2       1       1       3       2       1       1       3
       2       1       1       3       2       1       1       3       2       1
       1       3       2       1       1       3       2       1       1       3
       2       1       1       3       2       1       1       3       2       1
       1       3       2       1       1       3       2       1       1       3
       2       1       1       3       2       1       1       3       2       1
       1       3       2       1       1       3       2       1       1       3
       2       1       1       3       2       1       1       3       2       1
       1       3       2       1       1       3       2       1       1       3
       2       1       1       3       2       1       1       3       2       1
       1       3       2       1       1       3       2       1       1       3
       2       1       1       3       2       1       1       3       2       1
       1       3       2       1       1       3       2       1       1       3
       2       1       1       3       2       1       1       3       2       1
       1       3       2       1       1       3       2       1       1       3
       2       1       1       3       2       1       1       3       2       1
       1       3       2       1       1       3       2       1       1       3
       2       1       1       3       2       1       1       3       2       1
       1       3       2       1       1       3       2       1       1       3
       2       1       1       3       2       1       1       3       2       1
       1       3       2       1       1       3       2       1       1       3
       2       1       1       3       2       1       1       3       2       1
       1       3       2       1       1       3       2       1       1       3
       2       1       1       3       2       1       1       3       2       1
       1       3       2       1       1       3       2       1       1       3
       2       1       1       3       2       1       1       3       2       1
       1       3       2       1       1       3       2       1       1       3
       2       1       1       3       2       1       1       3       2       1
       1       3       2       1       1       3       2       1       1       3
       2       1       1       3       2       1       1       3       2       1
       1       3       2       1       1       3       2       1       1       3
       2       1       1       3       2       1       1       3       2       1
       1       3       2       1       1       3       2       1       1       3
       2       1       1       3       2       1       1       3       2       1
       1       3       2       1       1       3       2       1       1       3
       2       1       1       3       2       1       1       3       2       1
       1       3       2       1       1       3       2       1       1       3
       2       1       1       3       2       1       1       3       2       1
       1       3       2       1       1       3       2       1       1       3
       2       1       1       3       2       1       1       3       2       1
       1       3       2       1       1       3       2       1       1       3
       2       1       1       3       2       1       1       3       2       1
       1       3       2       1       1       3       2       1       1       3
       2       1       1       3       2       1       1       3       2       1
       1       3       2       1       1       3       2       1       1       3
       2       1       1       3       2       1       1       3       2       1
       1       3       2       1       1       3       2       1       1       3
       2       1       1       3       2       1       1       3       2       1
       1       3       2       1       1       3       2       1       1       3
       2       1       1       3       2       1       1       3       2       1
       1       3       2       1       1       3       2       1       1       3
       2       1       1       3       2       1       1       3       2       1
       1       3       2       1       1       3       2       1       1       3
       2       1       1       3       2       1       1       3       2       1
       1       3       2       1       1       3       2       1       1       3
       2       1       1       3       2       1       1       3       2       1
       1       3       2       1       1       3       2       1       1       3
       2       1       1       3       2       1       1       3       2       1
       1       3       2       1       1       3       2       1       1       3
       2       1       1       3       2       1       1       3       2       1
       1       3       2       1       1       3       2       1       1       3
       2       1       1       3       2       1       1       3       2       1
       1       3       2       1       1       3       2       1       1       3
       2       1       1       3       2       1       1       3       2       1
       1       3       2       1       1       3       2       1       1       3
       2       1       1       3       2       1       1       3       2       1
       1       3       2       1       1       3       2       1       1       3
       2       1       1       3       2       1       1       3       2       1
       1       3       2       1       1       3       2       1       1       3
       2       1       1       3       2       1       1       3       2       1
       1       3       2       1       1       3       2       1       1       3
       2       1       1       3       2       1       1       3       2       1
       1       3       2       1       1       3       2       1       1       3
       2       1       1       3       2       1       1       3       2       1
       1       3       2       1       1       3       2       1       1       3
       2       1       1       3       2       1       1       3       2       1
       1       3       2       1       1       3       2       1       1       3
       2       1       1       3       2       1       1       3       2       1
       1       3       2       1       1       3       2       1       1       3
       2       1       1       3       2       1       1       3       2       1
       1       3       2       1       1       3       2       1       1       3
       2       1       1       3       2       1       1       3       2       1
       1       3       2       1       1       3       2       1       1       3
       2       1       1       3       2       1       1       3       2       1
       1       3       2       1       1       3       2       1       1       3
       2       1       1       3       2       1       1       3       2       1
       1       3       2       1       1       3       2       1       1       3
       2       1       1       3       2       1       1       3       2       1
       1       3       2       1       1       3       2       1       1       3
       2       1       1       3       2       1       1       3       2       1
       1       3       2       1       1       3       2       1       1       3
       2       1       1       3       2       1       1       3       2       1
       1       3       2       1       1       3       2       1       1       3
       2       1       1       3       2       1       1       3       2       1
       1       3       2       1       1       3       2       1       1       3
       2       1       1       3       2       1       1       3       2       1
       1       3       2       1       1       3       2       1       1       3
       2       1       1       3       2       1       1       3       2       1
       1       3       2       1       1       3       2       1       1       3
       2       1       1       3       2       1       1       3       2       1
       1       3       2       1       1       3       2       1       1       3
       2       1       1       3       2       1       1       3       2       1
       1       3       2       1       1       3       2       1       1       3
       2       1       1       3       2       1       1       3       2       1
       1       3       2       1       1       3       2       1       1       3
       2       1       1       3       2       1       1       3       2       1
       1       3       2       1       1       3       2       1       1       3
       2       1       1       3       2       1       1       3       2       1
       1       3       2       1       1       3       2       1       1       3
       2       1       1       3       2       1       1       3       2       1
       1       3       2       1       1       3       2       1       1       3
       2       1       1       3       2       1       1       3       2       1
       1       3       2       1       1       3       2       1       1       3
       2       1       1       3       2       1       1       3       2       1
       1       3       2       1       1       3       2       1       1       3
       2       1       1       3       2       1       1       3       2       1
       1       3       2       1       1       3       2       1       1       3
       2       1       1       3       2       1       1       3       2       1
       1       3       2       1       1       3       2       1       1       3
       2       1       1       3       2       1       1       3       2       1
       1       3       2       1       1       3       2       1       1       3
       2       1       1       3       2       1       1       3       2       1
       1       3       2       1       1       3       2       1       1       3
       2       1       1       3       2       1       1       3       2       1
       1       3       2       1       1       3       2       1       1       3
       2       1       1       3       2       1       1       3       2       1
       1       3       2       1       1       3       2       1       1       3
       2       1       1       3       2       1       1       3       2       1
       1       3       2       1       1       3       2       1       1       3
       2       1       1       3       2       1       1       3       2       1
       1       3       2       1       1       3       2       1       1       3
       2       1       1       3       2       1       1       3       2       1
       1       3       2       1       1       3       2       1       1       3
       2       1       1       3       2       1       1       3       2       1
       1       3       2       1       1       3       2       1       1       3
       2       1       1       3       2       1       1       3       2       1
       1       3       2       1       1       3       2       1       1       3
       2       1       1       3       2       1       1       3       2       1
       1       3       2       1       1       3       2       1       1       3
       2       1       1       3       2       1       1       3       2       1
       1       3       2       1       1       3       2       1       1       3
       2       1       1       3       2       1       1       3       2       1
       1       3       2       1       1       3       2       1       1       3
       2       1       1       3       2       1       1       3       2       1
       1       3       2       1       1       3       2       1       1       3
       2       1       1       3       2       1       1       3       2       1
       1       3       2       1       1       3       2       1       1       3
       2       1       1       3       2       1       1       3       2       1
       1       3       2       1       1       3       2       1       1       3
       2       1       1       3       2       1       1       3       2       1
       1       3       2       1       1       3       2       1       1       3
       2       1       1       3       2       1       1       3       2       1
       1       3       2       1       1       3       2       1       1       3
       2       1       1       3       2       1       1       3       2       1
       1       3       2       1       1       3       2       1       1       3
       2       1       1       3       2       1       1       3       2       1
       1       3       2       1       1       3       2       1       1       3
       2       1       1       3       2       1       1       3       2       1
       1       3       2       1       1       3       2       1       1       3
       2       1       1       3       2       1       1       3       2       1
       1       3       2       1       1       3       2       1       1       3
       2       1       1       3       2       1       1       3       2       1
       1       3       2       1       1       3       2       1       1       3
       2       1       1       3       2       1       1       3       2       1
       1       3       2       1       1       3       2       1       1       3
       2       1       1       3       2       1       1       3       2       1
       1       3       2       1       1       3       2       1       1       3
       2       1       1       3       2       1       1       3       2       1
       1       3       2       1       1       3       2       1       1       3
       2       1       1       3       2       1       1       3       2       1
       1       3       2       1       1       3       2       1       1       3
       2       1       1       3       2       1       1       3       2       1
       1       3       2       1       1       3       2       1       1       3
       2       1       1       3       2       1       1       3       2       1
       1       3       2       1       1       3       2       1       1       3
       2       1       1       3       2       1       1       3       2       1
       1       3       2       1       1       3       2       1       1       3
       2       1       1       3       2       1       1       3       2       1
       1       3       2       1       1       3       2       1       1       3
       2       1       1       3       2       1       1       3       2       1
       1       3       2       1       1       3       2       1       1       3
       2       1       1       3       2       1       1       3       2       1
       1       3       2       1       1       3       2       1       1       3
       2       1       1       3       2       1       1       3       2       1
       1       3       2       1       1       3       2       1       1       3
       2       1       1       3       2       1       1       3       2       1
       1       3       2       1       1       3       2       1       1       3
       2       1       1       3       2       1       1       3       2       1
       1       3       2       1       1       3       2       1       1       3
       2       1       1       3       2       1       1       3       2       1
       1       3       2       1       1       3       2       1       1       3
       2       1       1       3       2       1       1       3       2       1
       1       3       2       1       1       3       2       1       1       3
       2       1       1       3       2       1       1       3       2       1
       1       3       2       1       1       3       2       1       1       3
       2       1       1       3       2       1       1       3       2       1
       1       3       2       1       1       3       2       1       1       3
       2       1       1       3       2       1       1       3       2       1
       1       3       2       1       1       3       2       1       1       3
       2       1       1       3       2       1       1       3       2       1
       1       3       2       1       1       3       2       1       1       3
       2       1       1       3       2       1       1       3       2       1
       1       3       2       1       1       3       2       1       1       3
       2       1       1       3       2       1       1       3       2       1
       1       3       2       1       1       3       2       1       1       3
       2       1       1       3       2       1       1       3       2       1
       1       3       2       1       1       3       2       1       1       3
       2       1       1       3       2       1       1       3       2       1
       1       3       2       1       1       3       2       1       1       3
       2       1       1       3       2       1       1       3       2       1
       1       3       2       1       1       3       2       1       1       3
       2       1       1       3       2       1       1       3       2       1
       1       3       2       1       1       3       2       1       1       3
       2       1       1       3       2       1       1       3       2       1
       1       3       2       1       1       3       2       1       1       3
       2       1       1       3       2       1       1       3       2       1
       1       3       2       1       1       3       2       1       1       3
       2       1       1       3       2       1       1       3       2       1
       1       3       2       1       1       3       2       1       1       3
       2       1       1       3       2       1       1       3       2       1
       1       3       2       1       1       3       2       1       1       3
       2       1       1       3       2       1       1       3       2       1
       1       3       2       1       1       3       2       1       1       3
       2       1       1       3       2       1       1       3       2       1
       1       3       2       1       1       3       2       1       1       3
       2       1       1       3       2       1       1       3       2       1
       1       3       2       1       1       3       2       1       1       3
       2       1       1       3       2       1       1       3       2       1
       1       3       2       1       1       3       2       1       1       3
       2       1       1       3       2       1       1       3       2       1
       1       3       2       1       1       3       2       1       1       3
       2       1       1       3       2       1       1       3       2       1
       1       3       2       1       1       3       2       1       1       3
       2       1       1       3       2       1       1       3       2       1
       1       3       2       1       1       3       2       1       1       3
       2       1       1       3       2       1       1       3       2       1
       1       3       2       1       1       3       2       1       1       3
       2       1       1       3       2       1       1       3       2       1
       1       3       2       1       1       3       2       1       1       3
       2       1       1       3       2       1       1       3       2       1
       1       3       2       1       1       3       2       1       1       3
       2       1       1       3       2       1       1       3       2       1
       1       3       2       1       1       3       2       1       1       3
       2       1       1       3       2       1       1       3       2       1
       1       3       2       1       1       3       2       1       1       3
       2       1       1       3       2       1       1       3       2       1
       1       3       2       1       1       3       2       1       1       3
       2       1       1       3       2       1       1       3       2       1
       1       3       2       1       1       3       2       1       1       3
       2       1       1       3       2       1       1       3       2       1
       1       3       2       1       1       3       2       1       1       3
       2       1       1       3       2       1       1       3       2       1
       1       3       2       1       1       3       2       1       1       3
       2       1       1       3       2       1       1       3       2       1
       1       3       2       1       1       3       2       1       1       3
       2       1       1       3       2       1       1       3       2       1
       1       3       2       1       1       3       2       1       1       3
       2       1       1       3       2       1       1       3       2       1
       1       3       2       1       1       3       2       1       1       3
       2       1       1       3       2       1       1       3       2       1
       1       3       2       1       1       3       2       1       1       3
       2       1       1       3       2       1       1       3       2       1
       1       3       2       1       1       3       2       1       1       3
       2       1       1       3       2       1       1       3       2       1
       1       3       2       1       1       3       2       1       1       3
       2       1       1       3       2       1       1       3       2       1
       1       3       2       1       1       3       2       1       1       3
       2       1       1       3       2       1       1       3       2       1
       1       3       2       1       1       3       2       1       1       3
       2       1       1       3       2       1       1       3       2       1
       1       3       2       1       1       3       2       1       1       3
       2       1       1       3       2       1       1       3       2       1
       1       3       2       1       1       3       2       1       1       3
       2       1       1       3       2       1       1       3       2       1
       1       3       2       1       1       3       2       1       1       3
       2       1       1       3       2       1       1       3       2       1
       1       3       2       1       1       3       2       1       1       3
       2       1       1       3       2       1       1       3       2       1
       1       3       2       1       1       3       2       1       1       3
       2       1       1       3       2       1       1       3       2       1
       1       3       2       1       1       3       2       1       1       3
       2       1       1       3       2       1       1       3       2       1
       1       3       2       1       1       3       2       1       1       3
       2       1       1       3       2       1       1       3       2       1
       1       3       2       1       1       3       2       1       1       3
       2       1       1       3       2       1       1       3       2       1
       1       3       2       1       1       3       2       1       1       3
       2       1       1       3       2       1       1       3       2       1
       1       3       2       1       1       3       2       1       1       3
       2       1       1       3       2       1       1       3       2       1
       1       3       2       1       1       3       2       1       1       3
       2       1       1       3       2       1       1       3       2       1
       1       3       2       1       1       3       2       1       1       3
       2       1       1       3       2       1       1       3       2       1
       1       3       2       1       1       3       2       1       1       3
       2       1       1       3       2       1       1       3       2       1
       1       3       2       1       1       3       2       1       1       3
       2       1       1       3       2       1       1       3       2       1
       1       3       2       1       1       3       2       1       1       3
       2       1       1       3       2       1       1       3       2       1
       1       3       2       1       1       3       2       1       1       3
       2       1       1       3       2       1       1       3       2       1
       1       3       2       1       1       3       2       1       1       3
       2       1       1       3       2       1       1       3       2       1
       1       3       2       1       1       3       2       1       1       3
       2       1       1       3       2       1       1       3       2       1
       1       3       2       1       1       3       2       1       1       3
       2       1       1       3       2       1       1       3       2       1
       1       3       2       1       1       3       2       1       1       3
       2       1       1       3       2       1       1       3       2       1
       1       3       2       1       1       3       2       1       1       3
       2       1       1       3       2       1       1       3       2       1
       1       3       2       1       1       3       2       1       1       3
       2       1       1       3       2       1       1       3       2       1
       1       3       2       1       1       3       2       1       1       3
       2       1       1       3       2       1       1       3       2       1
       1       3       2       1       1       3       2       1       1       3
       2       1       1       3       2       1       1       3       2       1
       1       3       2       1       1       3       2       1       1       3
       2       1       1       3       2       1       1       3       2       1
       1       3       2       1       1       3       2       1       1       3
       2       1       1       3       2       1       1       3       2       1
       1       3       2       1       1       3       2       1       1       3
       2       1       1       3       2       1       1       3       2       1
       1       3       2       1       1       3       2       1       1       3
       2       1       1       3       2       1       1       3       2       1
       1       3       2       1       1       3       2       1       1       3
       2       1       1       3       2       1       1       3       2       1
       1       3       2       1       1       3       2       1       1       3
       2       1       1       3       2       1       1       3       2       1
       1       3       2       1       1       3       2       1       1       3
       2       1       1       3       2       1       1       3       2       1
       1       3       2       1       1       3       2       1       1       3
       2       1       1       3       2       1       1       3       2       1
       1       3       2       1       1       3       2       1       1       3
       2       1       1       3       2       1       1       3       2       1
       1       3       2       1       1       3       2       1       1       3
       2       1       1       3       2       1       1       3       2       1
       1       3       2       1       1       3       2       1       1       3
       2       1       1       3       2       1       1       3       2       1
       1       3       2       1       1       3       2       1       1       3
       2       1       1       3       2       1       1       3       2       1
       1       3       2       1       1       3       2       1       1       3
       2       1       1       3       2       1       1       3       2       1
       1       3       2       1       1       3       2       1       1       3
       2       1       1       3       2       1       1       3       2       1
       1       3       2       1       1       3       2       1       1       3
       2       1       1       3       2       1       1       3       2       1
       1       3       2       1       1       3       2       1       1       3
       2       1       1       3       2       1       1       3       2       1
       1       3       2       1       1       3       2       1       1       3
       2       1       1       3       2       1       1       3       2       1
       1       3       2       1       1       3       2       1       1       3
       2       1       1       3       2       1       1       3       2       1
       1       3       2       1       1       3       2       1       1       3
       2       1       1       3       2       1       1       3       2       1
       1       3       2       1       1       3       2       1       1       3
       2       1       1       3       2       1       1       3       2       1
       1       3       2       1       1       3       2       1       1       3
       2       1       1       3       2       1       1       3       2       1
       1       3       2       1       1       3       2       1       1       3
       2       1       1       3       2       1       1       3       2       1
       1       3       2       1       1       3       2       1       1       3
       2       1       1       3       2       1       1       3       2       1
       1       3       2       1       1       3       2       1       1       3
       2       1       1       3       2       1       1       3       2       1
       1       3       2       1       1       3       2       1       1       3
       2       1       1       3       2       1       1       3       2       1
       1       3       2       1       1       3       2       1       1       3
       2       1       1       3       2       1       1       3       2       1
       1       3       2       1       1       3       2       1       1       3
       2       1       1       3       2       1       1       3       2       1
       1       3       2       1       1       3       2       1       1       3
       2       1       1       3       2       1       1       3       2       1
       1       3       2       1       1       3       2       1       1       3
       2       1       1       3       2       1       1       3       2       1
       1       3       2       1       1       3       2       1       1       3
       2       1       1       3       2       1       1       3       2       1
       1       3       2       1       1       3       2       1       1       3
       2       1       1       3       2       1       1       3       2       1
       1       3       2       1       1       3       2       1       1       3
       2       1       1       3       2       1       1       3       2       1
       1       3       2       1       1       3       2       1       1       3
       2       1       1       3       2       1       1       3       2       1
       1       3       2       1       1       3       2       1       1       3
       2       1       1       3       2       1       1       3       2       1
       1       3       2       1       1       3       2       1       1       3
       2       1       1       3       2       1       1       3       2       1
       1       3       2       1       1       3       2       1       1       3
       2       1       1       3       2       1       1       3       2       1
       1       3       2       1       1       3       2       1       1       3
       2       1       1       3       2       1       1       3       2       1
       1       3       2       1       1       3       2       1       1       3
       2       1       1       3       2       1       1       3       2       1
       1       3       2       1       1       3       2       1       1       3
       2       1       1       3       2       1       1       3       2       1
       1       3       2       1       1       3       2       1       1       3
       2       1       1       3       2       1       1       3       2       1
       1       3       2       1       1       3       2       1       1       3
       2       1       1       3       2       1       1       3       2       1
       1       3       2       1       1       3       2       1       1       3
       2       1       1       3       2       1       1       3       2       1
       1       3       2       1       1       3       2       1       1       3
       2       1       1       3       2       1       1       3       2       1
       1       3       2       1       1       3       2       1       1       3
       2       1       1       3       2       1       1       3       2       1
       1       3       2       1       1       3       2       1       1       3
       2       1       1       3       2       1       1       3       2       1
       1       3       2       1       1       3       2       1       1       3
       2       1       1       3       2       1       1       3       2       1
       1       3       2       1       1       3       2       1       1       3
       2       1       1       3       2       1       1       3       2       1
       1       3       2       1       1       3       2       1       1       3
       2       1       1       3       2       1       1       3       2       1
       1       3       2       1       1       3       2       1       1       3
       2       1       1       3       2       1       1       3       2       1
       1       3       2       1       1       3       2       1       1       3
       2       1       1       3       2       1       1       3       2       1
       1       3       2       1       1       3       2       1       1       3
       2       1       1       3       2       1       1       3       2       1
       1       3       2       1       1       3       2       1       1       3
       2       1       1       3       2       1       1       3       2       1
       1       3       2       1       1       3       2       1       1       3
       2       1       1       3       2       1       1       3       2       1
       1       3       2       1       1       3       2       1       1       3
       2       1       1       3       2       1       1       3       2       1
       1       3       2       1       1       3       2       1       1       3
       2       1       1       3       2       1       1       3       2       1
       1       3       2       1       1       3       2       1       1       3
       2       1       1       3       2       1       1       3       2       1
       1       3       2       1       1       3       2       1       1       3
       2       1       1       3       2       1       1       3       2       1
       1       3       2       1       1       3       2       1       1       3
       2       1       1       3       2       1       1       3       2       1
       1       3       2       1       1       3       2       1       1       3
       2       1       1       3       2       1       1       3       2       1
       1       3       2       1       1       3       2       1       1       3
       2       1       1       3       2       1       1       3       2       1
       1       3       2       1       1       3       2       1       1       3
       2       1       1       3       2       1       1       3       2       1
       1       3       2       1       1       3       2       1       1       3
       2       1       1       3       2       1       1       3       2       1
       1       3       2       1       1       3       2       1       1       3
       2       1       1       3       2       1       1       3       2       1
       1       3       2       1       1       3       2       1       1       3
       2       1       1       3       2       1       1       3       2       1
       1       3       2       1       1       3       2       1       1       3
       2       1       1       3       2       1       1       3       2       1
       1       3       2       1       1       3       2       1       1       3
       2       1       1       3       2       1       1       3       2       1
       1       3       2       1       1       3       2       1       1       3
       2       1       1       3       2       1       1       3       2       1
       1       3       2       1       1       3       2       1       1       3
       2       1       1       3       2       1       1       3       2       1
       1       3       2       1       1       3       2       1       1       3
       2       1       1       3       2       1       1       3       2       1
       1       3       2       1       1       3       2       1       1       3
       2       1       1       3       2       1       1       3       2       1
       1       3       2       1       1       3       2       1       1       3
       2       1       1       3       2       1       1       3       2       1
       1       3       2       1       1       3       2       1       1       3
       2       1       1       3       2       1       1       3       2       1
       1       3       2       1       1       3       2       1       1       3
       2       1       1       3       2       1       1       3       2       1
       1       3       2       1       1       3       2       1       1       3
       2       1       1       3       2       1       1       3       2       1
       1       3       2       1       1       3       2       1       1       3
       2       1       1       3       2       1       1       3       2       1
       1       3       2       1       1       3       2       1       1       3
       2       1       1       3       2       1       1       3       2       1
       1       3       2       1       1       3       2       1       1       3
       2       1       1       3       2       1       1       3       2       1
       1       3       2       1       1       3       2       1       1       3
       2       1       1       3       2       1       1       3       2       1
       1       3       2       1       1       3       2       1       1       3
       2       1       1       3       2       1       1       3       2       1
       1       3       2       1       1       3       2       1       1       3
       2       1       1       3       2       1       1       3       2       1
       1       3       2       1       1       3       2       1       1       3
       2       1       1       3       2       1       1       3       2       1
       1       3       2       1       1       3       2       1       1       3
       2       1       1       3       2       1       1       3       2       1
       1       3       2       1       1       3       2       1       1       3
       2       1       1       3       2       1       1       3       2       1
       1       3       2       1       1       3       2       1       1       3
       2       1       1       3       2       1       1       3       2       1
       1       3       2       1       1       3       2       1       1       3
       2       1       1       3       2       1       1       3       2       1
       1       3       2       1       1       3       2       1       1       3
       2       1       1       3       2       1       1       3       2       1
       1       3       2       1       1       3       2       1       1       3
       2       1       1       3       2       1       1       3       2       1
       1       3       2       1       1       3       2       1       1       3
       2       1       1       3       2       1       1       3       2       1
       1       3       2       1       1       3       2       1       1       3
       2       1       1       3       2       1       1       3       2       1
       1       3       2       1       1       3       2       1       1       3
       2       1       1       3       2       1       1       3       2       1
       1       3       2       1       1       3       2       1       1       3
       2       1       1       3       2       1       1       3       2       1
       1       3       2       1       1       3       2       1       1       3
       2       1       1       3       2       1       1       3       2       1
       1       3       2       1       1       3       2       1       1       3
       2       1       1       3       2       1       1       3       2       1
       1       3       2       1       1       3       2       1       1       3
       2       1       1       3       2       1       1       3       2       1
       1       3       2       1       1       3       2       1       1       3
       2       1       1       3       2       1       1       3       2       1
       1       3       2       1       1       3       2       1       1       3
       2       1       1       3       2       1       1       3       2       1
       1       3       2       1       1       3       2       1       1       3
       2       1       1       3       2       1       1       3       2       1
       1       3       2       1       1       3       2       1       1       3
       2       1       1       3       2       1       1       3       2       1
       1       3       2       1       1       3       2       1       1       3
       2       1       1       3       2       1       1       3       2       1
       1       3       2       1       1       3       2       1       1       3
       2       1       1       3       2       1       1       3       2       1
       1       3       2       1       1       3       2       1       1       3
       2       1       1       3       2       1       1       3       2       1
       1       3       2       1       1       3       2       1       1       3
       2       1       1       3       2       1       1       3       2       1
       1       3       2       1       1       3       2       1       1       3
       2       1       1       3       2       1       1       3       2       1
       1       3       2       1       1       3       2       1       1       3
       2       1       1       3       2       1       1       3       2       1
       1       3       2       1       1       3       2       1       1       3
       2       1       1       3       2       1       1       3       2       1
       1       3       2       1       1       3       2       1       1       3
       2       1       1       3       2       1       1       3       2       1
       1       3       2       1       1       3       2       1       1       3
       2       1       1       3       2       1       1       3       2       1
       1       3       2       1       1       3       2       1       1       3
       2       1       1       3       2       1       1       3       2       1
       1       3       2       1       1       3       2       1       1       3
       2       1       1       3       2       1       1       3       2       1
       1       3       2       1       1       3       2       1       1       3
       2       1       1       3       2       1       1       3       2       1
       1       3       2       1       1       3       2       1       1       3
       2       1       1       3       2       1       1       3       2       1
       1       3       2       1       1       3       2       1       1       3
       2       1       1       3       2       1       1       3       2       1
       1       3       2       1       1       3       2       1       1       3
       2       1       1       3       2       1       1       3       2       1
       1       3       2       1       1       3       2       1       1       3
       2       1       1       3       2       1       1       3       2       1
       1       3       2       1       1       3       2       1       1       3
       2       1       1       3       2       1       1       3       2       1
       1       3       2       1       1       3       2       1       1       3
       2       1       1       3       2       1       1       3       2       1
       1       3       2       1       1       3       2       1       1       3
       2       1       1       3       2       1       1       3       2       1
       1       3       2       1       1       3       2       1       1       3
       2       1       1       3       2       1       1       3       2       1
       1       3       2       1       1       3       2       1       1       3
       2       1       1       3       2       1       1       3       2       1
       1       3       2       1       1       3       2       1       1       3
       2       1       1       3       2       1       1       3       2       1
       1       3       2       1       1       3       2       1       1       3
       2       1       1       3       2       1       1       3       2       1
       1       3       2       1       1       3       2       1       1       3
       2       1       1       3       2       1       1       3       2       1
       1       3       2       1       1       3       2       1       1       3
       2       1       1       3       2       1       1       3       2       1
       1       3       2       1       1       3       2       1       1       3
       2       1       1       3       2       1       1       3       2       1
       1       3       2       1       1       3       2       1       1       3
       2       1       1       3       2       1       1       3       2       1
       1       3       2       1       1       3       2       1       1       3
       2       1       1       3       2       1       1       3       2       1
       1       3       2       1       1       3       2       1       1       3
       2       1       1       3       2       1       1       3       2       1
       1       3       2       1       1       3       2       1       1       3
       2       1       1       3       2       1       1       3       2       1
       1       3       2       1       1       3       2       1       1       3
       2       1       1       3       2       1       1       3       2       1
       1       3       2       1       1       3       2       1       1       3
       2       1       1       3       2       1       1       3       2       1
       1       3       2       1       1       3       2       1       1       3
       2       1       1       3       2       1       1       3       2       1
       1       3       2       1       1       3       2       1       1       3
       2       1       1       3       2       1       1       3       2       1
       1       3       2       1       1       3       2       1       1       3
       2       1       1       3       2       1       1       3       2       1
       1       3       2       1       1       3       2       1       1       3
       2       1       1       3       2       1       1       3       2       1
       1       3       2       1       1       3       2       1       1       3
       2       1       1       3       2       1       1       3       2       1
       1       3       2       1       1       3       2       1       1       3
       2       1       1       3       2       1       1       3       2       1
       1       3       2       1       1       3       2       1       1       3
       2       1       1       3       2       1       1       3       2       1
       1       3       2       1       1       3       2       1       1       3
       2       1       1       3       2       1       1       3       2       1
       1       3       2       1       1       3       2       1       1       3
       2       1       1       3       2       1       1       3       2       1
       1       3       2       1       1       3       2       1       1       3
       2       1       1       3       2       1       1       3       2       1
       1       3       2       1       1       3       2       1       1       3
       2       1       1       3       2       1       1       3       2       1
       1       3       2       1       1       3       2       1       1       3
       2       1       1       3       2       1       1       3       2       1
       1       3       2       1       1       3       2       1       1       3
       2       1       1       3       2       1       1       3       2       1
       1       3       2       1       1       3       2       1       1       3
       2       1       1       3       2       1       1       3       2       1
       1       3       2       1       1       3       2       1       1       3
       2       1       1       3       2       1       1       3       2       1
       1       3       2       1       1       3       2       1       1       3
       2       1       1       3       2       1       1       3       2       1
       1       3       2       1       1       3       2       1       1       3
       2       1       1       3       2       1       1       3       2       1
       1       3       2       1       1       3       2       1       1       3
       2       1       1       3       2       1       1       3       2       1
       1       3       2       1       1       3       2       1       1       3
       2       1       1       3       2       1       1       3       2       1
       1       3       2       1       1       3       2       1       1       3
       2       1       1       3       2       1       1       3       2       1
       1       3       2       1       1       3       2       1       1       3
       2       1       1       3       2       1       1       3       2       1
       1       3       2       1       1       3       2       1       1       3
       2       1       1       3       2       1       1       3       2       1
       1       3       2       1       1       3       2       1       1       3
       2       1       1       3       2       1       1       3       2       1
       1       3       2       1       1       3       2       1       1       3
       2       1       1       3       2       1       1       3       2       1
       1       3       2       1       1       3       2       1       1       3
       2       1       1       3       2       1       1       3       2       1
       1       3       2       1       1       3       2       1       1       3
       2       1       1       3       2       1       1       3       2       1
       1       3       2       1       1       3       2       1       1       3
       2       1       1       3       2       1       1       3       2       1
       1       3       2       1       1       3       2       1       1       3
       2       1       1       3       2       1       1       3       2       1
       1       3       2       1       1       3       2       1       1       3
       2       1       1       3       2       1       1       3       2       1
       1       3       2       1       1       3       2       1       1       3
       2       1       1       3       2       1       1       3       2       1
       1       3       2       1       1       3       2       1       1       3
       2       1       1       3       2       1       1       3       2       1
       1       3       2       1       1       3       2       1       1       3
       2       1       1       3       2       1       1       3       2       1
       1       3       2       1       1       3       2       1       1       3
       2       1       1       3       2       1       1       3       2       1
       1       3       2       1       1       3       2       1       1       3
       2       1       1       3       2       1       1       3       2       1
       1       3       2       1       1       3       2       1       1       3
       2       1       1       3       2       1       1       3       2       1
       1       3       2       1       1       3       2       1       1       3
       2       1       1       3       2       1       1       3       2       1
       1       3       2       1       1       3       2       1       1       3
       2       1       1       3       2       1       1       3       2       1
       1       3       2       1       1       3       2       1       1       3
       2       1       1       3       2       1       1       3       2       1
       1       3       2       1       1       3       2       1       1       3
       2       1       1       3       2       1       1       3       2       1
       1       3       2       1       1       3       2       1       1       3
       2       1       1       3       2       1       1       3       2       1
       1       3       2       1       1       3       2       1       1       3
       2       1       1       3       2       1       1       3       2       1
       1       3       2       1       1       3       2       1       1       3
       2       1       1       3       2       1       1       3       2       1
       1       3       2       1       1       3       2       1       1       3
       2       1       1       3       2       1       1       3       2       1
       1       3       2       1       1       3       2       1       1       3
       2       1       1       3       2       1       1       3       2       1
       1       3       2       1       1       3       2       1       1       3
       2       1       1       3       2       1       1       3       2       1
       1       3       2       1       1       3       2       1       1       3
       2       1       1       3       2       1       1       3       2       1
       1       3       2       1       1       3       2       1       1       3
       2       1       1       3       2       1       1       3       2       1
       1       3       2       1       1       3       2       1       1       3
       2       1       1       3       2       1       1       3       2       1
       1       3       2       1       1       3       2       1       1       3
       2       1       1       3       2       1       1       3       2       1
       1       3       2       1       1       3       2       1       1       3
       2       1       1       3       2       1       1       3       2       1
       1       3       2       1       1       3       2       1       1       3
       2       1       1       3       2       1       1       3       2       1
       1       3       2       1       1       3       2       1       1       3
       2       1       1       3       2       1       1       3       2       1
       1       3       2       1       1       3       2       1       1       3
       2       1       1       3       2       1       1       3       2       1
       1       3       2       1       1       3       2       1       1       3
       2       1       1       3       2       1       1       3       2       1
       1       3       2       1       1       3       2       1       1       3
       2       1       1       3       2       1       1       3       2       1
       1       3       2       1       1       3       2       1       1       3
       2       1       1       3       2       1       1       3       2       1
       1       3       2       1       1       3       2       1       1       3
       2       1       1       3       2       1       1       3       2       1
       1       3       2       1       1       3       2       1       1       3
       2       1       1       3       2       1       1       3       2       1
       1       3       2       1       1       3       2       1       1       3
       2       1       1       3       2       1       1       3       2       1
       1       3       2       1       1       3       2       1       1       3
       2       1       1       3       2       1       1       3       2       1
       1       3       2       1       1       3       2       1       1       3
       2       1       1       3       2       1       1       3       2       1
       1       3       2       1       1       3       2       1       1       3
       2       1       1       3       2       1       1       3       2       1
       1       3       2       1       1       3       2       1       1       3
       2       1       1       3       2       1       1       3       2       1
       1       3       2       1       1       3       2       1       1       3
       2       1       1       3       2       1       1       3       2       1
       1       3       2       1       1       3       2       1       1       3
       2       1       1       3       2       1       1       3       2       1
       1       3       2       1       1       3       2       1       1       3
       2       1       1       3       2       1       1       3       2       1
       1       3       2       1       1       3       2       1       1       3
       2       1       1       3       2       1       1       3       2       1
       1       3       2       1       1       3       2       1       1       3
       2       1       1       3       2       1       1       3       2       1
       1       3       2       1       1       3       2       1       1       3
       2       1       1       3       2       1       1       3       2       1
       1       3       2       1       1       3       2       1       1       3
       2       1       1       3       2       1       1       3       2       1
       1       3       2       1       1       3       2       1       1       3
       2       1       1       3       2       1       1       3       2       1
       1       3       2       1       1       3       2       1       1       3
       2       1       1       3       2       1       1       3       2       1
       1       3       2       1       1       3       2       1       1       3
       2       1       1       3       2       1       1       3       2       1
       1       3       2       1       1       3       2       1       1       3
       2       1       1       3       2       1       1       3       2       1
       1       3       2       1       1       3       2       1       1       3
       2       1       1       3       2       1       1       3       2       1
       1       3       2       1       1       3       2       1       1       3
       2       1       1       3       2       1       1       3       2       1
       1       3       2       1       1       3       2       1       1       3
       2       1       1       3       2       1       1       3       2       1
       1       3       2       1       1       3       2       1       1       3
       2       1       1       3       2       1       1       3       2       1
       1       3       2       1       1       3       2       1       1       3
       2       1       1       3       2       1       1       3       2       1
       1       3       2       1       1       3       2       1       1       3
       2       1       1       3       2       1       1       3       2       1
       1       3       2       1       1       3       2       1       1       3
       2       1       1       3       2       1       1       3       2       1
       1       3       2       1       1       3       2       1       1       3
       2       1       1       3       2       1       1       3       2       1
       1       3       2       1       1       3       2       1       1       3
       2       1       1       3       2       1       1       3       2       1
       1       3       2       1       1       3       2       1       1       3
       2       1       1       3       2       1       1       3       2       1
       1       3       2       1       1       3       2       1       1       3
       2       1       1       3       2       1       1       3       2       1
       1       3       2       1       1       3       2       1       1       3
       2       1       1       3       2       1       1       3       2       1
       1       3       2       1       1       3       2       1       1       3
       2       1       1       3       2       1       1       3       2       1
       1       3       2       1       1       3       2       1       1       3
       2       1       1       3       2       1       1       3       2       1
       1       3       2       1       1       3       2       1       1       3
       2       1       1       3       2       1       1       3       2       1
       1       3       2       1       1       3       2       1       1       3
       2       1       1       3       2       1       1       3       2       1
       1       3       2       1       1       3       2       1       1       3
       2       1       1       3       2       1       1       3       2       1
       1       3       2       1       1       3       2       1       1       3
       2       1       1       3       2       1       1       3       2       1
       1       3       2       1       1       3       2       1       1       3
       2       1       1       3       2       1       1       3       2       1
       1       3       2       1       1       3       2       1       1       3
       2       1       1       3       2       1       1       3       2       1
       1       3       2       1       1       3       2       1       1       3
       2       1       1       3       2       1       1       3       2       1
       1       3       2       1       1       3       2       1       1       3
       2       1       1       3       2       1       1       3       2       1
       1       3       2       1       1       3       2       1       1       3
       2       1       1       3       2       1       1       3       2       1
       1       3       2       1       1       3       2       1       1       3
       2       1       1       3       2       1       1       3       2       1
       1       3       2       1       1       3       2       1       1       3
       2       1       1       3       2       1       1       3       2       1
       1       3       2       1       1       3       2       1       1       3
       2       1       1       3       2       1       1       3       2       1
       1       3       2       1       1       3       2       1       1       3
       2       1       1       3       2       1       1       3       2       1
       1       3       2       1       1       3       2       1       1       3
       2       1       1       3       2       1       1       3       2       1
       1       3       2       1       1       3       2       1       1       3
       2       1       1       3       2       1       1       3       2       1
       1       3       2       1       1       3       2       1       1       3
       2       1       1       3       2       1       1       3       2       1
       1       3       2       1       1       3       2       1       1       3
       2       1       1       3       2       1       1       3       2       1
       1       3       2       1       1       3       2       1       1       3
       2       1       1       3       2       1       1       3       2       1
       1       3       2       1       1       3       2       1       1       3
       2       1       1       3       2       1       1       3       2       1
       1       3       2       1       1       3       2       1       1       3
       2       1       1       3       2       1       1       3       2       1
       1       3       2       1       1       3       2       1       1       3
       2       1       1       3       2       1       1       3       2       1
       1       3       2       1       1       3       2       1       1       3
       2       1       1       3       2       1       1       3       2       1
       1       3       2       1       1       3       2       1       1       3
       2       1       1       3       2       1       1       3       2       1
       1       3       2       1       1       3       2       1       1       3
       2       1       1       3       2       1       1       3       2       1
       1       3       2       1       1       3       2       1       1       3
       2       1       1       3       2       1       1       3       2       1
       1       3       2       1       1       3       2       1       1       3
       2       1       1       3       2       1       1       3       2       1
       1       3       2       1       1       3       2       1       1       3
       2       1       1       3       2       1       1       3       2       1
       1       3       2       1       1       3       2       1       1       3
       2       1       1       3       2       1       1       3       2       1
       1       3       2       1       1       3       2       1       1       3
       2       1       1       3       2       1       1       3       2       1
       1       3       2       1       1       3       2       1       1       3
       2       1       1       3       2       1       1       3       2       1
       1       3       2       1       1       3       2       1       1       3
       2       1       1       3       2       1       1       3       2       1
       1       3       2       1       1       3       2       1       1       3
       2       1       1       3       2       1       1       3       2       1
       1       3       2       1       1       3       2       1       1       3
       2       1       1       3       2       1       1       3       2       1
       1       3       2       1       1       3       2       1       1       3
       2       1       1       3       2       1       1       3       2       1
       1       3       2       1       1       3       2       1       1       3
       2       1       1       3       2       1       1       3       2       1
       1       3       2       1       1       3       2       1       1       3
       2       1       1       3       2       1       1       3       2       1
       1       3       2       1       1       3       2       1       1       3
       2       1       1       3       2       1       1       3       2       1
       1       3       2       1       1       3       2       1       1       3
       2       1       1       3       2       1       1       3       2       1
       1       3       2       1       1       3       2       1       1       3
       2       1       1       3       2       1       1       3       2       1
       1       3       2       1       1       3       2       1       1       3
       2       1       1       3       2       1       1       3       2       1
       1       3       2       1       1       3       2       1       1       3
       2       1       1       3       2       1       1       3       2       1
       1       3       2       1       1       3       2       1       1       3
       2       1       1       3       2       1       1       3       2       1
       1       3       2       1       1       3       2       1       1       3
       2       1       1       3       2       1       1       3       2       1
       1       3       2       1       1       3       2       1       1       3
       2       1       1       3       2       1       1       3       2       1
       1       3       2       1       1       3       2       1       1       3
       2       1       1       3       2       1       1       3       2       1
       1       3       2       1       1       3       2       1       1       3
       2       1       1       3       2       1       1       3       2       1
       1       3       2       1       1       3       2       1       1       3
       2       1       1       3       2       1       1       3       2       1
       1       3       2       1       1       3       2       1       1       3
       2       1       1       3       2       1       1       3       2       1
       1       3       2       1       1       3       2       1       1       3
       2       1       1       3       2       1       1       3       2       1
       1       3       2       1       1       3       2       1       1       3
       2       1       1       3       2       1       1       3       2       1
       1       3       2       1       1       3       2       1       1       3
       2       1       1       3       2       1       1       3       2       1
       1       3       2       1       1       3       2       1       1       3
       2       1       1       3       2       1       1       3       2       1
       1       3       2       1       1       3       2       1       1       3
       2       1       1       3       2       1       1       3       2       1
       1       3       2       1       1       3       2       1       1       3
       2       1       1       3       2       1       1       3       2       1
       1       3       2       1       1       3       2       1       1       3
       2       1       1       3       2       1       1       3       2       1
       1       3       2       1       1       3       2       1       1       3
       2       1       1       3       2       1       1       3       2       1
       1       3       2       1       1       3       2       1       1       3
       2       1       1       3       2       1       1       3       2       1
       1       3       2       1       1       3       2       1       1       3
       2       1       1       3       2       1       1       3       2       1
       1       3       2       1       1       3       2       1       1       3
       2       1       1       3       2       1       1       3       2       1
       1       3       2       1       1       3       2       1       1       3
       2       1       1       3       2       1       1       3       2       1
       1       3       2       1       1       3       2       1       1       3
       2       1       1       3       2       1       1       3       2       1
       1       3       2       1       1       3       2       1       1       3
       2       1       1       3       2       1       1       3       2       1
       1       3       2       1       1       3       2       1       1       3
       2       1       1       3       2       1       1       3       2       1
       1       3       2       1       1       3       2       1       1       3
       2       1       1       3       2       1       1       3       2       1
       1       3       2       1       1       3       2       1       1       3
       2       1       1       3       2       1       1       3       2       1
       1       3       2       1       1       3       2       1       1       3
       2       1       1       3       2       1       1       3       2       1
       1       3       2       1       1       3       2       1       1       3
       2       1       1       3       2       1       1       3       2       1
       1       3       2       1       1       3       2       1       1       3
       2       1       1       3       2       1       1       3       2       1
       1       3       2       1       1       3       2       1       1       3
       2       1       1       3       2       1       1       3       2       1
       1       3       2       1       1       3       2       1       1       3
       2       1       1       3       2       1       1       3       2       1
       1       3       2       1       1       3       2       1       1       3
       2       1       1       3       2       1       1       3       2       1
       1       3       2       1       1       3       2       1       1       3
       2       1       1       3       2       1       1       3       2       1
       1       3       2       1       1       3       2       1       1       3
       2       1       1       3       2       1       1       3       2       1
       1       3       2       1       1       3       2       1       1       3
       2       1       1       3       2       1       1       3       2       1
       1       3       2       1       1       3       2       1       1       3
       2       1       1       3       2       1       1       3       2       1
       1       3       2       1       1       3       2       1       1       3
       2       1       1       3       2       1       1       3       2       1
       1       3       2       1       1       3       2       1       1       3
       2       1       1       3       2       1       1       3       2       1
       1       3       2       1       1       3       2       1       1       3
       2       1       1       3       2       1       1       3       2       1
       1       3       2       1       1       3       2       1       1       3
       2       1       1       3       2       1       1       3       2       1
       1       3       2       1       1       3       2       1       1       3
       2       1       1       3       2       1       1       3       2       1
       1       3       2       1       1       3       2       1       1       3
       2       1       1       3       2       1       1       3       2       1
       1       3       2       1       1       3       2       1       1       3
       2       1       1       3       2       1       1       3       2       1
       1       3       2       1       1       3       2       1       1       3
       2       1       1       3       2       1       1       3       2       1
       1       3       2       1       1       3       2       1       1       3
       2       1       1       3       2       1       1       3       2       1
       1       3       2       1       1       3       2       1       1       3
       2       1       1       3       2       1       1       3       2       1
       1       3       2       1       1       3       2       1       1       3
       2       1       1       3       2       1       1       3       2       1
       1       3       2       1       1       3       2       1       1       3
       2       1       1       3       2       1       1       3       2       1
       1       3       2       1       1       3       2       1       1       3
       2       1       1       3       2       1       1       3       2       1
       1       3       2       1       1       3       2       1       1       3
       2       1       1       3       2       1       1       3       2       1
       1       3       2       1       1       3       2       1       1       3
       2       1       1       3       2       1       1       3       2       1
       1       3       2       1       1       3       2       1       1       3
       2       1       1       3       2       1       1       3       2       1
       1       3       2       1       1       3       2       1       1       3
       2       1       1       3       2       1       1       3       2       1
       1       3       2       1       1       3       2       1       1       3
       2       1       1       3       2       1       1       3       2       1
       1       3       2       1       1       3       2       1       1       3
       2       1       1       3       2       1       1       3       2       1
       1       3       2       1       1       3       2       1       1       3
       2       1       1       3       2       1       1       3       2       1
       1       3       2       1       1       3       2       1       1       3
       2       1       1       3       2       1       1       3       2       1
       1       3       2       1       1       3       2       1       1       3
       2       1       1       3       2       1       1       3       2       1
       1       3       2       1       1       3       2       1       1       3
       2       1       1       3       2       1       1       3       2       1
       1       3       2       1       1       3       2       1       1       3
       2       1       1       3       2       1       1       3       2       1
       1       3       2       1       1       3       2       1       1       3
       2       1       1       3       2       1       1       3       2       1
       1       3       2       1       1       3       2       1       1       3
       2       1       1       3       2       1       1       3       2       1
       1       3       2       1       1       3       2       1       1       3
       2       1       1       3       2       1       1       3       2       1
       1       3       2       1       1       3       2       1       1       3
       2       1       1       3       2       1       1       3       2       1
       1       3       2       1       1       3       2       1       1       3
       2       1       1       3       2       1       1       3       2       1
       1       3       2       1       1       3       2       1       1       3
       2       1       1       3       2       1       1       3       2       1
       1       3       2       1       1       3       2       1       1       3
       2       1       1       3       2       1       1       3       2       1
       1       3       2       1       1       3       2       1       1       3
       2       1       1       3       2       1       1       3       2       1
       1       3       2       1       1       3       2       1       1       3
       2       1       1       3       2       1       1       3       2       1
       1       3       2       1       1       3       2       1       1       3
       2       1       1       3       2       1       1       3       2       1
       1       3       2       1       1       3       2       1       1       3
       2       1       1       3       2       1       1       3       2       1
       1       3       2       1       1       3       2       1       1       3
       2       1       1       3       2       1       1       3       2       1
       1       3       2       1       1       3       2       1       1       3
       2       1       1       3       2       1       1       3       2       1
       1       3       2       1       1       3       2       1       1       3
       2       1       1       3       2       1       1       3       2       1
       1       3       2       1       1       3       2       1       1       3
       2       1       1       3       2       1       1       3       2       1
       1       3       2       1       1       3       2       1       1       3
       2       1       1       3       2       1       1       3       2       1
       1       3       2       1       1       3       2       1       1       3
       2       1       1       3       2       1       1       3       2       1
       1       3       2       1       1       3       2       1       1       3
       2       1       1       3       2       1       1       3       2       1
       1       3       2       1       1       3       2       1       1       3
       2       1       1       3       2       1       1       3       2       1
       1       3       2       1       1       3       2       1       1       3
       2       1       1       3       2       1       1       3       2       1
       1       3       2       1       1       3       2       1       1       3
       2       1       1       3       2       1       1       3       2       1
       1       3       2       1       1       3       2       1       1       3
       2       1       1       3       2       1       1       3       2       1
       1       3       2       1       1       3       2       1       1       3
       2       1       1       3       2       1       1       3       2       1
       1       3       2       1       1       3       2       1       1       3
       2       1       1       3       2       1       1       3       2       1
       1       3       2       1       1       3       2       1       1       3
       2       1       1       3       2       1       1       3       2       1
       1       3       2       1       1       3       2       1       1       3
       2       1       1       3       2       1       1       3       2       1
       1       3       2       1       1       3       2       1       1       3
       2       1       1       3       2       1       1       3       2       1
       1       3       2       1       1       3       2       1       1       3
       2       1       1       3       2       1       1       3       2       1
       1       3       2       1       1       3       2       1       1       3
       2       1       1       3       2       1       1       3       2       1
       1       3       2       1       1       3       2       1       1       3
       2       1       1       3       2       1       1       3       2       1
       1       3       2       1       1       3       2       1       1       3
       2       1       1       3       2       1       1       3       2       1
       1       3       2       1       1       3       2       1       1       3
       2       1       1       3       2       1       1       3       2       1
       1       3       2       1       1       3       2       1       1       3
       2       1       1       3       2       1       1       3       2       1
       1       3       2       1       1       3       2       1       1       3
       2       1       1       3       2       1       1       3       2       1
       1       3       2       1       1       3       2       1       1       3
       2       1       1       3       2       1       1       3       2       1
       1       3       2       1       1       3       2       1       1       3
       2       1       1       3       2       1       1       3       2       1
       1       3       2       1       1       3       2       1       1       3
       2       1       1       3       2       1       1       3       2       1
       1       3       2       1       1       3       2       1       1       3
       2       1       1       3       2       1       1       3       2       1
       1       3       2       1       1       3       2       1       1       3
       2       1       1       3       2       1       1       3       2       1
       1       3       2       1       1       3       2       1       1       3
       2       1       1       3       2       1       1       3       2       1
       1       3       2       1       1       3       2       1       1       3
       2       1       1       3       2       1       1       3       2       1
       1       3       2       1       1       3       2       1       1       3
       2       1       1       3       2       1       1       3       2       1
       1       3       2       1       1       3       2       1       1       3
       2       1       1       3       2       1       1       3       2       1
       1       3       2       1       1       3       2       1       1       3
       2       1       1       3       2       1       1       3       2       1
       1       3       2       1       1       3       2       1       1       3
       2       1       1       3       2       1       1       3       2       1
       1       3       2       1       1       3       2       1       1       3
       2       1       1       3       2       1       1       3       2       1
       1       3       2       1       1       3       2       1       1       3
       2       1       1       3       2       1       1       3       2       1
       1       3       2       1       1       3       2       1       1       3
       2       1       1       3       2       1       1       3       2       1
       1       3       2       1       1       3       2       1       1       3
       2       1       1       3       2       1       1       3       2       1
       1       3       2       1       1       3       2       1       1       3
       2       1       1       3       2       1       1       3       2       1
       1       3       2       1       1       3       2       1       1       3
       2       1       1       3       2       1       1       3       2       1
       1       3       2       1       1       3       2       1       1       3
       2       1       1       3       2       1       1       3       2       1
       1       3       2       1       1       3       2       1       1       3
       2       1       1       3       2       1       1       3       2       1
       1       3       2       1       1       3       2       1       1       3
       2       1       1       3       2       1       1       3       2       1
       1       3       2       1       1       3       2       1       1       3
       2       1       1       3       2       1       1       3       2       1
       1       3       2       1       1       3       2       1       1       3
       2       1       1       3       2       1       1       3       2       1
       1       3       2       1       1       3       2       1       1       3
       2       1       1       3       2       1       1       3       2       1
       1       3       2       1       1       3       2       1       1       3
       2       1       1       3       2       1       1       3       2       1
       1       3       2       1       1       3       2       1       1       3
       2       1       1       3       2       1       1       3       2       1
       1       3       2       1       1       3       2       1       1       3
       2       1       1       3       2       1       1       3       2       1
       1       3       2       1       1       3       2       1       1       3
       2       1       1       3       2       1       1       3       2       1
       1       3       2       1       1       3       2       1       1       3
       2       1       1       3       2       1       1       3       2       1
       1       3       2       1       1       3       2       1       1       3
       2       1       1       3       2       1       1       3       2       1
       1       3       2       1       1       3       2       1       1       3
       2       1       1       3       2       1       1       3       2       1
       1       3       2       1       1       3       2       1       1       3
       2       1       1       3       2       1       1       3       2       1
       1       3       2       1       1       3       2       1       1       3
       2       1       1       3       2       1       1       3       2       1
       1       3       2       1       1       3       2       1       1       3
       2       1       1       3       2       1       1       3       2       1
       1       3       2       1       1       3       2       1       1       3
       2       1       1       3       2       1       1       3       2       1
       1       3       2       1       1       3       2       1       1       3
       2       1       1       3       2       1       1       3       2       1
       1       3       2       1       1       3       2       1       1       3
       2       1       1       3       2       1       1       3       2       1
       1       3       2       1       1       3       2       1       1       3
       2       1       1       3       2       1       1       3       2       1
       1       3       2       1       1       3       2       1       1       3
       2       1       1       3       2       1       1       3       2       1
       1       3       2       1       1       3       2       1       1       3
       2       1       1       3       2       1       1       3       2       1
       1       3       2       1       1       3       2       1       1       3
       2       1       1       3       2       1       1       3       2       1
       1       3       2       1       1       3       2       1       1       3
       2       1       1       3       2       1       1       3       2       1
       1       3       2       1       1       3       2       1       1       3
       2       1       1       3       2       1       1       3       2       1
       1       3       2       1       1       3       2       1       1       3
       2       1       1       3       2       1       1       3       2       1
       1       3       2       1       1       3       2       1       1       3
       2       1       1       3       2       1       1       3       2       1
       1       3       2       1       1       3       2       1       1       3
       2       1       1       3       2       1       1       3       2       1
       1       3       2       1       1       3       2       1       1       3
       2       1       1       3       2       1       1       3       2       1
       1       3       2       1       1       3       2       1       1       3
       2       1       1       3       2       1       1       3       2       1
       1       3       2       1       1       3       2       1       1       3
       2       1       1       3       2       1       1       3       2       1
       1       3       2       1       1       3       2       1       1       3
       2       1       1       3       2       1       1       3       2       1
       1       3       2       1       1       3       2       1       1       3
       2       1       1       3       2       1       1       3       2       1
       1       3       2       1       1       3       2       1       1       3
       2       1       1       3       2       1       1       3       2       1
       1       3       2       1       1       3       2       1       1       3
       2       1       1       3       2       1       1       3       2       1
       1       3       2       1       1       3       2       1       1       3
       2       1       1       3       2       1       1       3       2       1
       1       3       2       1       1       3       2       1       1       3
       2       1       1       3       2       1       1       3       2       1
       1       3       2       1       1       3       2       1       1       3
       2       1       1       3       2       1       1       3       2       1
       1       3       2       1       1       3       2       1       1       3
       2       1       1       3       2       1       1       3       2       1
       1       3       2       1       1       3       2       1       1       3
       2       1       1       3       2       1       1       3       2       1
       1       3       2       1       1       3       2       1       1       3
       2       1       1       3       2       1       1       3       2       1
       1       3       2       1       1       3       2       1       1       3
       2       1       1       3       2       1       1       3       2       1
       1       3       2       1       1       3       2       1       1       3
       2       1       1       3       2       1       1       3       2       1
       1       3       2       1       1       3       2       1       1       3
       2       1       1       3       2       1       1       3       2       1
       1       3       2       1       1       3       2       1       1       3
       2       1       1       3       2       1       1       3       2       1
       1       3       2       1       1       3       2       1       1       3
       2       1       1       3       2       1       1       3       2       1
       1       3       2       1       1       3       2       1       1       3
       2       1       1       3       2       1       1       3       2       1
       1       3       2       1       1       3       2       1       1       3
       2       1       1       3       2       1       1       3       2       1
       1       3       2       1       1       3       2       1       1       3
       2       1       1       3       2       1       1       3       2       1
       1       3       2       1       1       3       2       1       1       3
       2       1       1       3       2       1       1       3       2       1
       1       3       2       1       1       3       2       1       1       3
       2       1       1       3       2       1       1       3       2       1
       1       3       2       1       1       3       2       1       1       3
       2       1       1       3       2       1       1       3       2       1
       1       3       2       1       1       3       2       1       1       3
       2       1       1       3       2       1       1       3       2       1
       1       3       2       1       1       3       2       1       1       3
       2       1       1       3       2       1       1       3       2       1
       1       3       2       1       1       3       2       1       1       3
       2       1       1       3       2       1       1       3       2       1
       1       3       2       1       1       3       2       1       1       3
       2       1       1       3       2       1       1       3       2       1
       1       3       2       1       1       3       2       1       1       3
       2       1       1       3       2       1       1       3       2       1
       1       3       2       1       1       3       2       1       1       3
       2       1       1       3       2       1       1       3       2       1
       1       3       2       1       1       3       2       1       1       3
       2       1       1       3       2       1       1       3       2       1
       1       3       2       1       1       3       2       1       1       3
       2       1       1       3       2       1       1       3       2       1
       1       3       2       1       1       3       2       1       1       3
       2       1       1       3       2       1       1       3       2       1
       1       3       2       1       1       3       2       1       1       3
       2       1       1       3       2       1       1       3       2       1
       1       3       2       1       1       3       2       1       1       3
       2       1       1       3       2       1       1       3       2       1
       1       3       2       1       1       3       2       1       1       3
       2       1       1       3       2       1       1       3       2       1
       1       3       2       1       1       3       2       1       1       3
       2       1       1       3       2       1       1       3       2       1
       1       3       2       1       1       3       2       1       1       3
       2       1       1       3       2       1       1       3       2       1
       1       3       2       1       1       3       2       1       1       3
       2       1       1       3       2       1       1       3       2       1
       1       3       2       1       1       3       2       1       1       3
       2       1       1       3       2       1       1       3       2       1
       1       3       2       1       1       3       2       1       1       3
       2       1       1       3       2       1       1       3       2       1
       1       3       2       1       1       3       2       1       1       3
       2       1       1       3       2       1       1       3       2       1
       1       3       2       1       1       3       2       1       1       3
       2       1       1       3       2       1       1       3       2       1
       1       3       2       1       1       3       2       1       1       3
       2       1       1       3       2       1       1       3       2       1
       1       3       2       1       1       3       2       1       1       3
       2       1       1       3       2       1       1       3       2       1
       1       3       2       1       1       3       2       1       1       3
       2       1       1       3       2       1       1       3       2       1
       1       3       2       1       1       3       2       1       1       3
       2       1       1       3       2       1       1       3       2       1
       1       3       2       1       1       3       2       1       1       3
       2       1       1       3       2       1       1       3       2       1
       1       3       2       1       1       3       2       1       1       3
       2       1       1       3       2       1       1       3       2       1
       1       3       2       1       1       3       2       1       1       3
       2       1       1       3       2       1       1       3       2       1
       1       3       2       1       1       3       2       1       1       3
       2       1       1       3       2       1       1       3       2       1
       1       3       2       1       1       3       2       1       1       3
       2       1       1       3       2       1       1       3       2       1
       1       3       2       1       1       3       2       1       1       3
       2       1       1       3       2       1       1       3       2       1
       1       3       2       1       1       3       2       1       1       3
       2       1       1       3       2       1       1       3       2       1
       1       3       2       1       1       3       2       1       1       3
       2       1       1       3       2       1       1       3       2       1
       1       3       2       1       1       3       2       1       1       3
       2       1       1       3       2       1       1       3       2       1
       1       3       2       1       1       3       2       1       1       3
       2       1       1       3       2       1       1       3       2       1
       1       3       2       1       1       3       2       1       1       3
       2       1       1       3       2       1       1       3       2       1
       1       3       2       1       1       3       2       1       1       3
       2       1       1       3       2       1       1       3       2       1
       1       3       2       1       1       3       2       1       1       3
       2       1       1       3       2       1       1       3       2       1
       1       3       2       1       1       3       2       1       1       3
       2       1       1       3       2       1       1       3       2       1
       1       3       2       1       1       3       2       1       1       3
       2       1       1       3       2       1       1       3       2       1
       1       3       2       1       1       3       2       1       1       3
       2       1       1       3       2       1       1       3       2       1
       1       3       2       1       1       3       2       1       1       3
       2       1       1       3       2       1       1       3       2       1
       1       3       2       1       1       3       2       1       1       3
       2       1       1       3       2       1       1       3       2       1
       1       3       2       1       1       3       2       1       1       3
       2       1       1       3       2       1       1       3       2       1
       1       3       2       1       1       3       2       1       1       3
       2       1       1       3       2       1       1       3       2       1
       1       3       2       1       1       3       2       1       1       3
       2       1       1       3       2       1       1       3       2       1
       1       3       2       1       1       3       2       1       1       3
       2       1       1       3       2       1       1       3       2       1
       1       3       2       1       1       3       2       1       1       3
       2       1       1       3       2       1       1       3       2       1
       1       3       2       1       1       3       2       1       1       3
       2       1       1       3       2       1       1       3       2       1
       1       3       2       1       1       3       2       1       1       3
       2       1       1       3       2       1       1       3       2       1
       1       3       2       1       1       3       2       1       1       3
       2       1       1       3       2       1       1       3       2       1
       1       3       2       1       1       3       2       1       1       3
       2       1       1       3       2       1       1       3       2       1
       1       3       2       1       1       3       2       1       1       3
       2       1       1       3       2       1       1       3       2       1
       1       3       2       1       1       3       2       1       1       3
       2       1       1       3       2       1       1       3       2       1
       1       3       2       1       1       3       2       1       1       3
       2       1       1       3       2       1       1       3       2       1
       1       3       2       1       1       3       2       1       1       3
       2       1       1       3       2       1       1       3       2       1
       1       3       2       1       1       3       2       1       1       3
       2       1       1       3       2       1       1       3       2       1
       1       3       2       1       1       3       2       1       1       3
       2       1       1       3       2       1       1       3       2       1
       1       3       2       1       1       3       2       1       1       3
       2       1       1       3       2       1       1       3       2       1
       1       3       2       1       1       3       2       1       1       3
       2       1       1       3       2       1       1       3       2       1
       1       3       2       1       1       3       2       1       1       3
       2       1       1       3       2       1       1       3       2       1
       1       3       2       1       1       3       2       1       1       3
       2       1       1       3       2       1       1       3       2       1
       1       3       2       1       1       3       2       1       1       3
       2       1       1       3       2       1       1       3       2       1
       1       3       2       1       1       3       2       1       1       3
       2       1       1       3       2       1       1       3       2       1
       1       3       2       1       1       3       2       1       1       3
       2       1       1       3       2       1       1       3       2       1
       1       3       2       1       1       3       2       1       1       3
       2       1       1       3       2       1       1       3       2       1
       1       3       2       1       1       3       2       1       1       3
       2       1       1       3       2       1       1       3       2       1
       1       3       2       1       1       3       2       1       1       3
       2       1       1       3       2       1       1       3       2       1
       1       3       2       1       1       3       2       1       1       3
       2       1       1       3       2       1       1       3       2       1
       1       3       2       1       1       3       2       1       1       3
       2       1       1       3       2       1       1       3       2       1
       1       3       2       1       1       3       2       1       1       3
       2       1       1       3       2       1       1       3       2       1
       1       3       2       1       1       3       2       1       1       3
       2       1       1       3       2       1       1       3       2       1
       1       3       2       1       1       3       2       1       1       3
       2       1       1       3       2       1       1       3       2       1
       1       3       2       1       1       3       2       1       1       3
       2       1       1       3       2       1       1       3       2       1
       1       3       2       1       1       3       2       1       1       3
       2       1       1       3       2       1       1       3       2       1
       1       3       2       1       1       3       2       1       1       3
       2       1       1       3       2       1       1       3       2       1
       1       3       2       1       1       3       2       1       1       3
       2       1       1       3       2       1       1       3       2       1
       1       3       2       1       1       3       2       1       1       3
       2       1       1       3       2       1       1       3       2       1
       1       3       2       1       1       3       2       1       1       3
       2       1       1       3       2       1       1       3       2       1
       1       3       2       1       1       3       2       1       1       3
       2       1       1       3       2       1       1       3       2       1
       1       3       2       1       1       3       2       1       1       3
       2       1       1       3       2       1       1       3       2       1
       1       3       2       1       1       3       2       1       1       3
       2       1       1       3       2       1       1       3       2       1
       1       3       2       1       1       3       2       1       1       3
       2       1       1       3       2       1       1       3       2       1
       1       3       2       1       1       3       2       1       1       3
       2       1       1       3       2       1       1       3       2       1
       1       3       2       1       1       3       2       1       1       3
       2       1       1       3       2       1       1       3       2       1
       1       3       2       1       1       3       2       1       1       3
       2       1       1       3       2       1       1       3       2       1
       1       3       2       1       1       3       2       1       1       3
       2       1       1       3       2       1       1       3       2       1
       1       3       2       1       1       3       2       1       1       3
       2       1       1       3       2       1       1       3       2       1
       1       3       2       1       1       3       2       1       1       3
       2       1       1       3       2       1       1       3       2       1
       1       3       2       1       1       3       2       1       1       3
       2       1       1       3       2       1       1       3       2       1
       1       3       2       1       1       3       2       1       1       3
       2       1       1       3       2       1       1       3       2       1
       1       3       2       1       1       3       2       1       1       3
       2       1       1       3       2       1       1       3       2       1
       1       3       2       1       1       3       2       1       1       3
       2       1       1       3       2       1       1       3       2       1
       1       3       2       1       1       3       2       1       1       3
       2       1       1       3       2       1       1       3       2       1
       1       3       2       1       1       3       2       1       1       3
       2       1       1       3       2       1       1       3       2       1
       1       3       2       1       1       3       2       1       1       3
       2       1       1       3       2       1       1       3       2       1
       1       3       2       1       1       3       2       1       1       3
       2       1       1       3       2       1       1       3       2       1
       1       3       2       1       1       3       2       1       1       3
       2       1       1       3       2       1       1       3       2       1
       1       3       2       1       1       3       2       1       1       3
       2       1       1       3       2       1       1       3       2       1
       1       3       2       1       1       3       2       1       1       3
       2       1       1       3       2       1       1       3       2       1
       1       3       2       1       1       3       2       1       1       3
       2       1       1       3       2       1       1       3       2       1
       1       3       2       1       1       3       2       1       1       3
       2       1       1       3       2       1       1       3       2       1
       1       3       2       1       1       3       2       1       1       3
       2       1       1       3       2       1       1       3       2       1
       1       3       2       1       1       3       2       1       1       3
       2       1       1       3       2       1       1       3       2       1
       1       3       2       1       1       3       2       1       1       3
       2       1       1       3       2       1       1       3       2       1
       1       3       2       1       1       3       2       1       1       3
       2       1       1       3       2       1       1       3       2       1
       1       3       2       1       1       3       2       1       1       3
       2       1       1       3       2       1       1       3       2       1
       1       3       2       1       1       3       2       1       1       3
       2       1       1       3       2       1       1       3       2       1
       1       3       2       1       1       3       2       1       1       3
       2       1       1       3       2       1       1       3       2       1
       1       3       2       1       1       3       2       1       1       3
       2       1       1       3       2       1       1       3       2       1
       1       3       2       1       1       3       2       1       1       3
       2       1       1       3       2       1       1       3       2       1
       1       3       2       1       1       3       2       1       1       3
       2       1       1       3       2       1       1       3       2       1
       1       3       2       1       1       3       2       1       1       3
       2       1       1       3       2       1       1       3       2       1
       1       3       2       1       1       3       2       1       1       3
       2       1       1       3       2       1       1       3       2       1
       1       3       2       1       1       3       2       1       1       3
       2       1       1       3       2       1       1       3       2       1
       1       3       2       1       1       3       2       1       1       3
       2       1       1       3       2       1       1       3       2       1
       1       3       2       1       1       3       2       1       1       3
       2       1       1       3       2       1       1       3       2       1
       1       3       2       1       1       3       2       1       1       3
       2       1       1       3       2       1       1       3       2       1
       1       3       2       1       1       3       2       1       1       3
       2       1       1       3       2       1       1       3       2       1
       1       3       2       1       1       3       2       1       1       3
       2       1       1       3       2       1       1       3       2       1
       1       3       2       1       1       3       2       1       1       3
       2       1       1       3       2       1       1       3       2       1
       1       3       2       1       1       3       2       1       1       3
       2       1       1       3       2       1       1       3       2       1
       1       3       2       1       1       3       2       1       1       3
       2       1       1       3       2       1       1       3       2       1
       1       3       2       1       1       3       2       1       1       3
       2       1       1       3       2       1       1       3       2       1
       1       3       2       1       1       3       2       1       1       3
       2       1       1       3       2       1       1       3       2       1
       1       3       2       1       1       3       2       1       1       3
       2       1       1       3       2       1       1       3       2       1
       1       3       2       1       1       3       2       1       1       3
       2       1       1       3       2       1       1       3       2       1
       1       3       2       1       1       3       2       1       1       3
       2       1       1       3       2       1       1       3       2       1
       1       3       2       1       1       3       2       1       1       3
       2       1       1       3       2       1       1       3       2       1
       1       3       2       1       1       3       2       1       1       3
       2       1       1       3       2       1       1       3       2       1
       1       3       2       1       1       3       2       1       1       3
       2       1       1       3       2       1       1       3       2       1
       1       3       2       1       1       3       2       1       1       3
       2       1       1       3       2       1       1       3       2       1
       1       3       2       1       1       3       2       1       1       3
       2       1       1       3       2       1       1       3       2       1
       1       3       2       1       1       3       2       1       1       3
       2       1       1       3       2       1       1       3       2       1
       1       3       2       1       1       3       2       1       1       3
       2       1       1       3       2       1       1       3       2       1
       1       3       2       1       1       3       2       1       1       3
       2       1       1       3       2       1       1       3       2       1
       1       3       2       1       1       3       2       1       1       3
       2       1       1       3       2       1       1       3       2       1
       1       3       2       1       1       3       2       1       1       3
       2       1       1       3       2       1       1       3       2       1
       1       3       2       1       1       3       2       1       1       3
       2       1       1       3       2       1       1       3       2       1
       1       3       2       1       1       3       2       1       1       3
       2       1       1       3       2       1       1       3       2       1
       1       3       2       1       1       3       2       1       1       3
       2       1       1       3       2       1       1       3       2       1
       1       3       2       1       1       3       2       1       1       3
       2       1       1       3       2       1       1       3       2       1
       1       3       2       1       1       3       2       1       1       3
       2       1       1       3       2       1       1       3       2       1
       1       3       2       1       1       3       2       1       1       3
       2       1       1       3       2       1       1       3       2       1
       1       3       2       1       1       3       2       1       1       3
       2       1       1       3       2       1       1       3       2       1
       1       3       2       1       1       3       2       1       1       3
       2       1       1       3       2       1       1       3       2       1
       1       3       2       1       1       3       2       1       1       3
       2       1       1       3       2       1       1       3       2       1
       1       3       2       1       1       3       2       1       1       3
       2       1       1       3       2       1       1       3       2       1
       1       3       2       1       1       3       2       1       1       3
       2       1       1       3       2       1       1       3       2       1
       1       3       2       1       1       3       2       1       1       3
       2       1       1       3       2       1       1       3       2       1
       1       3       2       1       1       3       2       1       1       3
       2       1       1       3       2       1       1       3       2       1
       1       3       2       1       1       3       2       1       1       3
       2       1       1       3       2       1       1       3       2       1
       1       3       2       1       1       3       2       1       1       3
       2       1       1       3       2       1       1       3       2       1
       1       3       2       1       1       3       2       1       1       3
       2       1       1       3       2       1       1       3       2       1
       1       3       2       1       1       3       2       1       1       3
       2       1       1       3       2       1       1       3       2       1
       1       3       2       1       1       3       2       1       1       3
       2       1       1       3       2       1       1       3       2       1
       1       3       2       1       1       3       2       1       1       3
       2       1       1       3       2       1       1       3       2       1
       1       3       2       1       1       3       2       1       1       3
       2       1       1       3       2       1       1       3       2       1
       1       3       2       1       1       3       2       1       1       3
       2       1       1       3       2       1       1       3       2       1
       1       3       2       1       1       3       2       1       1       3
       2       1       1       3       2       1       1       3       2       1
       1       3       2       1       1       3       2       1       1       3
       2       1       1       3       2       1       1       3       2       1
       1       3       2       1       1       3       2       1       1       3
       2       1       1       3       2       1       1       3       2       1
       1       3       2       1       1       3       2       1       1       3
       2       1       1       3       2       1       1       3       2       1
       1       3       2       1       1       3       2       1       1       3
       2       1       1       3       2       1       1       3       2       1
       1       3       2       1       1       3       2       1       1       3
       2       1       1       3       2       1       1       3       2       1
       1       3       2       1       1       3       2       1       1       3
       2       1       1       3       2       1       1       3       2       1
       1       3       2       1       1       3       2       1       1       3
       2       1       1       3       2       1       1       3       2       1
       1       3       2       1       1       3       2       1       1       3
       2       1       1       3       2       1       1       3       2       1
       1       3       2       1       1       3       2       1       1       3
       2       1       1       3       2       1       1       3       2       1
       1       3       2       1       1       3       2       1       1       3
       2       1       1       3       2       1       1       3       2       1
       1       3       2       1       1       3       2       1       1       3
       2       1       1       3       2       1       1       3       2       1
       1       3       2       1       1       3       2       1       1       3
       2       1       1       3       2       1       1       3       2       1
       1       3       2       1       1       3       2       1       1       3
       2       1       1       3       2       1       1       3       2       1
       1       3       2       1       1       3       2       1       1       3
       2       1       1       3       2       1       1       3       2       1
       1       3       2       1       1       3       2       1       1       3
       2       1       1       3       2       1       1       3       2       1
       1       3       2       1       1       3       2       1       1       3
       2       1       1       3       2       1       1       3       2       1
       1       3       2       1       1       3       2       1       1       3
       2       1       1       3       2       1       1       3       2       1
       1       3       2       1       1       3       2       1       1       3
       2       1       1       3       2       1       1       3       2       1
       1       3       2       1       1       3       2       1       1       3
       2       1       1       3       2       1       1       3       2       1
       1       3       2       1       1       3       2       1       1       3
       2       1       1       3       2       1       1       3       2       1
       1       3       2       1       1       3       2       1       1       3
       2       1       1       3       2       1       1       3       2       1
       1       3       2       1       1       3       2       1       1       3
       2       1       1       3       2       1       1       3       2       1
       1       3       2       1       1       3       2       1       1       3
       2       1       1       3       2       1       1       3       2       1
       1       3       2       1       1       3       2       1       1       3
       2       1       1       3       2       1       1       3       2       1
       1       3       2       1       1       3       2       1       1       3
       2       1       1       3       2       1       1       3       2       1
       1       3       2       1       1       3       2       1       1       3
       2       1       1       3       2       1       1       3       2       1
       1       3       2       1       1       3       2       1       1       3
       2       1       1       3       2       1       1       3       2       1
       1       3       2       1       1       3       2       1       1       3
       2       1       1       3       2       1       1       3       2       1
       1       3       2       1       1       3       2       1       1       3
       2       1       1       3       2       1       1       3       2       1
       1       3       2       1       1       3       2       1       1       3
       2       1       1       3       2       1       1       3       2       1
       1       3       2       1       1       3       2       1       1       3
       2       1       1       3       2       1       1       3       2       1
       1       3       2       1       1       3       2       1       1       3
       2       1       1       3       2       1       1       3       2       1
       1       3       2       1       1       3       2       1       1       3
       2       1       1       3       2       1       1       3       2       1
       1       3       2       1       1       3       2       1       1       3
       2       1       1       3       2       1       1       3       2       1
       1       3       2       1       1       3       2       1       1       3
       2       1       1       3       2       1       1       3       2       1
       1       3       2       1       1       3       2       1       1       3
       2       1       1       3       2       1       1       3       2       1
       1       3       2       1       1       3       2       1       1       3
       2       1       1       3       2       1       1       3       2       1
       1       3       2       1       1       3       2       1       1       3
       2       1       1       3       2       1       1       3       2       1
       1       3       2       1       1       3       2       1       1       3
       2       1       1       3       2       1       1       3       2       1
       1       3       2       1       1       3       2       1       1       3
       2       1       1       3       2       1       1       3       2       1
       1       3       2       1       1       3       2       1       1       3
       2       1       1       3       2       1       1       3       2       1
       1       3       2       1       1       3       2       1       1       3
       2       1       1       3       2       1       1       3       2       1
       1       3       2       1       1       3       2       1       1       3
       2       1       1       3       2       1       1       3       2       1
       1       3       2       1       1       3       2       1       1       3
       2       1       1       3       2       1       1       3       2       1
       1       3       2       1       1       3       2       1       1       3
       2       1       1       3       2       1       1       3       2       1
       1       3       2       1       1       3       2       1       1       3
       2       1       1       3       2       1       1       3       2       1
       1       3       2       1       1       3       2       1       1       3
       2       1       1       3       2       1       1       3       2       1
       1       3       2       1       1       3       2       1       1       3
       2       1       1       3       2       1       1       3       2       1
       1       3       2       1       1       3       2       1       1       3
       2       1       1       3       2       1       1       3       2       1
       1       3       2       1       1       3       2       1       1       3
       2       1       1       3       2       1       1       3       2       1
       1       3       2       1       1       3       2       1       1       3
       2       1       1       3       2       1       1       3       2       1
       1       3       2       1       1       3       2       1       1       3
       2       1       1       3       2       1       1       3       2       1
       1       3       2       1       1       3       2       1       1       3
       2       1       1       3       2       1       1       3       2       1
       1       3       2       1       1       3       2       1       1       3
       2       1       1       3       2       1       1       3       2       1
       1       3       2       1       1       3       2       1       1       3
       2       1       1       3       2       1       1       3       2       1
       1       3       2       1       1       3       2       1       1       3
       2       1       1       3       2       1       1       3       2       1
       1       3       2       1       1       3       2       1       1       3
       2       1       1       3       2       1       1       3       2       1
       1       3       2       1       1       3       2       1       1       3
       2       1       1       3       2       1       1       3       2       1
       1       3       2       1       1       3       2       1       1       3
       2       1       1       3       2       1       1       3       2       1
       1       3       2       1       1       3       2       1       1       3
       2       1       1       3       2       1       1       3       2       1
       1       3       2       1       1       3       2       1       1       3
       2       1       1       3       2       1       1       3       2       1
       1       3       2       1       1       3       2       1       1       3
       2       1       1       3       2       1       1       3       2       1
       1       3       2       1       1       3       2       1       1       3
       2       1       1       3       2       1       1       3       2       1
       1       3       2       1       1       3       2       1       1       3
       2       1       1       3       2       1       1       3       2       1
       1       3       2       1       1       3       2       1       1       3
       2       1       1       3       2       1       1       3       2       1
       1       3       2       1       1       3       2       1       1       3
       2       1       1       3       2       1       1       3       2       1
       1       3       2       1       1       3       2       1       1       3
       2       1       1       3       2       1       1       3       2       1
       1       3       2       1       1       3       2       1       1       3
       2       1       1       3       2       1       1       3       2       1
       1       3       2       1       1       3       2       1       1       3
       2       1       1       3       2       1       1       3       2       1
       1       3       2       1       1       3       2       1       1       3
       2       1       1       3       2       1       1       3       2       1
       1       3       2       1       1       3       2       1       1       3
       2       1       1       3       2       1       1       3       2       1
       1       3       2       1       1       3       2       1       1       3
       2       1       1       3       2       1       1       3       2       1
       1       3       2       1       1       3       2       1       1       3
       2       1       1       3       2       1       1       3       2       1
       1       3       2       1       1       3       2       1       1       3
       2       1       1       3       2       1       1       3       2       1
       1       3       2       1       1       3       2       1       1       3
       2       1       1       3       2       1       1       3       2       1
       1       3       2       1       1       3       2       1       1       3
       2       1       1       3       2       1       1       3       2       1
       1       3       2       1       1       3       2       1       1       3
       2       1       1       3       2       1       1       3       2       1
       1       3       2       1       1       3       2       1       1       3
       2       1       1       3       2       1       1       3       2       1
       1       3       2       1       1       3       2       1       1       3
       2       1       1       3       2       1       1       3       2       1
       1       3       2       1       1       3       2       1       1       3
       2       1       1       3       2       1       1       3       2       1
       1       3       2       1       1       3       2       1       1       3
       2       1       1       3       2       1       1       3       2       1
       1       3       2       1       1       3       2       1       1       3
       2       1       1       3       2       1       1       3       2       1
       1       3       2       1       1       3       2       1       1       3
       2       1       1       3       2       1       1       3       2       1
       1       3       2       1       1       3       2       1       1       3
       2       1       1       3       2       1       1       3       2       1
       1       3       2       1       1       3       2       1       1       3
       2       1       1       3       2       1       1       3       2       1
       1       3       2       1       1       3       2       1       1       3
       2       1       1       3       2       1       1       3       2       1
       1       3       2       1       1       3       2       1       1       3
       2       1       1       3       2       1       1       3       2       1
       1       3       2       1       1       3       2       1       1       3
       2       1       1       3       2       1       1       3       2       1
       1       3       2       1       1       3       2       1       1       3
       2       1       1       3       2       1       1       3       2       1
       1       3       2       1       1       3       2       1       1       3
       2       1       1       3       2       1       1       3       2       1
       1       3       2       1       1       3       2       1       1       3
       2       1       1       3       2       1       1       3       2       1
       1       3       2       1       1       3       2       1       1       3
       2       1       1       3       2       1       1       3       2       1
       1       3       2       1       1       3       2       1       1       3
       2       1       1       3       2       1       1       3       2       1
       1       3       2       1       1       3       2       1       1       3
       2       1       1       3       2       1       1       3       2       1
       1       3       2       1       1       3       2       1       1       3
       2       1       1       3       2       1       1       3       2       1
       1       3       2       1       1       3       2       1       1       3
       2       1       1       3       2       1       1       3       2       1
       1       3       2       1       1       3       2       1       1       3
       2       1       1       3       2       1       1       3       2       1
       1       3       2       1       1       3       2       1       1       3
       2       1       1       3       2       1       1       3       2       1
       1       3       2       1       1       3       2       1       1       3
       2       1       1       3       2       1       1       3       2       1
       1       3       2       1       1       3       2       1       1       3
       2       1       1       3       2       1       1       3       2       1
       1       3       2       1       1       3       2       1       1       3
       2       1       1       3       2       1       1       3       2       1
       1       3       2       1       1       3       2       1       1       3
       2       1       1       3       2       1       1       3       2       1
       1       3       2       1       1       3       2       1       1       3
       2       1       1       3       2       1       1       3       2       1
       1       3       2       1       1       3       2       1       1       3
       2       1       1       3       2       1       1       3       2       1
       1       3       2       1       1       3       2       1       1       3
       2       1       1       3       2       1       1       3       2       1
       1       3       2       1       1       3       2       1       1       3
       2       1       1       3       2       1       1       3       2       1
       1       3       2       1       1       3       2       1       1       3
       2       1       1       3       2       1       1       3       2       1
       1       3       2       1       1       3       2       1       1       3
       2       1       1       3       2       1       1       3       2       1
       1       3       2       1       1       3       2       1       1       3
       2       1       1       3       2       1       1       3       2       1
       1       3       2       1       1       3       2       1       1       3
       2       1       1       3       2       1       1       3       2       1
       1       3       2       1       1       3       2       1       1       3
       2       1       1       3       2       1       1       3       2       1
       1       3       2       1       1       3       2       1       1       3
       2       1       1       3       2       1       1       3       2       1
       1       3       2       1       1       3       2       1       1       3
       2       1       1       3       2       1       1       3       2       1
       1       3       2       1       1       3       2       1       1       3
       2       1       1       3       2       1       1       3       2       1
       1       3       2       1       1       3       2       1       1       3
       2       1       1       3       2       1       1       3       2       1
       1       3       2       1       1       3       2       1       1       3
       2       1       1       3       2       1       1       3       2       1
       1       3       2       1       1       3       2       1       1       3
       2       1       1       3       2       1       1       3       2       1
       1       3       2       1       1       3       2       1       1       3
       2       1       1       3       2       1       1       3       2       1
       1       3       2       1       1       3       2       1       1       3
       2       1       1       3       2       1       1       3       2       1
       1       3       2       1       1       3       2       1       1       3
       2       1       1       3       2       1       1       3       2       1
       1       3       2       1       1       3       2       1       1       3
       2       1       1       3       2       1       1       3       2       1
       1       3       2       1       1       3       2       1       1       3
       2       1       1       3       2       1       1       3       2       1
       1       3       2       1       1       3       2       1       1       3
       2       1       1       3       2       1       1       3       2       1
       1       3       2       1       1       3       2       1       1       3
       2       1       1       3       2       1       1       3       2       1
       1       3       2       1       1       3       2       1       1       3
       2       1       1       3       2       1       1       3       2       1
       1       3       2       1       1       3       2       1       1       3
       2       1       1       3       2       1       1       3       2       1
       1       3       2       1       1       3       2       1       1       3
       2       1       1       3       2       1       1       3       2       1
       1       3       2       1       1       3       2       1       1       3
       2       1       1       3       2       1       1       3       2       1
       1       3       2       1       1       3       2       1       1       3
       2       1       1       3       2       1       1       3       2       1
       1       3       2       1       1       3       2       1       1       3
       2       1       1       3       2       1       1       3       2       1
       1       3       2       1       1       3       2       1       1       3
       2       1       1       3       2       1       1       3       2       1
       1       3       2       1       1       3       2       1       1       3
       2       1       1       3       2       1       1       3       2       1
       1       3       2       1       1       3       2       1       1       3
       2       1       1       3       2       1       1       3       2       1
       1       3       2       1       1       3       2       1       1       3
       2       1       1       3       2       1       1       3       2       1
       1       3       2       1       1       3       2       1       1       3
       2       1       1       3       2       1       1       3       2       1
       1       3       2       1       1       3       2       1       1       3
       2       1       1       3       2       1       1       3       2       1
       1       3       2       1       1       3       2       1       1       3
       2       1       1       3       2       1       1       3       2       1
       1       3       2       1       1       3       2       1       1       3
       2       1       1       3       2       1       1       3       2       1
       1       3       2       1       1       3       2       1       1       3
       2       1       1       3       2       1       1       3       2       1
       1       3       2       1       1       3       2       1       1       3
       2       1       1       3       2       1       1       3       2       1
       1       3       2       1       1       3       2       1       1       3
       2       1       1       3       2       1       1       3       2       1
       1       3       2       1       1       3       2       1       1       3
       2       1       1       3       2       1       1       3       2       1
       1       3       2       1       1       3       2       1       1       3
       2       1       1       3       2       1       1       3       2       1
       1       3       2       1       1       3       2       1       1       3
       2       1       1       3       2       1       1       3       2       1
       1       3       2       1       1       3       2       1       1       3
       2       1       1       3       2       1       1       3       2       1
       1       3       2       1       1       3       2       1       1       3
       2       1       1       3       2       1       1       3       2       1
       1       3       2       1       1       3       2       1       1       3
       2       1       1       3       2       1       1       3       2       1
       1       3       2       1       1       3       2       1       1       3
       2       1       1       3       2       1       1       3       2       1
       1       3       2       1       1       3       2       1       1       3
       2       1       1       3       2       1       1       3       2       1
       1       3       2       1       1       3       2       1       1       3
       2       1       1       3       2       1       1       3       2       1
       1       3       2       1       1       3       2       1       1       3
       2       1       1       3       2       1       1       3       2       1
       1       3       2       1       1       3       2       1       1       3
       2       1       1       3       2       1       1       3       2       1
       1       3       2       1       1       3       2       1       1       3
       2       1       1       3       2       1       1       3       2       1
       1       3       2       1       1       3       2       1       1       3
       2       1       1       3       2       1       1       3       2       1
       1       3       2       1       1       3       2       1       1       3
       2       1       1       3       2       1       1       3       2       1
       1       3       2       1       1       3       2       1       1       3
       2       1       1       3       2       1       1       3       2       1
       1       3       2       1       1       3       2       1       1       3
       2       1       1       3       2       1       1       3       2       1
       1       3       2       1       1       3       2       1       1       3
       2       1       1       3       2       1       1       3       2       1
       1       3       2       1       1       3       2       1       1       3
       2       1       1       3       2       1       1       3       2       1
       1       3       2       1       1       3       2       1       1       3
       2       1       1       3       2       1       1       3       2       1
       1       3       2       1       1       3       2       1       1       3
       2       1       1       3       2       1       1       3       2       1
       1       3       2       1       1       3       2       1       1       3
       2       1       1       3       2       1       1       3       2       1
       1       3       2       1       1       3       2       1       1       3
       2       1       1       3       2       1       1       3       2       1
       1       3       2       1       1       3       2       1       1       3
       2       1       1       3       2       1       1       3       2       1
       1       3       2       1       1       3       2       1       1       3
       2       1       1       3       2       1       1       3       2       1
       1       3       2       1       1       3       2       1       1       3
       2       1       1       3       2       1       1       3       2       1
       1       3       2       1       1       3       2       1       1       3
       2       1       1       3       2       1       1       3       2       1
       1       3       2       1       1       3       2       1       1       3
       2       1       1       3       2       1       1       3       2       1
       1       3       2       1       1       3       2       1       1       3
       2       1       1       3       2       1       1       3       2       1
       1       3       2       1       1       3       2       1       1       3
       2       1       1       3       2       1       1       3       2       1
       1       3       2       1       1       3       2       1       1       3
       2       1       1       3       2       1       1       3       2       1
       1       3       2       1       1       3       2       1       1       3
       2       1       1       3       2       1       1       3       2       1
       1       3       2       1       1       3       2       1       1       3
       2       1       1       3       2       1       1       3       2       1
       1       3       2       1       1       3       2       1       1       3
       2       1       1       3       2       1       1       3       2       1
       1       3       2       1       1       3       2       1       1       3
       2       1       1       3       2       1       1       3       2       1
       1       3       2       1       1       3       2       1       1       3
       2       1       1       3       2       1       1       3       2       1
       1       3       2       1       1       3       2       1       1       3
       2       1       1       3       2       1       1       3       2       1
       1       3       2       1       1       3       2       1       1       3
       2       1       1       3       2       1       1       3       2       1
       1       3       2       1       1       3       2       1       1       3
       2       1       1       3       2       1       1       3       2       1
       1       3       2       1       1       3       2       1       1       3
       2       1       1       3       2       1       1       3       2       1
       1       3       2       1       1       3       2       1       1       3
       2       1       1       3       2       1       1       3       2       1
       1       3       2       1       1       3       2       1       1       3
       2       1       1       3       2       1       1       3       2       1
       1       3       2       1       1       3       2       1       1       3
       2       1       1       3       2       1       1       3       2       1
       1       3       2       1       1       3       2       1       1       3
       2       1       1       3       2       1       1       3       2       1
       1       3       2       1       1       3       2       1       1       3
       2       1       1       3       2       1       1       3       2       1
       1       3       2       1       1       3       2       1       1       3
       2       1       1       3       2       1       1       3       2       1
       1       3       2       1       1       3       2       1       1       3
       2       1       1       3       2       1       1       3       2       1
       1       3       2       1       1       3       2       1       1       3
       2       1       1       3       2       1       1       3       2       1
       1       3       2       1       1       3       2       1       1       3
       2       1       1       3       2       1       1       3       2       1
       1       3       2       1       1       3       2       1       1       3
       2       1       1       3       2       1       1       3       2       1
       1       3       2       1       1       3       2       1       1       3
       2       1       1       3       2       1       1       3       2       1
       1       3       2       1       1       3       2       1       1       3
       2       1       1       3       2       1       1       3       2       1
       1       3       2       1       1       3       2       1       1       3
       2       1       1       3       2       1       1       3       2       1
       1       3       2       1       1       3       2       1       1       3
       2       1       1       3       2       1       1       3       2       1
       1       3       2       1       1       3       2       1       1       3
       2       1       1       3       2       1       1       3       2       1
       1       3       2       1       1       3       2       1       1       3
       2       1       1       3       2       1       1       3       2       1
       1       3       2       1       1       3       2       1       1       3
       2       1       1       3       2       1       1       3       2       1
       1       3       2       1       1       3       2       1       1       3
       2       1       1       3       2       1       1       3       2       1
       1       3       2       1       1       3       2       1       1       3
       2       1       1       3       2       1       1       3       2       1
       1       3       2       1       1       3       2       1       1       3
       2       1       1       3       2       1       1       3       2       1
       1       3       2       1       1       3       2       1       1       3
       2       1       1       3       2       1       1       3       2       1
       1       3       2       1       1       3       2       1       1       3
       2       1       1       3       2       1       1       3       2       1
       1       3       2       1       1       3       2       1       1       3
       2       1       1       3       2       1       1       3       2       1
       1       3       2       1       1       3       2       1       1       3
       2       1       1       3       2       1       1       3       2       1
       1       3       2       1       1       3       2       1       1       3
       2       1       1       3       2       1       1       3       2       1
       1       3       2       1       1       3       2       1       1       3
       2       1       1       3       2       1       1       3       2       1
       1       3       2       1       1       3       2       1       1       3
       2       1       1       3       2       1       1       3       2       1
       1       3       2       1       1       3       2       1       1       3
       2       1       1       3       2       1       1       3       2       1
       1       3       2       1       1       3       2       1       1       3
       2       1       1       3       2       1       1       3       2       1
       1       3       2       1       1       3       2       1       1       3
       2       1       1       3       2       1       1       3       2       1
       1       3       2       1       1       3       2       1       1       3
       2       1       1       3       2       1       1       3       2       1
       1       3       2       1       1       3       2       1       1       3
       2       1       1       3       2       1       1       3       2       1
       1       3       2       1       1       3       2       1       1       3
       2       1       1       3       2       1       1       3       2       1
       1       3       2       1       1       3       2       1       1       3
       2       1       1       3       2       1       1       3       2       1
       1       3       2       1       1       3       2       1       1       3
       2       1       1       3       2       1       1       3       2       1
       1       3       2       1       1       3       2       1       1       3
       2       1       1       3       2       1       1       3       2       1
       1       3       2       1       1       3       2       1       1       3
       2       1       1       3       2       1       1       3       2       1
       1       3       2       1       1       3       2       1       1       3
       2       1       1       3       2       1       1       3       2       1
       1       3       2       1       1       3       2       1       1       3
       2       1       1       3       2       1       1       3       2       1
       1       3       2       1       1       3       2       1       1       3
       2       1       1       3       2       1       1       3       2       1
       1       3       2       1       1       3       2       1       1       3
       2       1       1       3       2       1       1       3       2       1
       1       3       2       1       1       3       2       1       1       3
       2       1       1       3       2       1       1       3       2       1
       1       3       2       1       1       3       2       1       1       3
       2       1       1       3       2       1       1       3       2       1
       1       3       2       1       1       3       2       1       1       3
       2       1       1       3       2       1       1       3       2       1
       1       3       2       1       1       3       2       1       1       3
       2       1       1       3       2       1       1       3       2       1
       1       3       2       1       1       3       2       1       1       3
       2       1       1       3       2       1       1       3       2       1
       1       3       2       1       1       3       2       1       1       3
       2       1       1       3       2       1       1       3       2       1
       1       3       2       1       1       3       2       1       1       3
       2       1       1       3       2       1       1       3       2       1
       1       3       2       1       1       3       2       1       1       3
       2       1       1       3       2       1       1       3       2       1
       1       3       2       1       1       3       2       1       1       3
       2       1       1       3       2       1       1       3       2       1
       1       3       2       1       1       3       2       1       1       3
       2       1       1       3       2       1       1       3       2       1
       1       3       2       1       1       3       2       1       1       3
       2       1       1       3       2       1       1       3       2       1
       1       3       2       1       1       3       2       1       1       3
       2       1       1       3       2       1       1       3       2       1
       1       3       2       1       1       3       2       1       1       3
       2       1       1       3       2       1       1       3       2       1
       1       3       2       1       1       3       2       1       1       3
       2       1       1       3       2       1       1       3       2       1
       1       3       2       1       1       3       2       1       1       3
       2       1       1       3       2       1       1       3       2       1
       1       3       2       1       1       3       2       1       1       3
       2       1       1       3       2       1       1       3       2       1
       1       3       2       1       1       3       2       1       1       3
       2       1       1       3       2       1       1       3       2       1
       1       3       2       1       1       3       2       1       1       3
       2       1       1       3       2       1       1       3       2       1
       1       3       2       1       1       3       2       1       1       3
       2       1       1       3       2       1       1       3       2       1
       1       3       2       1       1       3       2       1       1       3
       2       1       1       3       2       1       1       3       2       1
       1       3       2       1       1       3       2       1       1       3
       2       1       1       3       2       1       1       3       2       1
       1       3       2       1       1       3       2       1       1       3
       2       1       1       3       2       1       1       3       2       1
       1       3       2       1       1       3       2       1       1       3
       2       1       1       3       2       1       1       3       2       1
       1       3       2       1       1       3       2       1       1       3
       2       1       1       3       2       1       1       3       2       1
       1       3       2       1       1       3       2       1       1       3
       2       1       1       3       2       1       1       3       2       1
       1       3       2       1       1       3       2       1       1       3
       2       1       1       3       2       1       1       3       2       1
       1       3       2       1       1       3       2       1       1       3
       2       1       1       3       2       1       1       3       2       1
       1       3       2       1       1       3       2       1       1       3
       2       1       1       3       2       1       1       3       2       1
       1       3       2       1       1       3       2       1       1       3
       2       1       1       3       2       1       1       3       2       1
       1       3       2       1       1       3       2       1       1       3
       2       1       1       3       2       1       1       3       2       1
       1       3       2       1       1       3       2       1       1       3
       2       1       1       3       2       1       1       3       2       1
       1       3       2       1       1       3       2       1       1       3
       2       1       1       3       2       1       1       3       2       1
       1       3       2       1       1       3       2       1       1       3
       2       1       1       3       2       1       1       3       2       1
       1       3       2       1       1       3       2       1       1       3
       2       1       1       3       2       1       1       3       2       1
       1       3       2       1       1       3       2       1       1       3
       2       1       1       3       2       1       1       3       2       1
       1       3       2       1       1       3       2       1       1       3
       2       1       1       3       2       1       1       3       2       1
       1       3       2       1       1       3       2       1       1       3
       2       1       1       3       2       1       1       3       2       1
       1       3       2       1       1       3       2       1       1       3
       2       1       1       3       2       1       1       3       2       1
       1       3       2       1       1       3       2       1       1       3
       2       1       1       3       2       1       1       3       2       1
       1       3       2       1       1       3       2       1       1       3
       2       1       1       3       2       1       1       3       2       1
       1       3       2       1       1       3       2       1       1       3
       2       1       1       3       2       1       1       3       2       1
       1       3       2       1       1       3       2       1       1       3
       2       1       1       3       2       1       1       3       2       1
       1       3       2       1       1       3       2       1       1       3
       2       1       1       3       2       1       1       3       2       1
       1       3       2       1       1       3       2       1       1       3
       2       1       1       3       2       1       1       3       2       1
       1       3       2       1       1       3       2       1       1       3
       2       1       1       3       2       1       1       3       2       1
       1       3       2       1       1       3       2       1       1       3
       2       1       1       3       2       1       1       3       2       1
       1       3       2       1       1       3       2       1       1       3
       2       1       1       3       2       1       1       3       2       1
       1       3       2       1       1       3       2       1       1       3
       2       1       1       3       2       1       1       3       2       1
       1       3       2       1       1       3       2       1       1       3
       2       1       1       3       2       1       1       3       2       1
       1       3       2       1       1       3       2       1       1       3
       2       1       1       3       2       1       1       3       2       1
       1       3       2       1       1       3       2       1       1       3
       2       1       1       3       2       1       1       3       2       1
       1       3       2       1       1       3       2       1       1       3
       2       1       1       3       2       1       1       3       2       1
       1       3       2       1       1       3       2       1       1       3
       2       1       1       3       2       1       1       3       2       1
       1       3       2       1       1       3       2       1       1       3
       2       1       1       3       2       1       1       3       2       1
       1       3       2       1       1       3       2       1       1       3
       2       1       1       3       2       1       1       3       2       1
       1       3       2       1       1       3       2       1       1       3
       2       1       1       3       2       1       1       3       2       1
       1       3       2       1       1       3       2       1       1       3
       2       1       1       3       2       1       1       3       2       1
       1       3       2       1       1       3       2       1       1       3
       2       1       1       3       2       1       1       3       2       1
       1       3       2       1       1       3       2       1       1       3
       2       1       1       3       2       1       1       3       2       1
       1       3       2       1       1       3       2       1       1       3
       2       1       1       3       2       1       1       3       2       1
       1       3       2       1       1       3       2       1       1       3
       2       1       1       3       2       1       1       3       2       1
       1       3       2       1       1       3       2       1       1       3
       2       1       1       3       2       1       1       3       2       1
       1       3       2       1       1       3       2       1       1       3
       2       1       1       3       2       1       1       3       2       1
       1       3       2       1       1       3       2       1       1       3
       2       1       1       3       2       1       1       3       2       1
       1       3       2       1       1       3       2       1       1       3
       2       1       1       3       2       1       1       3       2       1
       1       3       2       1       1       3       2       1       1       3
       2       1       1       3       2       1       1       3       2       1
       1       3       2       1       1       3       2       1       1       3
       2       1       1       3       2       1       1       3       2       1
       1       3       2       1       1       3       2       1       1       3
       2       1       1       3       2       1       1       3       2       1
       1       3       2       1       1       3       2       1       1       3
       2       1       1       3       2       1       1       3       2       1
       1       3       2       1       1       3       2       1       1       3
       2       1       1       3       2       1       1       3       2       1
       1       3       2       1       1       3       2       1       1       3
       2       1       1       3       2       1       1       3       2       1
       1       3       2       1       1       3       2       1       1       3
       2       1       1       3       2       1       1       3       2       1
       1       3       2       1       1       3       2       1       1       3
       2       1       1       3       2       1       1       3       2       1
       1       3       2       1       1       3       2       1       1       3
       2       1       1       3       2       1       1       3       2       1
       1       3       2       1       1       3       2       1       1       3
       2       1       1       3       2       1       1       3       2       1
       1       3       2       1       1       3       2       1       1       3
       2       1       1       3       2       1       1       3       2       1
       1       3       2       1       1       3       2       1       1       3
       2       1       1       3       2       1       1       3       2       1
       1       3       2       1       1       3       2       1       1       3
       2       1       1       3       2       1       1       3       2       1
       1       3       2       1       1       3       2       1       1       3
       2       1       1       3       2       1       1       3       2       1
       1       3       2       1       1       3       2       1       1       3
       2       1       1       3       2       1       1       3       2       1
       1       3       2       1       1       3       2       1       1       3
       2       1       1       3       2       1       1       3       2       1
       1       3       2       1       1       3       2       1       1       3
       2       1       1       3       2       1       1       3       2       1
       1       3       2       1       1       3       2       1       1       3
       2       1       1       3       2       1       1       3       2       1
       1       3       2       1       1       3       2       1       1       3
       2       1       1       3       2       1       1       3       2       1
       1       3       2       1       1       3       2       1       1       3
       2       1       1       3       2       1       1       3       2       1
       1       3       2       1       1       3       2       1       1       3
       2       1       1       3       2       1       1       3       2       1
       1       3       2       1       1       3       2       1       1       3
       2       1       1       3       2       1       1       3       2       1
       1       3       2       1       1       3       2       1       1       3
       2       1       1       3       2       1       1       3       2       1
       1       3       2       1       1       3       2       1       1       3
       2       1       1       3       2       1       1       3       2       1
       1       3       2       1       1       3       2       1       1       3
       2       1       1       3       2       1       1       3       2       1
       1       3       2       1       1       3       2       1       1       3
       2       1       1       3       2       1       1       3       2       1
       1       3       2       1       1       3       2       1       1       3
       2       1       1       3       2       1       1       3       2       1
       1       3       2       1       1       3       2       1       1       3
       2       1       1       3       2       1       1       3       2       1
       1       3       2       1       1       3       2       1       1       3
       2       1       1       3       2       1       1       3       2       1
       1       3       2       1       1       3       2       1       1       3
       2       1       1       3       2       1       1       3       2       1
       1       3       2       1       1       3       2       1       1       3
       2       1       1       3       2       1       1       3       2       1
       1       3       2       1       1       3       2       1       1       3
       2       1       1       3       2       1       1       3       2       1
       1       3       2       1       1       3       2       1       1       3
       2       1       1       3       2       1       1       3       2       1
       1       3       2       1       1       3       2       1       1       3
       2       1       1       3       2       1       1       3       2       1
       1       3       2       1       1       3       2       1       1       3
       2       1       1       3       2       1       1       3       2       1
       1       3       2       1       1       3       2       1       1       3
       2       1       1       3       2       1       1       3       2       1
       1       3       2       1       1       3       2       1       1       3
       2       1       1       3       2       1       1       3       2       1
       1       3       2       1       1       3       2       1       1       3
       2       1       1       3       2       1       1       3       2       1
       1       3       2       1       1       3       2       1       1       3
       2       1       1       3       2       1       1       3       2       1
       1       3       2       1       1       3       2       1       1       3
       2       1       1       3       2       1       1       3       2       1
       1       3       2       1       1       3       2       1       1       3
       2       1       1       3       2       1       1       3       2       1
       1       3       2       1       1       3       2       1       1       3
       2       1       1       3       2       1       1       3       2       1
       1       3       2       1       1       3       2       1       1       3
       2       1       1       3       2       1       1       3       2       1
       1       3       2       1       1       3       2       1       1       3
       2       1       1       3       2       1       1       3       2       1
       1       3       2       1       1       3       2       1       1       3
       2       1       1       3       2       1       1       3       2       1
       1       3       2       1       1       3       2       1       1       3
       2       1       1       3       2       1       1       3       2       1
       1       3       2       1       1       3       2       1       1       3
       2       1       1       3       2       1       1       3       2       1
       1       3       2       1       1       3       2       1       1       3
       2       1       1       3       2       1       1       3       2       1
       1       3       2       1       1       3       2       1       1       3
       2       1       1       3       2       1       1       3       2       1
       1       3       2       1       1       3       2       1       1       3
       2       1       1       3       2       1       1       3       2       1
       1       3       2       1       1       3       2       1       1       3
       2       1       1       3       2       1       1       3       2       1
       1       3       2       1       1       3       2       1       1       3
       2       1       1       3       2       1       1       3       2       1
       1       3       2       1       1       3       2       1       1       3
       2       1       1       3       2       1       1       3       2       1
       1       3       2       1       1       3       2       1       1       3
       2       1       1       3       2       1       1       3       2       1
       1       3       2       1       1       3       2       1       1       3
       2       1       1       3       2       1       1       3       2       1
       1       3       2       1       1       3       2       1       1       3
       2       1       1       3       2       1       1       3       2       1
       1       3       2       1       1       3       2       1       1       3
       2       1       1       3       2       1       1       3       2       1
       1       3       2       1       1       3       2       1       1       3
       2       1       1       3       2       1       1       3       2       1
       1       3       2       1       1       3       2       1       1       3
       2       1       1       3       2       1       1       3       2       1
       1       3       2       1       1       3       2       1       1       3
       2       1       1       3       2       1       1       3       2       1
       1       3       2       1       1       3       2       1       1       3
       2       1       1       3       2       1       1       3       2       1
       1       3       2       1       1       3       2       1       1       3
       2       1       1       3       2       1       1       3       2       1
       1       3       2       1       1       3       2       1       1       3
       2       1       1       3       2       1       1       3       2       1
       1       3       2       1       1       3       2       1       1       3
       2       1       1       3       2       1       1       3       2       1
       1       3       2       1       1       3       2       1       1       3
       2       1       1       3       2       1       1       3       2       1
       1       3       2       1       1       3       2       1       1       3
       2       1       1       3       2       1       1       3       2       1
       1       3       2       1       1       3       2       1       1       3
       2       1       1       3       2       1       1       3       2       1
       1       3       2       1       1       3       2       1       1       3
       2       1       1       3       2       1       1       3       2       1
       1       3       2       1       1       3       2       1       1       3
       2       1       1       3       2       1       1       3       2       1
       1       3       2       1       1       3       2       1       1       3
       2       1       1       3       2       1       1       3       2       1
       1       3       2       1       1       3       2       1       1       3
       2       1       1       3       2       1       1       3       2       1
       1       3       2       1       1       3       2       1       1       3
       2       1       1       3       2       1       1       3       2       1
       1       3       2       1       1       3       2       1       1       3
       2       1       1       3       2       1       1       3       2       1
       1       3       2       1       1       3       2       1       1       3
       2       1       1       3       2       1       1       3       2       1
       1       3       2       1       1       3       2       1       1       3
       2       1       1       3       2       1       1       3       2       1
       1       3       2       1       1       3       2       1       1       3
       2       1       1       3       2       1       1       3       2       1
       1       3       2       1       1       3       2       1       1       3
       2       1       1       3       2       1       1       3       2       1
       1       3       2       1       1       3       2       1       1       3
       2       1       1       3       2       1       1       3       2       1
       1       3       2       1       1       3       2       1       1       3
       2       1       1       3       2       1       1       3       2       1
       1       3       2       1       1       3       2       1       1       3
       2       1       1       3       2       1       1       3       2       1
       1       3       2       1       1       3       2       1       1       3
       2       1       1       3       2       1       1       3       2       1
       1       3       2       1       1       3       2       1       1       3
       2       1       1       3       2       1       1       3       2       1
       1       3       2       1       1       3       2       1       1       3
       2       1       1       3       2       1       1       3       2       1
       1       3       2       1       1       3       2       1       1       3
       2       1       1       3       2       1       1       3       2       1
       1       3       2       1       1       3       2       1       1       3
       2       1       1       3       2       1       1       3       2       1
       1       3       2       1       1       3       2       1       1       3
       2       1       1       3       2       1       1       3       2       1
       1       3       2       1       1       3       2       1       1       3
       2       1       1       3       2       1       1       3       2       1
       1       3       2       1       1       3       2       1       1       3
       2       1       1       3       2       1       1       3       2       1
       1       3       2       1       1       3       2       1       1       3
       2       1       1       3       2       1       1       3       2       1
       1       3       2       1       1       3       2       1       1       3
       2       1       1       3       2       1       1       3       2       1
       1       3       2       1       1       3       2       1       1       3
       2       1       1       3       2       1       1       3       2       1
       1       3       2       1       1       3       2       1       1       3
       2       1       1       3       2       1       1       3       2       1
       1       3       2       1       1       3       2       1       1       3
       2       1       1       3       2       1       1       3       2       1
       1       3       2       1       1       3       2       1       1       3
       2       1       1       3       2       1       1       3       2       1
       1       3       2       1       1       3       2       1       1       3
       2       1       1       3       2       1       1       3       2       1
       1       3       2       1       1       3       2       1       1       3
       2       1       1       3       2       1       1       3       2       1
       1       3       2       1       1       3       2       1       1       3
       2       1       1       3       2       1       1       3       2       1
       1       3       2       1       1       3       2       1       1       3
       2       1       1       3       2       1       1       3       2       1
       1       3       2       1       1       3       2       1       1       3
       2       1       1       3       2       1       1       3       2       1
       1       3       2       1       1       3       2       1       1       3
       2       1       1       3       2       1       1       3       2       1
       1       3       2       1       1       3       2       1       1       3
       2       1       1       3       2       1       1       3       2       1
       1       3       2       1       1       3       2       1       1       3
       2       1       1       3       2       1       1       3       2       1
       1       3       2       1       1       3       2       1       1       3
       2       1       1       3       2       1       1       3       2       1
       1       3       2       1       1       3       2       1       1       3
       2       1       1       3       2       1       1       3       2       1
       1       3       2       1       1       3       2       1       1       3
       2       1       1       3       2       1       1       3       2       1
       1       3       2       1       1       3       2       1       1       3
       2       1       1       3       2       1       1       3       2       1
       1       3       2       1       1       3       2       1       1       3
       2       1       1       3       2       1       1       3       2       1
       1       3       2       1       1       3       2       1       1       3
       2       1       1       3       2       1       1       3       2       1
       1       3       2       1       1       3       2       1       1       3
       2       1       1       3       2       1       1       3       2       1
       1       3       2       1       1       3       2       1       1       3
       2       1       1       3       2       1       1       3       2       1
       1       3       2       1       1       3       2       1       1       3
       2       1       1       3       2       1       1       3       2       1
       1       3       2       1       1       3       2       1       1       3
       2       1       1       3       2       1       1       3       2       1
       1       3       2       1       1       3       2       1       1       3
       2       1       1       3       2       1       1       3       2       1
       1       3       2       1       1       3       2       1       1       3
       2       1       1       3       2       1       1       3       2       1
       1       3       2       1       1       3       2       1       1       3
       2       1       1       3       2       1       1       3       2       1
       1       3       2       1       1       3       2       1       1       3
       2       1       1       3       2       1       1       3       2       1
       1       3       2       1       1       3       2       1       1       3
       2       1       1       3       2       1       1       3       2       1
       1       3       2       1       1       3       2       1       1       3
       2       1       1       3       2       1       1       3       2       1
       1       3       2       1       1       3       2       1       1       3
       2       1       1       3       2       1       1       3       2       1
       1       3       2       1       1       3       2       1       1       3
       2       1       1       3       2       1       1       3       2       1
       1       3       2       1       1       3       2       1       1       3
       2       1       1       3       2       1       1       3       2       1
       1       3       2       1       1       3       2       1       1       3
       2       1       1       3       2       1       1       3       2       1
       1       3       2       1       1       3       2       1       1       3
       2       1       1       3       2       1       1       3       2       1
       1       3       2       1       1       3       2       1       1       3
       2       1       1       3       2       1       1       3       2       1
       1       3       2       1       1       3       2       1       1       3
       2       1       1       3       2       1       1       3       2       1
       1       3       2       1       1       3       2       1       1       3
       2       1       1       3       2       1       1       3       2       1
       1       3       2       1       1       3       2       1       1       3
       2       1       1       3       2       1       1       3       2       1
       1       3       2       1       1       3       2       1       1       3
       2       1       1       3       2       1       1       3       2       1
       1       3       2       1       1       3       2       1       1       3
       2       1       1       3       2       1       1       3       2       1
       1       3       2       1       1       3       2       1       1       3
       2       1       1       3       2       1       1       3       2       1
       1       3       2       1       1       3       2       1       1       3
       2       1       1       3       2       1       1       3       2       1
       1       3       2       1       1       3       2       1       1       3
       2       1       1       3       2       1       1       3       2       1
       1       3       2       1       1       3       2       1       1       3
       2       1       1       3       2       1       1       3       2       1
       1       3       2       1       1       3       2       1       1       3
       2       1       1       3       2       1       1       3       2       1
       1       3       2       1       1       3       2       1       1       3
       2       1       1       3       2       1       1       3       2       1
       1       3       2       1       1       3       2       1       1       3
       2       1       1       3       2       1       1       3       2       1
       1       3       2       1       1       3       2       1       1       3
       2       1       1       3       2       1       1       3       2       1
       1       3       2       1       1       3       2       1       1       3
       2       1       1       3       2       1       1       3       2       1
       1       3       2       1       1       3       2       1       1       3
       2       1       1       3       2       1       1       3       2       1
       1       3       2       1       1       3       2       1       1       3
       2       1       1       3       2       1       1       3       2       1
       1       3       2       1       1       3       2       1       1       3
       2       1       1       3       2       1       1       3       2       1
       1       3       2       1       1       3       2       1       1       3
       2       1       1       3       2       1       1       3       2       1
       1       3       2       1       1       3       2       1       1       3
       2       1       1       3       2       1       1       3       2       1
       1       3       2       1       1       3       2       1       1       3
       2       1       1       3       2       1       1       3       2       1
       1       3       2       1       1       3       2       1       1       3
       2       1       1       3       2       1       1       3       2       1
       1       3       2       1       1       3       2       1       1       3
       2       1       1       3       2       1       1       3       2       1
       1       3       2       1       1       3       2       1       1       3
       2       1       1       3       2       1       1       3       2       1
       1       3       2       1       1       3       2       1       1       3
       2       1       1       3       2       1       1       3       2       1
       1       3       2       1       1       3       2       1       1       3
       2       1       1       3       2       1       1       3       2       1
       1       3       2       1       1       3       2       1       1       3
       2       1       1       3       2       1       1       3       2       1
       1       3       2       1       1       3       2       1       1       3
       2       1       1       3       2       1       1       3       2       1
       1       3       2       1       1       3       2       1       1       3
       2       1       1       3       2       1       1       3       2       1
       1       3       2       1       1       3       2       1       1       3
       2       1       1       3       2       1       1       3       2       1
       1       3       2       1       1       3       2       1       1       3
       2       1       1       3       2       1       1       3       2       1
       1       3       2       1       1       3       2       1       1       3
       2       1       1       3       2       1       1       3       2       1
       1       3       2       1       1       3       2       1       1       3
       2       1       1       3       2       1       1       3       2       1
       1       3       2       1       1       3       2       1       1       3
       2       1       1       3       2       1       1       3       2       1
       1       3       2       1       1       3       2       1       1       3
       2       1       1       3       2       1       1       3       2       1
       1       3       2       1       1       3       2       1       1       3
       2       1       1       3       2       1       1       3       2       1
       1       3       2       1       1       3       2       1       1       3
       2       1       1       3       2       1       1       3       2       1
       1       3       2       1       1       3       2       1       1       3
       2       1       1       3       2       1       1       3       2       1
       1       3       2       1       1       3       2       1       1       3
       2       1       1       3       2       1       1       3       2       1
       1       3       2       1       1       3       2       1       1       3
       2       1       1       3       2       1       1       3       2       1
       1       3       2       1       1       3       2       1       1       3
       2       1       1       3       2       1       1       3       2       1
       1       3       2       1       1       3       2       1       1       3
       2       1       1       3       2       1       1       3       2       1
       1       3       2       1       1       3       2       1       1       3
       2       1       1       3       2       1       1       3       2       1
       1       3       2       1       1       3       2       1       1       3
       2       1       1       3       2       1       1       3       2       1
       1       3       2       1       1       3       2       1       1       3
       2       1       1       3       2       1       1       3       2       1
       1       3       2       1       1       3       2       1       1       3
       2       1       1       3       2       1       1       3       2       1
       1       3       2       1       1       3       2       1       1       3
       2       1       1       3       2       1       1       3       2       1
       1       3       2       1       1       3       2       1       1       3
       2       1       1       3       2       1       1       3       2       1
       1       3       2       1       1       3       2       1       1       3
       2       1       1       3       2       1       1       3       2       1
       1       3       2       1       1       3       2       1       1       3
       2       1       1       3       2       1       1       3       2       1
       1       3       2       1       1       3       2       1       1       3
       2       1       1       3       2       1       1       3       2       1
       1       3       2       1       1       3       2       1       1       3
       2       1       1       3       2       1       1       3       2       1
       1       3       2       1       1       3       2       1       1       3
       2       1       1       3       2       1       1       3       2       1
       1       3       2       1       1       3       2       1       1       3
       2       1       1       3       2       1       1       3       2       1
       1       3       2       1       1       3       2       1       1       3
       2       1       1       3       2       1       1       3       2       1
       1       3       2       1       1       3       2       1       1       3
       2       1       1       3       2       1       1       3       2       1
       1       3       2       1       1       3       2       1       1       3
       2       1       1       3       2       1       1       3       2       1
       1       3       2       1       1       3       2       1       1       3
       2       1       1       3       2       1       1       3       2       1
       1       3       2       1       1       3       2       1       1       3
       2       1       1       3       2       1       1       3       2       1
       1       3       2       1       1       3       2       1       1       3
       2       1       1       3       2       1       1       3       2       1
       1       3       2       1       1       3       2       1       1       3
       2       1       1       3       2       1       1       3       2       1
       1       3       2       1       1       3       2       1       1       3
       2       1       1       3       2       1       1       3       2       1
       1       3       2       1       1       3       2       1       1       3
       2       1       1       3       2       1       1       3       2       1
       1       3       2       1       1       3       2       1       1       3
       2       1       1       3       2       1       1       3       2       1
       1       3       2       1       1       3       2       1       1       3
       2       1       1       3       2       1       1       3       2       1
       1       3       2       1       1       3       2       1       1       3
       2       1       1       3       2       1       1       3       2       1
       1       3       2       1       1       3       2       1       1       3
       2       1       1       3       2       1       1       3       2       1
       1       3       2       1       1       3       2       1       1       3
       2       1       1       3       2       1       1       3       2       1
       1       3       2       1       1       3       2       1       1       3
       2       1       1       3       2       1       1       3       2       1
       1       3       2       1       1       3       2       1       1       3
       2       1       1       3       2       1       1       3       2       1
       1       3       2       1       1       3       2       1       1       3
       2       1       1       3       2       1       1       3       2       1
       1       3       2       1       1       3       2       1       1       3
       2       1       1       3       2       1       1       3       2       1
       1       3       2       1       1       3       2       1       1       3
       2       1       1       3       2       1       1       3       2       1
       1       3       2       1       1       3       2       1       1       3
       2       1       1       3       2       1       1       3       2       1
       1       3       2       1       1       3       2       1       1       3
       2       1       1       3       2       1       1       3       2       1
       1       3       2       1       1       3       2       1       1       3
       2       1       1       3       2       1       1       3       2       1
       1       3       2       1       1       3       2       1       1       3
       2       1       1       3       2       1       1       3       2       1
       1       3       2       1       1       3       2       1       1       3
       2       1       1       3       2       1       1       3       2       1
       1       3       2       1       1       3       2       1       1       3
       2       1       1       3       2       1       1       3       2       1
       1       3       2       1       1       3       2       1       1       3
       2       1       1       3       2       1       1       3       2       1
       1       3       2       1       1       3       2       1       1       3
       2       1       1       3       2       1       1       3       2       1
       1       3       2       1       1       3       2       1       1       3
       2       1       1       3       2       1       1       3       2       1
       1       3       2       1       1       3       2       1       1       3
       2       1       1       3       2       1       1       3       2       1
       1       3       2       1       1       3       2       1       1       3
       2       1       1       3       2       1       1       3       2       1
       1       3       2       1       1       3       2       1       1       3
       2       1       1       3       2       1       1       3       2       1
       1       3       2       1       1       3       2       1       1       3
       2       1       1       3       2       1       1       3       2       1
       1       3       2       1       1       3       2       1       1       3
       2       1       1       3       2       1       1       3       2       1
       1       3       2       1       1       3       2       1       1       3
       2       1       1       3       2       1       1       3       2       1
       1       3       2       1       1       3       2       1       1       3
       2       1       1       3       2       1       1       3       2       1
       1       3       2       1       1       3       2       1       1       3
       2       1       1       3       2       1       1       3       2       1
       1       3       2       1       1       3       2       1       1       3
       2       1       1       3       2       1       1       3       2       1
       1       3       2       1       1       3       2       1       1       3
       2       1       1       3       2       1       1       3       2       1
       1       3       2       1       1       3       2       1       1       3
       2       1       1       3       2       1       1       3       2       1
       1       3       2       1       1       3       2       1       1       3
       2       1       1       3       2       1       1       3       2       1
       1       3       2       1       1       3       2       1       1       3
       2       1       1       3       2       1       1       3       2       1
       1       3       2       1       1       3       2       1       1       3
       2       1       1       3       2       1       1       3       2       1
       1       3       2       1       1       3       2       1       1       3
       2       1       1       3       2       1       1       3       2       1
       1       3       2       1       1       3       2       1       1       3
       2       1       1       3       2       1       1       3       2       1
       1       3       2       1       1       3       2       1       1       3
       2       1       1       3       2       1       1       3       2       1
       1       3       2       1       1       3       2       1       1       3
       2       1       1       3       2       1       1       3       2       1
       1       3       2       1       1       3       2       1       1       3
       2       1       1       3       2       1       1       3       2       1
       1       3       2       1       1       3       2       1       1       3
       2       1       1       3       2       1       1       3       2       1
       1       3       2       1       1       3       2       1       1       3
       2       1       1       3       2       1       1       3       2       1
       1       3       2       1       1       3       2       1       1       3
       2       1       1       3       2       1       1       3       2       1
       1       3       2       1       1       3       2       1       1       3
       2       1       1       3       2       1       1       3       2       1
       1       3       2       1       1       3       2       1       1       3
       2       1       1       3       2       1       1       3       2       1
       1       3       2       1       1       3       2       1       1       3
       2       1       1       3       2       1       1       3       2       1
       1       3       2       1       1       3       2       1       1       3
       2       1       1       3       2       1       1       3       2       1
       1       3       2       1       1       3       2       1       1       3
       2       1       1       3       2       1       1       3       2       1
       1       3       2       1       1       3       2       1       1       3
       2       1       1       3       2       1       1       3       2       1
       1       3       2       1       1       3       2       1       1       3
       2       1       1       3       2       1       1       3       2       1
       1       3       2       1       1       3       2       1       1       3
       2       1       1       3       2       1       1       3       2       1
       1       3       2       1       1       3       2       1       1       3
       2       1       1       3       2       1       1       3       2       1
       1       3       2       1       1       3       2       1       1       3
       2       1       1       3       2       1       1       3       2       1
       1       3       2       1       1       3       2       1       1       3
       2       1       1       3       2       1       1       3       2       1
       1       3       2       1       1       3       2       1       1       3
       2       1       1       3       2       1       1       3       2       1
       1       3       2       1       1       3       2       1       1       3
       2       1       1       3       2       1       1       3       2       1
       1       3       2       1       1       3       2       1       1       3
       2       1       1       3       2       1       1       3       2       1
       1       3       2       1       1       3       2       1       1       3
       2       1       1       3       2       1       1       3       2       1
       1       3       2       1       1       3       2       1       1       3
       2       1       1       3       2       1       1       3       2       1
       1       3       2       1       1       3       2       1       1       3
       2       1       1       3       2       1       1       3       2       1
       1       3       2       1       1       3       2       1       1       3
       2       1       1       3       2       1       1       3       2       1
       1       3       2       1       1       3       2       1       1       3
       2       1       1       3       2       1       1       3       2       1
       1       3       2       1       1       3       2       1       1       3
       2       1       1       3       2       1       1       3       2       1
       1       3       2       1       1       3       2       1       1       3
       2       1       1       3       2       1       1       3       2       1
       1       3       2       1       1       3       2       1       1       3
       2       1       1       3       2       1       1       3       2       1
       1       3       2       1       1       3       2       1       1       3
       2       1       1       3       2       1       1       3       2       1
       1       3       2       1       1       3       2       1       1       3
       2       1       1       3       2       1       1       3       2       1
       1       3       2       1       1       3       2       1       1       3
       2       1       1       3       2       1       1       3       2       1
       1       3       2       1       1       3       2       1       1       3
       2       1       1       3       2       1       1       3       2       1
       1       3       2       1       1       3       2       1       1       3
       2       1       1       3       2       1       1       3       2       1
       1       3       2       1       1       3       2       1       1       3
       2       1       1       3       2       1       1       3       2       1
       1       3       2       1       1       3       2       1       1       3
       2       1       1       3       2       1       1       3       2       1
       1       3       2       1       1       3       2       1       1       3
       2       1       1       3       2       1       1       3       2       1
       1       3       2       1       1       3       2       1       1       3
       2       1       1       3       2       1       1       3       2       1
       1       3       2       1       1       3       2       1       1       3
       2       1       1       3       2       1       1       3       2       1
       1       3       2       1       1       3       2       1       1       3
       2       1       1       3       2       1       1       3       2       1
       1       3       2       1       1       3       2       1       1       3
       2       1       1       3       2       1       1       3       2       1
       1       3       2       1       1       3       2       1       1       3
       2       1       1       3       2       1       1       3       2       1
       1       3       2       1       1       3       2       1       1       3
       2       1       1       3       2       1       1       3       2       1
       1       3       2       1       1       3       2       1       1       3
       2       1       1       3       2       1       1       3       2       1
       1       3       2       1       1       3       2       1       1       3
       2       1       1       3       2       1       1       3       2       1
       1       3       2       1       1       3       2       1       1       3
       2       1       1       3       2       1       1       3       2       1
       1       3       2       1       1       3       2       1       1       3
       2       1       1       3       2       1       1       3       2       1
       1       3       2       1       1       3       2       1       1       3
       2       1       1       3       2       1       1       3       2       1
       1       3       2       1       1       3       2       1       1       3
       2       1       1       3       2       1       1       3       2       1
       1       3       2       1       1       3       2       1       1       3
       2       1       1       3       2       1       1       3       2       1
       1       3       2       1       1       3       2       1       1       3
       2       1       1       3       2       1       1       3       2       1
       1       3       2       1       1       3       2       1       1       3
       2       1       1       3       2       1       1       3       2       1
       1       3       2       1       1       3       2       1       1       3
       2       1       1       3       2       1       1       3       2       1
       1       3       2       1       1       3       2       1       1       3
       2       1       1       3       2       1       1       3       2       1
       1       3       2       1       1       3       2       1       1       3
       2       1       1       3       2       1       1       3       2       1
       1       3       2       1       1       3       2       1       1       3
       2       1       1       3       2       1       1       3       2       1
       1       3       2       1       1       3       2       1       1       3
       2       1       1       3       2       1       1       3       2       1
       1       3       2       1       1       3       2       1       1       3
       2       1       1       3       2       1       1       3       2       1
       1       3       2       1       1       3       2       1       1       3
       2       1       1       3       2       1       1       3       2       1
       1       3       2       1       1       3       2       1       1       3
       2       1       1       3       2       1       1       3       2       1
       1       3       2       1       1       3       2       1       1       3
       2       1       1       3       2       1       1       3       2       1
       1       3       2       1       1       3       2       1       1       3
       2       1       1       3       2       1       1       3       2       1
       1       3       2       1       1       3       2       1       1       3
       2       1       1       3       2       1       1       3       2       1
       1       3       2       1       1       3       2       1       1       3
       2       1       1       3       2       1       1       3       2       1
       1       3       2       1       1       3       2       1       1       3
       2       1       1       3       2       1       1       3       2       1
       1       3       2       1       1       3       2       1       1       3
       2       1       1       3       2       1       1       3       2       1
       1       3       2       1       1       3       2       1       1       3
       2       1       1       3       2       1       1       3       2       1
       1       3       2       1       1       3       2       1       1       3
       2       1       1       3       2       1       1       3       2       1
       1       3       2       1       1       3       2       1       1       3
       2       1       1       3       2       1       1       3       2       1
       1       3       2       1       1       3       2       1       1       3
       2       1       1       3       2       1       1       3       2       1
       1       3       2       1       1       3       2       1       1       3
       2       1       1       3       2       1       1       3       2       1
       1       3       2       1       1       3       2       1       1       3
       2       1       1       3       2       1       1       3       2       1
       1       3       2       1       1       3       2       1       1       3
       2       1       1       3       2       1       1       3       2       1
       1       3       2       1       1       3       2       1       1       3
       2       1       1       3       2       1       1       3       2       1
       1       3       2       1       1       3       2       1       1       3
       2       1       1       3       2       1       1       3       2       1
       1       3       2       1       1       3       2       1       1       3
       2       1       1       3       2       1       1       3       2       1
       1       3       2       1       1       3       2       1       1       3
       2       1       1       3       2       1       1       3       2       1
       1       3       2       1       1       3       2       1       1       3
       2       1       1       3       2       1       1       3       2       1
       1       3       2       1       1       3       2       1       1       3
       2       1       1       3       2       1       1       3       2       1
       1       3       2       1       1       3       2       1       1       3
       2       1       1       3       2       1       1       3       2       1
       1       3       2       1       1       3       2       1       1       3
       2       1       1       3       2       1       1       3       2       1
       1       3       2       1       1       3       2       1       1       3
       2       1       1       3       2       1       1       3       2       1
       1       3       2       1       1       3       2       1       1       3
       2       1       1       3       2       1       1       3       2       1
       1       3       2       1       1       3       2       1       1       3
       2       1       1       3       2       1       1       3       2       1
       1       3       2       1       1       3       2       1       1       3
       2       1       1       3       2       1       1       3       2       1
       1       3       2       1       1       3       2       1       1       3
       2       1       1       3       2       1       1       3       2       1
       1       3       2       1       1       3       2       1       1       3
       2       1       1       3       2       1       1       3       2       1
       1       3       2       1       1       3       2       1       1       3
       2       1       1       3       2       1       1       3       2       1
       1       3       2       1       1       3       2       1       1       3
       2       1       1       3       2       1       1       3       2       1
       1       3       2       1       1       3       2       1       1       3
       2       1       1       3       2       1       1       3       2       1
       1       3       2       1       1       3       2       1       1       3
       2       1       1       3       2       1       1       3       2       1
       1       3       2       1       1       3       2       1       1       3
       2       1       1       3       2       1       1       3       2       1
       1       3       2       1       1       3       2       1       1       3
       2       1       1       3       2       1       1       3       2       1
       1       3       2       1       1       3       2       1       1       3
       2       1       1       3       2       1       1       3       2       1
       1       3       2       1       1       3       2       1       1       3
       2       1       1       3       2       1       1       3       2       1
       1       3       2       1       1       3       2       1       1       3
       2       1       1       3       2       1       1       3       2       1
       1       3       2       1       1       3       2       1       1       3
       2       1       1       3       2       1       1       3       2       1
       1       3       2       1       1       3       2       1       1       3
       2       1       1       3       2       1       1       3       2       1
       1       3       2       1       1       3       2       1       1       3
       2       1       1       3       2       1       1       3       2       1
       1       3       2       1       1       3       2       1       1       3
       2       1       1       3       2       1       1       3       2       1
       1       3       2       1       1       3       2       1       1       3
       2       1       1       3       2       1       1       3       2       1
       1       3       2       1       1       3       2       1       1       3
       2       1       1       3       2       1       1       3       2       1
       1       3       2       1       1       3       2       1       1       3
       2       1       1       3       2       1       1       3       2       1
       1       3       2       1       1       3       2       1       1       3
       2       1       1       3       2       1       1       3       2       1
       1       3       2       1       1       3       2       1       1       3
       2       1       1       3       2       1       1       3       2       1
       1       3       2       1       1       3       2       1       1       3
       2       1       1       3       2       1       1       3       2       1
       1       3       2       1       1       3       2       1       1       3
       2       1       1       3       2       1       1       3       2       1
       1       3       2       1       1       3       2       1       1       3
       2       1       1       3       2       1       1       3       2       1
       1       3       2       1       1       3       2       1       1       3
       2       1       1       3       2       1       1       3       2       1
       1       3       2       1       1       3       2       1       1       3
       2       1       1       3       2       1       1       3       2       1
       1       3       2       1       1       3       2       1       1
%FLAG NONBONDED_PARM_INDEX                                                      
%FORMAT(10I8)                                                                   
       1       2       4       7      11      16      22      29      37      46
      56      67      79      92     106     121     137     154     172     191
     211     232       2       3       5       8      12      17      23      30
      38      47      57      68      80      93     107     122     138     155
     173     192     212     233       4       5       6       9      13      18
      24      31      39      48      58      69      81      94     108     123
     139     156     174     193     213     234       7       8       9      10
      14      19      25      32      40      49      59      70      82      95
     109     124     140     157     175     194     214     235      11      12
      13      14      15      20      26      33      41      50      60      71
      83      96     110     125     141     158     176     195     215     236
      16      17      18      19      20      21      27      34      42      51
      61      72      84      97     111     126     142     159     177     196
     216     237      22      23      24      25      26      27      28      35
      43      52      62      73      85      98     112     127     143     160
     178     197     217     238      29      30      31      32      33      34
      35      36      44      53      63      74      86      99     113     128
     144     161     179     198     218     239      37      38      39      40
      41      42      43      44      45      54      64      75      87     100
     114     129     145     162     180     199     219     240      46      47
      48      49      50      51      52      53      54      55      65      76
      88     101     115     130     146     163     181     200     220     241
      56      57      58      59      60      61      62      63      64      65
      66      77      89     102     116     131     147     164     182     201
     221     242      67      68      69      70      71      72      73      74
      75      76      77      78      90     103     117     132     148     165
     183     202     222     243      79      80      81      82      83      84
      85      86      87      88      89      90      91     104     118     133
     149     166     184     203     223     244      92      93      94      95
      96      97      98      99     100     101     102     103     104     105
     119     134     150     167     185     204     224     245     106     107
     108     109     110     111     112     113     114     115     116     117
     118     119     120     135     151     168     186     205     225     246
     121     122     123     124     125     126     127     128     129     130
     131     132     133     134     135     136     152     169     187     206
     226     247     137     138     139     140     141     142     143     144
     145     146     147     148     149     150     151     152     153     170
     188     207     227     248     154     155     156     157     158     159
     160     161     162     163     164     165     166     167     168     169
     170     171     189     208     228     249     172     173     174     175
     176     177     178     179     180     181     182     183     184     185
     186     187     188     189     190     209     229     250     191     192
     193     194     195     196     197     198     199     200     201     202
     203     204     205     206     207     208     209     210      -1     251
     211     212     213     214     215     216     217     218     219     220
     221     222     223     224     225     226     227     228     229      -1
     231     252     232     233     234     235     236     237     238     239
     240     241     242     243     244     245     246     247     248     249
     250     251     252     253
%FLAG RESIDUE_LABEL                                                             
%FORMAT(20a4)                                                                   
ACE TRP VAL THR HID ARG R51 ALA GLY LEU R52 SER ARG SER GLY GLY VAL VAL LYS ASN 
ASN PHE VAL PRO THR ASP VAL GLY PRO PHE ALA PHE NHE Na+ Na+ Na+ Na+ Na+ Na+ Na+ 
Na+ Na+ Na+ Na+ Na+ Na+ Na+ Na+ Na+ Na+ Na+ Na+ Na+ Na+ Cl- Cl- Cl- Cl- Cl- Cl- 
Cl- Cl- Cl- Cl- Cl- Cl- Cl- Cl- Cl- Cl- Cl- Cl- Cl- Cl- Cl- Cl- Cl- WAT WAT WAT 
WAT WAT WAT WAT WAT WAT WAT WAT WAT WAT WAT WAT WAT WAT WAT WAT WAT WAT WAT WAT 
WAT WAT WAT WAT WAT WAT WAT WAT WAT WAT WAT WAT WAT WAT WAT WAT WAT WAT WAT WAT 
WAT WAT WAT WAT WAT WAT WAT WAT WAT WAT WAT WAT WAT WAT WAT WAT WAT WAT WAT WAT 
WAT WAT WAT WAT WAT WAT WAT WAT WAT WAT WAT WAT WAT WAT WAT WAT WAT WAT WAT WAT 
WAT WAT WAT WAT WAT WAT WAT WAT WAT WAT WAT WAT WAT WAT WAT WAT WAT WAT WAT WAT 
WAT WAT WAT WAT WAT WAT WAT WAT WAT WAT WAT WAT WAT WAT WAT WAT WAT WAT WAT WAT 
WAT WAT WAT WAT WAT WAT WAT WAT WAT WAT WAT WAT WAT WAT WAT WAT WAT WAT WAT WAT 
WAT WAT WAT WAT WAT WAT WAT WAT WAT WAT WAT WAT WAT WAT WAT WAT WAT WAT WAT WAT 
WAT WAT WAT WAT WAT WAT WAT WAT WAT WAT WAT WAT WAT WAT WAT WAT WAT WAT WAT WAT 
WAT WAT WAT WAT WAT WAT WAT WAT WAT WAT WAT WAT WAT WAT WAT WAT WAT WAT WAT WAT 
WAT WAT WAT WAT WAT WAT WAT WAT WAT WAT WAT WAT WAT WAT WAT WAT WAT WAT WAT WAT 
WAT WAT WAT WAT WAT WAT WAT WAT WAT WAT WAT WAT WAT WAT WAT WAT WAT WAT WAT WAT 
WAT WAT WAT WAT WAT WAT WAT WAT WAT WAT WAT WAT WAT WAT WAT WAT WAT WAT WAT WAT 
WAT WAT WAT WAT WAT WAT WAT WAT WAT WAT WAT WAT WAT WAT WAT WAT WAT WAT WAT WAT 
WAT WAT WAT WAT WAT WAT WAT WAT WAT WAT WAT WAT WAT WAT WAT WAT WAT WAT WAT WAT 
WAT WAT WAT WAT WAT WAT WAT WAT WAT WAT WAT WAT WAT WAT WAT WAT WAT WAT WAT WAT 
WAT WAT WAT WAT WAT WAT WAT WAT WAT WAT WAT WAT WAT WAT WAT WAT WAT WAT WAT WAT 
WAT WAT WAT WAT WAT WAT WAT WAT WAT WAT WAT WAT WAT WAT WAT WAT WAT WAT WAT WAT 
WAT WAT WAT WAT WAT WAT WAT WAT WAT WAT WAT WAT WAT WAT WAT WAT WAT WAT WAT WAT 
WAT WAT WAT WAT WAT WAT WAT WAT WAT WAT WAT WAT WAT WAT WAT WAT WAT WAT WAT WAT 
WAT WAT WAT WAT WAT WAT WAT WAT WAT WAT WAT WAT WAT WAT WAT WAT WAT WAT WAT WAT 
WAT WAT WAT WAT WAT WAT WAT WAT WAT WAT WAT WAT WAT WAT WAT WAT WAT WAT WAT WAT 
WAT WAT WAT WAT WAT WAT WAT WAT WAT WAT WAT WAT WAT WAT WAT WAT WAT WAT WAT WAT 
WAT WAT WAT WAT WAT WAT WAT WAT WAT WAT WAT WAT WAT WAT WAT WAT WAT WAT WAT WAT 
WAT WAT WAT WAT WAT WAT WAT WAT WAT WAT WAT WAT WAT WAT WAT WAT WAT WAT WAT WAT 
WAT WAT WAT WAT WAT WAT WAT WAT WAT WAT WAT WAT WAT WAT WAT WAT WAT WAT WAT WAT 
WAT WAT WAT WAT WAT WAT WAT WAT WAT WAT WAT WAT WAT WAT WAT WAT WAT WAT WAT WAT 
WAT WAT WAT WAT WAT WAT WAT WAT WAT WAT WAT WAT WAT WAT WAT WAT WAT WAT WAT WAT 
WAT WAT WAT WAT WAT WAT WAT WAT WAT WAT WAT WAT WAT WAT WAT WAT WAT WAT WAT WAT 
WAT WAT WAT WAT WAT WAT WAT WAT WAT WAT WAT WAT WAT WAT WAT WAT WAT WAT WAT WAT 
WAT WAT WAT WAT WAT WAT WAT WAT WAT WAT WAT WAT WAT WAT WAT WAT WAT WAT WAT WAT 
WAT WAT WAT WAT WAT WAT WAT WAT WAT WAT WAT WAT WAT WAT WAT WAT WAT WAT WAT WAT 
WAT WAT WAT WAT WAT WAT WAT WAT WAT WAT WAT WAT WAT WAT WAT WAT WAT WAT WAT WAT 
WAT WAT WAT WAT WAT WAT WAT WAT WAT WAT WAT WAT WAT WAT WAT WAT WAT WAT WAT WAT 
WAT WAT WAT WAT WAT WAT WAT WAT WAT WAT WAT WAT WAT WAT WAT WAT WAT WAT WAT WAT 
WAT WAT WAT WAT WAT WAT WAT WAT WAT WAT WAT WAT WAT WAT WAT WAT WAT WAT WAT WAT 
WAT WAT WAT WAT WAT WAT WAT WAT WAT WAT WAT WAT WAT WAT WAT WAT WAT WAT WAT WAT 
WAT WAT WAT WAT WAT WAT WAT WAT WAT WAT WAT WAT WAT WAT WAT WAT WAT WAT WAT WAT 
WAT WAT WAT WAT WAT WAT WAT WAT WAT WAT WAT WAT WAT WAT WAT WAT WAT WAT WAT WAT 
WAT WAT WAT WAT WAT WAT WAT WAT WAT WAT WAT WAT WAT WAT WAT WAT WAT WAT WAT WAT 
WAT WAT WAT WAT WAT WAT WAT WAT WAT WAT WAT WAT WAT WAT WAT WAT WAT WAT WAT WAT 
WAT WAT WAT WAT WAT WAT WAT WAT WAT WAT WAT WAT WAT WAT WAT WAT WAT WAT WAT WAT 
WAT WAT WAT WAT WAT WAT WAT WAT WAT WAT WAT WAT WAT WAT WAT WAT WAT WAT WAT WAT 
WAT WAT WAT WAT WAT WAT WAT WAT WAT WAT WAT WAT WAT WAT WAT WAT WAT WAT WAT WAT 
WAT WAT WAT WAT WAT WAT WAT WAT WAT WAT WAT WAT WAT WAT WAT WAT WAT WAT WAT WAT 
WAT WAT WAT WAT WAT WAT WAT WAT WAT WAT WAT WAT WAT WAT WAT WAT WAT WAT WAT WAT 
WAT WAT WAT WAT WAT WAT WAT WAT WAT WAT WAT WAT WAT WAT WAT WAT WAT WAT WAT WAT 
WAT WAT WAT WAT WAT WAT WAT WAT WAT WAT WAT WAT WAT WAT WAT WAT WAT WAT WAT WAT 
WAT WAT WAT WAT WAT WAT WAT WAT WAT WAT WAT WAT WAT WAT WAT WAT WAT WAT WAT WAT 
WAT WAT WAT WAT WAT WAT WAT WAT WAT WAT WAT WAT WAT WAT WAT WAT WAT WAT WAT WAT 
WAT WAT WAT WAT WAT WAT WAT WAT WAT WAT WAT WAT WAT WAT WAT WAT WAT WAT WAT WAT 
WAT WAT WAT WAT WAT WAT WAT WAT WAT WAT WAT WAT WAT WAT WAT WAT WAT WAT WAT WAT 
WAT WAT WAT WAT WAT WAT WAT WAT WAT WAT WAT WAT WAT WAT WAT WAT WAT WAT WAT WAT 
WAT WAT WAT WAT WAT WAT WAT WAT WAT WAT WAT WAT WAT WAT WAT WAT WAT WAT WAT WAT 
WAT WAT WAT WAT WAT WAT WAT WAT WAT WAT WAT WAT WAT WAT WAT WAT WAT WAT WAT WAT 
WAT WAT WAT WAT WAT WAT WAT WAT WAT WAT WAT WAT WAT WAT WAT WAT WAT WAT WAT WAT 
WAT WAT WAT WAT WAT WAT WAT WAT WAT WAT WAT WAT WAT WAT WAT WAT WAT WAT WAT WAT 
WAT WAT WAT WAT WAT WAT WAT WAT WAT WAT WAT WAT WAT WAT WAT WAT WAT WAT WAT WAT 
WAT WAT WAT WAT WAT WAT WAT WAT WAT WAT WAT WAT WAT WAT WAT WAT WAT WAT WAT WAT 
WAT WAT WAT WAT WAT WAT WAT WAT WAT WAT WAT WAT WAT WAT WAT WAT WAT WAT WAT WAT 
WAT WAT WAT WAT WAT WAT WAT WAT WAT WAT WAT WAT WAT WAT WAT WAT WAT WAT WAT WAT 
WAT WAT WAT WAT WAT WAT WAT WAT WAT WAT WAT WAT WAT WAT WAT WAT WAT WAT WAT WAT 
WAT WAT WAT WAT WAT WAT WAT WAT WAT WAT WAT WAT WAT WAT WAT WAT WAT WAT WAT WAT 
WAT WAT WAT WAT WAT WAT WAT WAT WAT WAT WAT WAT WAT WAT WAT WAT WAT WAT WAT WAT 
WAT WAT WAT WAT WAT WAT WAT WAT WAT WAT WAT WAT WAT WAT WAT WAT WAT WAT WAT WAT 
WAT WAT WAT WAT WAT WAT WAT WAT WAT WAT WAT WAT WAT WAT WAT WAT WAT WAT WAT WAT 
WAT WAT WAT WAT WAT WAT WAT WAT WAT WAT WAT WAT WAT WAT WAT WAT WAT WAT WAT WAT 
WAT WAT WAT WAT WAT WAT WAT WAT WAT WAT WAT WAT WAT WAT WAT WAT WAT WAT WAT WAT 
WAT WAT WAT WAT WAT WAT WAT WAT WAT WAT WAT WAT WAT WAT WAT WAT WAT WAT WAT WAT 
WAT WAT WAT WAT WAT WAT WAT WAT WAT WAT WAT WAT WAT WAT WAT WAT WAT WAT WAT WAT 
WAT WAT WAT WAT WAT WAT WAT WAT WAT WAT WAT WAT WAT WAT WAT WAT WAT WAT WAT WAT 
WAT WAT WAT WAT WAT WAT WAT WAT WAT WAT WAT WAT WAT WAT WAT WAT WAT WAT WAT WAT 
WAT WAT WAT WAT WAT WAT WAT WAT WAT WAT WAT WAT WAT WAT WAT WAT WAT WAT WAT WAT 
WAT WAT WAT WAT WAT WAT WAT WAT WAT WAT WAT WAT WAT WAT WAT WAT WAT WAT WAT WAT 
WAT WAT WAT WAT WAT WAT WAT WAT WAT WAT WAT WAT WAT WAT WAT WAT WAT WAT WAT WAT 
WAT WAT WAT WAT WAT WAT WAT WAT WAT WAT WAT WAT WAT WAT WAT WAT WAT WAT WAT WAT 
WAT WAT WAT WAT WAT WAT WAT WAT WAT WAT WAT WAT WAT WAT WAT WAT WAT WAT WAT WAT 
WAT WAT WAT WAT WAT WAT WAT WAT WAT WAT WAT WAT WAT WAT WAT WAT WAT WAT WAT WAT 
WAT WAT WAT WAT WAT WAT WAT WAT WAT WAT WAT WAT WAT WAT WAT WAT WAT WAT WAT WAT 
WAT WAT WAT WAT WAT WAT WAT WAT WAT WAT WAT WAT WAT WAT WAT WAT WAT WAT WAT WAT 
WAT WAT WAT WAT WAT WAT WAT WAT WAT WAT WAT WAT WAT WAT WAT WAT WAT WAT WAT WAT 
WAT WAT WAT WAT WAT WAT WAT WAT WAT WAT WAT WAT WAT WAT WAT WAT WAT WAT WAT WAT 
WAT WAT WAT WAT WAT WAT WAT WAT WAT WAT WAT WAT WAT WAT WAT WAT WAT WAT WAT WAT 
WAT WAT WAT WAT WAT WAT WAT WAT WAT WAT WAT WAT WAT WAT WAT WAT WAT WAT WAT WAT 
WAT WAT WAT WAT WAT WAT WAT WAT WAT WAT WAT WAT WAT WAT WAT WAT WAT WAT WAT WAT 
WAT WAT WAT WAT WAT WAT WAT WAT WAT WAT WAT WAT WAT WAT WAT WAT WAT WAT WAT WAT 
WAT WAT WAT WAT WAT WAT WAT WAT WAT WAT WAT WAT WAT WAT WAT WAT WAT WAT WAT WAT 
WAT WAT WAT WAT WAT WAT WAT WAT WAT WAT WAT WAT WAT WAT WAT WAT WAT WAT WAT WAT 
WAT WAT WAT WAT WAT WAT WAT WAT WAT WAT WAT WAT WAT WAT WAT WAT WAT WAT WAT WAT 
WAT WAT WAT WAT WAT WAT WAT WAT WAT WAT WAT WAT WAT WAT WAT WAT WAT WAT WAT WAT 
WAT WAT WAT WAT WAT WAT WAT WAT WAT WAT WAT WAT WAT WAT WAT WAT WAT WAT WAT WAT 
WAT WAT WAT WAT WAT WAT WAT WAT WAT WAT WAT WAT WAT WAT WAT WAT WAT WAT WAT WAT 
WAT WAT WAT WAT WAT WAT WAT WAT WAT WAT WAT WAT WAT WAT WAT WAT WAT WAT WAT WAT 
WAT WAT WAT WAT WAT WAT WAT WAT WAT WAT WAT WAT WAT WAT WAT WAT WAT WAT WAT WAT 
WAT WAT WAT WAT WAT WAT WAT WAT WAT WAT WAT WAT WAT WAT WAT WAT WAT WAT WAT WAT 
WAT WAT WAT WAT WAT WAT WAT WAT WAT WAT WAT WAT WAT WAT WAT WAT WAT WAT WAT WAT 
WAT WAT WAT WAT WAT WAT WAT WAT WAT WAT WAT WAT WAT WAT WAT WAT WAT WAT WAT WAT 
WAT WAT WAT WAT WAT WAT WAT WAT WAT WAT WAT WAT WAT WAT WAT WAT WAT WAT WAT WAT 
WAT WAT WAT WAT WAT WAT WAT WAT WAT WAT WAT WAT WAT WAT WAT WAT WAT WAT WAT WAT 
WAT WAT WAT WAT WAT WAT WAT WAT WAT WAT WAT WAT WAT WAT WAT WAT WAT WAT WAT WAT 
WAT WAT WAT WAT WAT WAT WAT WAT WAT WAT WAT WAT WAT WAT WAT WAT WAT WAT WAT WAT 
WAT WAT WAT WAT WAT WAT WAT WAT WAT WAT WAT WAT WAT WAT WAT WAT WAT WAT WAT WAT 
WAT WAT WAT WAT WAT WAT WAT WAT WAT WAT WAT WAT WAT WAT WAT WAT WAT WAT WAT WAT 
WAT WAT WAT WAT WAT WAT WAT WAT WAT WAT WAT WAT WAT WAT WAT WAT WAT WAT WAT WAT 
WAT WAT WAT WAT WAT WAT WAT WAT WAT WAT WAT WAT WAT WAT WAT WAT WAT WAT WAT WAT 
WAT WAT WAT WAT WAT WAT WAT WAT WAT WAT WAT WAT WAT WAT WAT WAT WAT WAT WAT WAT 
WAT WAT WAT WAT WAT WAT WAT WAT WAT WAT WAT WAT WAT WAT WAT WAT WAT WAT WAT WAT 
WAT WAT WAT WAT WAT WAT WAT WAT WAT WAT WAT WAT WAT WAT WAT WAT WAT WAT WAT WAT 
WAT WAT WAT WAT WAT WAT WAT WAT WAT WAT WAT WAT WAT WAT WAT WAT WAT WAT WAT WAT 
WAT WAT WAT WAT WAT WAT WAT WAT WAT WAT WAT WAT WAT WAT WAT WAT WAT WAT WAT WAT 
WAT WAT WAT WAT WAT WAT WAT WAT WAT WAT WAT WAT WAT WAT WAT WAT WAT WAT WAT WAT 
WAT WAT WAT WAT WAT WAT WAT WAT WAT WAT WAT WAT WAT WAT WAT WAT WAT WAT WAT WAT 
WAT WAT WAT WAT WAT WAT WAT WAT WAT WAT WAT WAT WAT WAT WAT WAT WAT WAT WAT WAT 
WAT WAT WAT WAT WAT WAT WAT WAT WAT WAT WAT WAT WAT WAT WAT WAT WAT WAT WAT WAT 
WAT WAT WAT WAT WAT WAT WAT WAT WAT WAT WAT WAT WAT WAT WAT WAT WAT WAT WAT WAT 
WAT WAT WAT WAT WAT WAT WAT WAT WAT WAT WAT WAT WAT WAT WAT WAT WAT WAT WAT WAT 
WAT WAT WAT WAT WAT WAT WAT WAT WAT WAT WAT WAT WAT WAT WAT WAT WAT WAT WAT WAT 
WAT WAT WAT WAT WAT WAT WAT WAT WAT WAT WAT WAT WAT WAT WAT WAT WAT WAT WAT WAT 
WAT WAT WAT WAT WAT WAT WAT WAT WAT WAT WAT WAT WAT WAT WAT WAT WAT WAT WAT WAT 
WAT WAT WAT WAT WAT WAT WAT WAT WAT WAT WAT WAT WAT WAT WAT WAT WAT WAT WAT WAT 
WAT WAT WAT WAT WAT WAT WAT WAT WAT WAT WAT WAT WAT WAT WAT WAT WAT WAT WAT WAT 
WAT WAT WAT WAT WAT WAT WAT WAT WAT WAT WAT WAT WAT WAT WAT WAT WAT WAT WAT WAT 
WAT WAT WAT WAT WAT WAT WAT WAT WAT WAT WAT WAT WAT WAT WAT WAT WAT WAT WAT WAT 
WAT WAT WAT WAT WAT WAT WAT WAT WAT WAT WAT WAT WAT WAT WAT WAT WAT WAT WAT WAT 
WAT WAT WAT WAT WAT WAT WAT WAT WAT WAT WAT WAT WAT WAT WAT WAT WAT WAT WAT WAT 
WAT WAT WAT WAT WAT WAT WAT WAT WAT WAT WAT WAT WAT WAT WAT WAT WAT WAT WAT WAT 
WAT WAT WAT WAT WAT WAT WAT WAT WAT WAT WAT WAT WAT WAT WAT WAT WAT WAT WAT WAT 
WAT WAT WAT WAT WAT WAT WAT WAT WAT WAT WAT WAT WAT WAT WAT WAT WAT WAT WAT WAT 
WAT WAT WAT WAT WAT WAT WAT WAT WAT WAT WAT WAT WAT WAT WAT WAT WAT WAT WAT WAT 
WAT WAT WAT WAT WAT WAT WAT WAT WAT WAT WAT WAT WAT WAT WAT WAT WAT WAT WAT WAT 
WAT WAT WAT WAT WAT WAT WAT WAT WAT WAT WAT WAT WAT WAT WAT WAT WAT WAT WAT WAT 
WAT WAT WAT WAT WAT WAT WAT WAT WAT WAT WAT WAT WAT WAT WAT WAT WAT WAT WAT WAT 
WAT WAT WAT WAT WAT WAT WAT WAT WAT WAT WAT WAT WAT WAT WAT WAT WAT WAT WAT WAT 
WAT WAT WAT WAT WAT WAT WAT WAT WAT WAT WAT WAT WAT WAT WAT WAT WAT WAT WAT WAT 
WAT WAT WAT WAT WAT WAT WAT WAT WAT WAT WAT WAT WAT WAT WAT WAT WAT WAT WAT WAT 
WAT WAT WAT WAT WAT WAT WAT WAT WAT WAT WAT WAT WAT WAT WAT WAT WAT WAT WAT WAT 
WAT WAT WAT WAT WAT WAT WAT WAT WAT WAT WAT WAT WAT WAT WAT WAT WAT WAT WAT WAT 
WAT WAT WAT WAT WAT WAT WAT WAT WAT WAT WAT WAT WAT WAT WAT WAT WAT WAT WAT WAT 
WAT WAT WAT WAT WAT WAT WAT WAT WAT WAT WAT WAT WAT WAT WAT WAT WAT WAT WAT WAT 
WAT WAT WAT WAT WAT WAT WAT WAT WAT WAT WAT WAT WAT WAT WAT WAT WAT WAT WAT WAT 
WAT WAT WAT WAT WAT WAT WAT WAT WAT WAT WAT WAT WAT WAT WAT WAT WAT WAT WAT WAT 
WAT WAT WAT WAT WAT WAT WAT WAT WAT WAT WAT WAT WAT WAT WAT WAT WAT WAT WAT WAT 
WAT WAT WAT WAT WAT WAT WAT WAT WAT WAT WAT WAT WAT WAT WAT WAT WAT WAT WAT WAT 
WAT WAT WAT WAT WAT WAT WAT WAT WAT WAT WAT WAT WAT WAT WAT WAT WAT WAT WAT WAT 
WAT WAT WAT WAT WAT WAT WAT WAT WAT WAT WAT WAT WAT WAT WAT WAT WAT WAT WAT WAT 
WAT WAT WAT WAT WAT WAT WAT WAT WAT WAT WAT WAT WAT WAT WAT WAT WAT WAT WAT WAT 
WAT WAT WAT WAT WAT WAT WAT WAT WAT WAT WAT WAT WAT WAT WAT WAT WAT WAT WAT WAT 
WAT WAT WAT WAT WAT WAT WAT WAT WAT WAT WAT WAT WAT WAT WAT WAT WAT WAT WAT WAT 
WAT WAT WAT WAT WAT WAT WAT WAT WAT WAT WAT WAT WAT WAT WAT WAT WAT WAT WAT WAT 
WAT WAT WAT WAT WAT WAT WAT WAT WAT WAT WAT WAT WAT WAT WAT WAT WAT WAT WAT WAT 
WAT WAT WAT WAT WAT WAT WAT WAT WAT WAT WAT WAT WAT WAT WAT WAT WAT WAT WAT WAT 
WAT WAT WAT WAT WAT WAT WAT WAT WAT WAT WAT WAT WAT WAT WAT WAT WAT WAT WAT WAT 
WAT WAT WAT WAT WAT WAT WAT WAT WAT WAT WAT WAT WAT WAT WAT WAT WAT WAT WAT WAT 
WAT WAT WAT WAT WAT WAT WAT WAT WAT WAT WAT WAT WAT WAT WAT WAT WAT WAT WAT WAT 
WAT WAT WAT WAT WAT WAT WAT WAT WAT WAT WAT WAT WAT WAT WAT WAT WAT WAT WAT WAT 
WAT WAT WAT WAT WAT WAT WAT WAT WAT WAT WAT WAT WAT WAT WAT WAT WAT WAT WAT WAT 
WAT WAT WAT WAT WAT WAT WAT WAT WAT WAT WAT WAT WAT WAT WAT WAT WAT WAT WAT WAT 
WAT WAT WAT WAT WAT WAT WAT WAT WAT WAT WAT WAT WAT WAT WAT WAT WAT WAT WAT WAT 
WAT WAT WAT WAT WAT WAT WAT WAT WAT WAT WAT WAT WAT WAT WAT WAT WAT WAT WAT WAT 
WAT WAT WAT WAT WAT WAT WAT WAT WAT WAT WAT WAT WAT WAT WAT WAT WAT WAT WAT WAT 
WAT WAT WAT WAT WAT WAT WAT WAT WAT WAT WAT WAT WAT WAT WAT WAT WAT WAT WAT WAT 
WAT WAT WAT WAT WAT WAT WAT WAT WAT WAT WAT WAT WAT WAT WAT WAT WAT WAT WAT WAT 
WAT WAT WAT WAT WAT WAT WAT WAT WAT WAT WAT WAT WAT WAT WAT WAT WAT WAT WAT WAT 
WAT WAT WAT WAT WAT WAT WAT WAT WAT WAT WAT WAT WAT WAT WAT WAT WAT WAT WAT WAT 
WAT WAT WAT WAT WAT WAT WAT WAT WAT WAT WAT WAT WAT WAT WAT WAT WAT WAT WAT WAT 
WAT WAT WAT WAT WAT WAT WAT WAT WAT WAT WAT WAT WAT WAT WAT WAT WAT WAT WAT WAT 
WAT WAT WAT WAT WAT WAT WAT WAT WAT WAT WAT WAT WAT WAT WAT WAT WAT WAT WAT WAT 
WAT WAT WAT WAT WAT WAT WAT WAT WAT WAT WAT WAT WAT WAT WAT WAT WAT WAT WAT WAT 
WAT WAT WAT WAT WAT WAT WAT WAT WAT WAT WAT WAT WAT WAT WAT WAT WAT WAT WAT WAT 
WAT WAT WAT WAT WAT WAT WAT WAT WAT WAT WAT WAT WAT WAT WAT WAT WAT WAT WAT WAT 
WAT WAT WAT WAT WAT WAT WAT WAT WAT WAT WAT WAT WAT WAT WAT WAT WAT WAT WAT WAT 
WAT WAT WAT WAT WAT WAT WAT WAT WAT WAT WAT WAT WAT WAT WAT WAT WAT WAT WAT WAT 
WAT WAT WAT WAT WAT WAT WAT WAT WAT WAT WAT WAT WAT WAT WAT WAT WAT WAT WAT WAT 
WAT WAT WAT WAT WAT WAT WAT WAT WAT WAT WAT WAT WAT WAT WAT WAT WAT WAT WAT WAT 
WAT WAT WAT WAT WAT WAT WAT WAT WAT WAT WAT WAT WAT WAT WAT WAT WAT WAT WAT WAT 
WAT WAT WAT WAT WAT WAT WAT WAT WAT WAT WAT WAT WAT WAT WAT WAT WAT WAT WAT WAT 
WAT WAT WAT WAT WAT WAT WAT WAT WAT WAT WAT WAT WAT WAT WAT WAT WAT WAT WAT WAT 
WAT WAT WAT WAT WAT WAT WAT WAT WAT WAT WAT WAT WAT WAT WAT WAT WAT WAT WAT WAT 
WAT WAT WAT WAT WAT WAT WAT WAT WAT WAT WAT WAT WAT WAT WAT WAT WAT WAT WAT WAT 
WAT WAT WAT WAT WAT WAT WAT WAT WAT WAT WAT WAT WAT WAT WAT WAT WAT WAT WAT WAT 
WAT WAT WAT WAT WAT WAT WAT WAT WAT WAT WAT WAT WAT WAT WAT WAT WAT WAT WAT WAT 
WAT WAT WAT WAT WAT WAT WAT WAT WAT WAT WAT WAT WAT WAT WAT WAT WAT WAT WAT WAT 
WAT WAT WAT WAT WAT WAT WAT WAT WAT WAT WAT WAT WAT WAT WAT WAT WAT WAT WAT WAT 
WAT WAT WAT WAT WAT WAT WAT WAT WAT WAT WAT WAT WAT WAT WAT WAT WAT WAT WAT WAT 
WAT WAT WAT WAT WAT WAT WAT WAT WAT WAT WAT WAT WAT WAT WAT WAT WAT WAT WAT WAT 
WAT WAT WAT WAT WAT WAT WAT WAT WAT WAT WAT WAT WAT WAT WAT WAT WAT WAT WAT WAT 
WAT WAT WAT WAT WAT WAT WAT WAT WAT WAT WAT WAT WAT WAT WAT WAT WAT WAT WAT WAT 
WAT WAT WAT WAT WAT WAT WAT WAT WAT WAT WAT WAT WAT WAT WAT WAT WAT WAT WAT WAT 
WAT WAT WAT WAT WAT WAT WAT WAT WAT WAT WAT WAT WAT WAT WAT WAT WAT WAT WAT WAT 
WAT WAT WAT WAT WAT WAT WAT WAT WAT WAT WAT WAT WAT WAT WAT WAT WAT WAT WAT WAT 
WAT WAT WAT WAT WAT WAT WAT WAT WAT WAT WAT WAT WAT WAT WAT WAT WAT WAT WAT WAT 
WAT WAT WAT WAT WAT WAT WAT WAT WAT WAT WAT WAT WAT WAT WAT WAT WAT WAT WAT WAT 
WAT WAT WAT WAT WAT WAT WAT WAT WAT WAT WAT WAT WAT WAT WAT WAT WAT WAT WAT WAT 
WAT WAT WAT WAT WAT WAT WAT WAT WAT WAT WAT WAT WAT WAT WAT WAT WAT WAT WAT WAT 
WAT WAT WAT WAT WAT WAT WAT WAT WAT WAT WAT WAT WAT WAT WAT WAT WAT WAT WAT WAT 
WAT WAT WAT WAT WAT WAT WAT WAT WAT WAT WAT WAT WAT WAT WAT WAT WAT WAT WAT WAT 
WAT WAT WAT WAT WAT WAT WAT WAT WAT WAT WAT WAT WAT WAT WAT WAT WAT WAT WAT WAT 
WAT WAT WAT WAT WAT WAT WAT WAT WAT WAT WAT WAT WAT WAT WAT WAT WAT WAT WAT WAT 
WAT WAT WAT WAT WAT WAT WAT WAT WAT WAT WAT WAT WAT WAT WAT WAT WAT WAT WAT WAT 
WAT WAT WAT WAT WAT WAT WAT WAT WAT WAT WAT WAT WAT WAT WAT WAT WAT WAT WAT WAT 
WAT WAT WAT WAT WAT WAT WAT WAT WAT WAT WAT WAT WAT WAT WAT WAT WAT WAT WAT WAT 
WAT WAT WAT WAT WAT WAT WAT WAT WAT WAT WAT WAT WAT WAT WAT WAT WAT WAT WAT WAT 
WAT WAT WAT WAT WAT WAT WAT WAT WAT WAT WAT WAT WAT WAT WAT WAT WAT WAT WAT WAT 
WAT WAT WAT WAT WAT WAT WAT WAT WAT WAT WAT WAT WAT WAT WAT WAT WAT WAT WAT WAT 
WAT WAT WAT WAT WAT WAT WAT WAT WAT WAT WAT WAT WAT WAT WAT WAT WAT WAT WAT WAT 
WAT WAT WAT WAT WAT WAT WAT WAT WAT WAT WAT WAT WAT WAT WAT WAT WAT WAT WAT WAT 
WAT WAT WAT WAT WAT WAT WAT WAT WAT WAT WAT WAT WAT WAT WAT WAT WAT WAT WAT WAT 
WAT WAT WAT WAT WAT WAT WAT WAT WAT WAT WAT WAT WAT WAT WAT WAT WAT WAT WAT WAT 
WAT WAT WAT WAT WAT WAT WAT WAT WAT WAT WAT WAT WAT WAT WAT WAT WAT WAT WAT WAT 
WAT WAT WAT WAT WAT WAT WAT WAT WAT WAT WAT WAT WAT WAT WAT WAT WAT WAT WAT WAT 
WAT WAT WAT WAT WAT WAT WAT WAT WAT WAT WAT WAT WAT WAT WAT WAT WAT WAT WAT WAT 
WAT WAT WAT WAT WAT WAT WAT WAT WAT WAT WAT WAT WAT WAT WAT WAT WAT WAT WAT WAT 
WAT WAT WAT WAT WAT WAT WAT WAT WAT WAT WAT WAT WAT WAT WAT WAT WAT WAT WAT WAT 
WAT WAT WAT WAT WAT WAT WAT WAT WAT WAT WAT WAT WAT WAT WAT WAT WAT WAT WAT WAT 
WAT WAT WAT WAT WAT WAT WAT WAT WAT WAT WAT WAT WAT WAT WAT WAT WAT WAT WAT WAT 
WAT WAT WAT WAT WAT WAT WAT WAT WAT WAT WAT WAT WAT WAT WAT WAT WAT WAT WAT WAT 
WAT WAT WAT WAT WAT WAT WAT WAT WAT WAT WAT WAT WAT WAT WAT WAT WAT WAT WAT WAT 
WAT WAT WAT WAT WAT WAT WAT WAT WAT WAT WAT WAT WAT WAT WAT WAT WAT WAT WAT WAT 
WAT WAT WAT WAT WAT WAT WAT WAT WAT WAT WAT WAT WAT WAT WAT WAT WAT WAT WAT WAT 
WAT WAT WAT WAT WAT WAT WAT WAT WAT WAT WAT WAT WAT WAT WAT WAT WAT WAT WAT WAT 
WAT WAT WAT WAT WAT WAT WAT WAT WAT WAT WAT WAT WAT WAT WAT WAT WAT WAT WAT WAT 
WAT WAT WAT WAT WAT WAT WAT WAT WAT WAT WAT WAT WAT WAT WAT WAT WAT WAT WAT WAT 
WAT WAT WAT WAT WAT WAT WAT WAT WAT WAT WAT WAT WAT WAT WAT WAT WAT WAT WAT WAT 
WAT WAT WAT WAT WAT WAT WAT WAT WAT WAT WAT WAT WAT WAT WAT WAT WAT WAT WAT WAT 
WAT WAT WAT WAT WAT WAT WAT WAT WAT WAT WAT WAT WAT WAT WAT WAT WAT WAT WAT WAT 
WAT WAT WAT WAT WAT WAT WAT WAT WAT WAT WAT WAT WAT WAT WAT WAT WAT WAT WAT WAT 
WAT WAT WAT WAT WAT WAT WAT WAT WAT WAT WAT WAT WAT WAT WAT WAT WAT WAT WAT WAT 
WAT WAT WAT WAT WAT WAT WAT WAT WAT WAT WAT WAT WAT WAT WAT WAT WAT WAT WAT WAT 
WAT WAT WAT WAT WAT WAT WAT WAT WAT WAT WAT WAT WAT WAT WAT WAT WAT WAT WAT WAT 
WAT WAT WAT WAT WAT WAT WAT WAT WAT WAT WAT WAT WAT WAT WAT WAT WAT WAT WAT WAT 
WAT WAT WAT WAT WAT WAT WAT WAT WAT WAT WAT WAT WAT WAT WAT WAT WAT WAT WAT WAT 
WAT WAT WAT WAT WAT WAT WAT WAT WAT WAT WAT WAT WAT WAT WAT WAT WAT WAT WAT WAT 
WAT WAT WAT WAT WAT WAT WAT WAT WAT WAT WAT WAT WAT WAT WAT WAT WAT WAT WAT WAT 
WAT WAT WAT WAT WAT WAT WAT WAT WAT WAT WAT WAT WAT WAT WAT WAT WAT WAT WAT WAT 
WAT WAT WAT WAT WAT WAT WAT WAT WAT WAT WAT WAT WAT WAT WAT WAT WAT WAT WAT WAT 
WAT WAT WAT WAT WAT WAT WAT WAT WAT WAT WAT WAT WAT WAT WAT WAT WAT WAT WAT WAT 
WAT WAT WAT WAT WAT WAT WAT WAT WAT WAT WAT WAT WAT WAT WAT WAT WAT WAT WAT WAT 
WAT WAT WAT WAT WAT WAT WAT WAT WAT WAT WAT WAT WAT WAT WAT WAT WAT WAT WAT WAT 
WAT WAT WAT WAT WAT WAT WAT WAT WAT WAT WAT WAT WAT WAT WAT WAT WAT WAT WAT WAT 
WAT WAT WAT WAT WAT WAT WAT WAT WAT WAT WAT WAT WAT WAT WAT WAT WAT WAT WAT WAT 
WAT WAT WAT WAT WAT WAT WAT WAT WAT WAT WAT WAT WAT WAT WAT WAT WAT WAT WAT WAT 
WAT WAT WAT WAT WAT WAT WAT WAT WAT WAT WAT WAT WAT WAT WAT WAT WAT WAT WAT WAT 
WAT WAT WAT WAT WAT WAT WAT WAT WAT WAT WAT WAT WAT WAT WAT WAT WAT WAT WAT WAT 
WAT WAT WAT WAT WAT WAT WAT WAT WAT WAT WAT WAT WAT WAT WAT WAT WAT WAT WAT WAT 
WAT WAT WAT WAT WAT WAT WAT WAT WAT WAT WAT WAT WAT WAT WAT WAT WAT WAT WAT WAT 
WAT WAT WAT WAT WAT WAT WAT WAT WAT WAT WAT WAT WAT WAT WAT WAT WAT WAT WAT WAT 
WAT WAT WAT WAT WAT WAT WAT WAT WAT WAT WAT WAT WAT WAT WAT WAT WAT WAT WAT WAT 
WAT WAT WAT WAT WAT WAT WAT WAT WAT WAT WAT WAT WAT WAT WAT WAT WAT WAT WAT WAT 
WAT WAT WAT WAT WAT WAT WAT WAT WAT WAT WAT WAT WAT WAT WAT WAT WAT WAT WAT WAT 
WAT WAT WAT WAT WAT WAT WAT WAT WAT WAT WAT WAT WAT WAT WAT WAT WAT WAT WAT WAT 
WAT WAT WAT WAT WAT WAT WAT WAT WAT WAT WAT WAT WAT WAT WAT WAT WAT WAT WAT WAT 
WAT WAT WAT WAT WAT WAT WAT WAT WAT WAT WAT WAT WAT WAT WAT WAT WAT WAT WAT WAT 
WAT WAT WAT WAT WAT WAT WAT WAT WAT WAT WAT WAT WAT WAT WAT WAT WAT WAT WAT WAT 
WAT WAT WAT WAT WAT WAT WAT WAT WAT WAT WAT WAT WAT WAT WAT WAT WAT WAT WAT WAT 
WAT WAT WAT WAT WAT WAT WAT WAT WAT WAT WAT WAT WAT WAT WAT WAT WAT WAT WAT WAT 
WAT WAT WAT WAT WAT WAT WAT WAT WAT WAT WAT WAT WAT WAT WAT WAT WAT WAT WAT WAT 
WAT WAT WAT WAT WAT WAT WAT WAT WAT WAT WAT WAT WAT WAT WAT WAT WAT WAT WAT WAT 
WAT WAT WAT WAT WAT WAT WAT WAT WAT WAT WAT WAT WAT WAT WAT WAT WAT WAT WAT WAT 
WAT WAT WAT WAT WAT WAT WAT WAT WAT WAT WAT WAT WAT WAT WAT WAT WAT WAT WAT WAT 
WAT WAT WAT WAT WAT WAT WAT WAT WAT WAT WAT WAT WAT WAT WAT WAT WAT WAT WAT WAT 
WAT WAT WAT WAT WAT WAT WAT WAT WAT WAT WAT WAT WAT WAT WAT WAT WAT WAT WAT WAT 
WAT WAT WAT WAT WAT WAT WAT WAT WAT WAT WAT WAT WAT WAT WAT WAT WAT WAT WAT WAT 
WAT WAT WAT WAT WAT WAT WAT WAT WAT WAT WAT WAT WAT WAT WAT WAT WAT WAT WAT WAT 
WAT WAT WAT WAT WAT WAT WAT WAT WAT WAT WAT WAT WAT WAT WAT WAT WAT WAT WAT WAT 
WAT WAT WAT WAT WAT WAT WAT WAT WAT WAT WAT WAT WAT WAT WAT WAT WAT WAT WAT WAT 
WAT WAT WAT WAT WAT WAT WAT WAT WAT WAT WAT WAT WAT WAT WAT WAT WAT WAT WAT WAT 
WAT WAT WAT WAT WAT WAT WAT WAT WAT WAT WAT WAT WAT WAT WAT WAT WAT WAT WAT WAT 
WAT WAT WAT WAT WAT WAT WAT WAT WAT WAT WAT WAT WAT WAT WAT WAT WAT WAT WAT WAT 
WAT WAT WAT WAT WAT WAT WAT WAT WAT WAT WAT WAT WAT WAT WAT WAT WAT WAT WAT WAT 
WAT WAT WAT WAT WAT WAT WAT WAT WAT WAT WAT WAT WAT WAT WAT WAT WAT WAT WAT WAT 
WAT WAT WAT WAT WAT WAT WAT WAT WAT WAT WAT WAT WAT WAT WAT WAT WAT WAT WAT WAT 
WAT WAT WAT WAT WAT WAT WAT WAT WAT WAT WAT WAT WAT WAT WAT WAT WAT WAT WAT WAT 
WAT WAT WAT WAT WAT WAT WAT WAT WAT WAT WAT WAT WAT WAT WAT WAT WAT WAT WAT WAT 
WAT WAT WAT WAT WAT WAT WAT WAT WAT WAT WAT WAT WAT WAT WAT WAT WAT WAT WAT WAT 
WAT WAT WAT WAT WAT WAT WAT WAT WAT WAT WAT WAT WAT WAT WAT WAT WAT WAT WAT WAT 
WAT WAT WAT WAT WAT WAT WAT WAT WAT WAT WAT WAT WAT WAT WAT WAT WAT WAT WAT WAT 
WAT WAT WAT WAT WAT WAT WAT WAT WAT WAT WAT WAT WAT WAT WAT WAT WAT WAT WAT WAT 
WAT WAT WAT WAT WAT WAT WAT WAT WAT WAT WAT WAT WAT WAT WAT WAT WAT WAT WAT WAT 
WAT WAT WAT WAT WAT WAT WAT WAT WAT WAT WAT WAT WAT WAT WAT WAT WAT WAT WAT WAT 
WAT WAT WAT WAT WAT WAT WAT WAT WAT WAT WAT WAT WAT WAT WAT WAT WAT WAT WAT WAT 
WAT WAT WAT WAT WAT WAT WAT WAT WAT WAT WAT WAT WAT WAT WAT WAT WAT WAT WAT WAT 
WAT WAT WAT WAT WAT WAT WAT WAT WAT WAT WAT WAT WAT WAT WAT WAT WAT WAT WAT WAT 
WAT WAT WAT WAT WAT WAT WAT WAT WAT WAT WAT WAT WAT WAT WAT WAT WAT WAT WAT WAT 
WAT WAT WAT WAT WAT WAT WAT WAT WAT WAT WAT WAT WAT WAT WAT WAT WAT WAT WAT WAT 
WAT WAT WAT WAT WAT WAT WAT WAT WAT WAT WAT WAT WAT WAT WAT WAT WAT WAT WAT WAT 
WAT WAT WAT WAT WAT WAT WAT WAT WAT WAT WAT WAT WAT WAT WAT WAT WAT WAT WAT WAT 
WAT WAT WAT WAT WAT WAT WAT WAT WAT WAT WAT WAT WAT WAT WAT WAT WAT WAT WAT WAT 
WAT WAT WAT WAT WAT WAT WAT WAT WAT WAT WAT WAT WAT WAT WAT WAT WAT WAT WAT WAT 
WAT WAT WAT WAT WAT WAT WAT WAT WAT WAT WAT WAT WAT WAT WAT WAT WAT WAT WAT WAT 
WAT WAT WAT WAT WAT WAT WAT WAT WAT WAT WAT WAT WAT WAT WAT WAT WAT WAT WAT WAT 
WAT WAT WAT WAT WAT WAT WAT WAT WAT WAT WAT WAT WAT WAT WAT WAT WAT WAT WAT WAT 
WAT WAT WAT WAT WAT WAT WAT WAT WAT WAT WAT WAT WAT WAT WAT WAT WAT WAT WAT WAT 
WAT WAT WAT WAT WAT WAT WAT WAT WAT WAT WAT WAT WAT WAT WAT WAT WAT WAT WAT WAT 
WAT WAT WAT WAT WAT WAT WAT WAT WAT WAT WAT WAT WAT WAT WAT WAT WAT WAT WAT WAT 
WAT WAT WAT WAT WAT WAT WAT WAT WAT WAT WAT WAT WAT WAT WAT WAT WAT WAT WAT WAT 
WAT WAT WAT WAT WAT WAT WAT WAT WAT WAT WAT WAT WAT WAT WAT WAT WAT WAT WAT WAT 
WAT WAT WAT WAT WAT WAT WAT WAT WAT WAT WAT WAT WAT WAT WAT WAT WAT WAT WAT WAT 
WAT WAT WAT WAT WAT WAT WAT WAT WAT WAT WAT WAT WAT WAT WAT WAT WAT WAT WAT WAT 
WAT WAT WAT WAT WAT WAT WAT WAT WAT WAT WAT WAT WAT WAT WAT WAT WAT WAT WAT WAT 
WAT WAT WAT WAT WAT WAT WAT WAT WAT WAT WAT WAT WAT WAT WAT WAT WAT WAT WAT WAT 
WAT WAT WAT WAT WAT WAT WAT WAT WAT WAT WAT WAT WAT WAT WAT WAT WAT WAT WAT WAT 
WAT WAT WAT WAT WAT WAT WAT WAT WAT WAT WAT WAT WAT WAT WAT WAT WAT WAT WAT WAT 
WAT WAT WAT WAT WAT WAT WAT WAT WAT WAT WAT WAT WAT WAT WAT WAT WAT WAT WAT WAT 
WAT WAT WAT WAT WAT WAT WAT WAT WAT WAT WAT WAT WAT WAT WAT WAT WAT WAT WAT WAT 
WAT WAT WAT WAT WAT WAT WAT WAT WAT WAT WAT WAT WAT WAT WAT WAT WAT WAT WAT WAT 
WAT WAT WAT WAT WAT WAT WAT WAT WAT WAT WAT WAT WAT WAT WAT WAT WAT WAT WAT WAT 
WAT WAT WAT WAT WAT WAT WAT WAT WAT WAT WAT WAT WAT WAT WAT WAT WAT WAT WAT WAT 
WAT WAT WAT WAT WAT WAT WAT WAT WAT WAT WAT WAT WAT WAT WAT WAT WAT WAT WAT WAT 
WAT WAT WAT WAT WAT WAT WAT WAT WAT WAT WAT WAT WAT WAT WAT WAT WAT WAT WAT WAT 
WAT WAT WAT WAT WAT WAT WAT WAT WAT WAT WAT WAT WAT WAT WAT WAT WAT WAT WAT WAT 
WAT WAT WAT WAT WAT WAT WAT WAT WAT WAT WAT WAT WAT WAT WAT WAT WAT WAT WAT WAT 
WAT WAT WAT WAT WAT WAT WAT WAT WAT WAT WAT WAT WAT WAT WAT WAT WAT WAT WAT WAT 
WAT WAT WAT WAT WAT WAT WAT WAT WAT WAT WAT WAT WAT WAT WAT WAT WAT WAT WAT WAT 
WAT WAT WAT WAT WAT WAT WAT WAT WAT WAT WAT WAT WAT WAT WAT WAT WAT WAT WAT WAT 
WAT WAT WAT WAT WAT WAT WAT WAT WAT WAT WAT WAT WAT WAT WAT WAT WAT WAT WAT WAT 
WAT WAT WAT WAT WAT WAT WAT WAT WAT WAT WAT WAT WAT WAT WAT WAT WAT WAT WAT WAT 
WAT WAT WAT WAT WAT WAT WAT WAT WAT WAT WAT WAT WAT WAT WAT WAT WAT WAT WAT WAT 
WAT WAT WAT WAT WAT WAT WAT WAT WAT WAT WAT WAT WAT WAT WAT WAT WAT WAT WAT WAT 
WAT WAT WAT WAT WAT WAT WAT WAT WAT WAT WAT WAT WAT WAT WAT WAT WAT WAT WAT WAT 
WAT WAT WAT WAT WAT WAT WAT WAT WAT WAT WAT WAT WAT WAT WAT WAT WAT WAT WAT WAT 
WAT WAT WAT WAT WAT WAT WAT WAT WAT WAT WAT WAT WAT WAT WAT WAT WAT WAT WAT WAT 
WAT WAT WAT WAT WAT WAT WAT WAT WAT WAT WAT WAT WAT WAT WAT WAT WAT WAT WAT WAT 
WAT WAT WAT WAT WAT WAT WAT WAT WAT WAT WAT WAT WAT WAT WAT WAT WAT WAT WAT WAT 
WAT WAT WAT WAT WAT WAT WAT WAT WAT WAT WAT WAT WAT WAT WAT WAT WAT WAT WAT WAT 
WAT WAT WAT WAT WAT WAT WAT WAT WAT WAT WAT WAT WAT WAT WAT WAT WAT WAT WAT WAT 
WAT WAT WAT WAT WAT WAT WAT WAT WAT WAT WAT WAT WAT WAT WAT WAT WAT WAT WAT WAT 
WAT WAT WAT WAT WAT WAT WAT WAT WAT WAT WAT WAT WAT WAT WAT WAT WAT WAT WAT WAT 
WAT WAT WAT WAT WAT WAT WAT WAT WAT WAT WAT WAT WAT WAT WAT WAT WAT WAT WAT WAT 
WAT WAT WAT WAT WAT WAT WAT WAT WAT WAT WAT WAT WAT WAT WAT WAT WAT WAT WAT WAT 
WAT WAT WAT WAT WAT WAT WAT WAT WAT WAT WAT WAT WAT WAT WAT WAT WAT WAT WAT WAT 
WAT WAT WAT WAT WAT WAT WAT WAT WAT WAT WAT WAT WAT WAT WAT WAT WAT WAT WAT WAT 
WAT WAT WAT WAT WAT WAT WAT WAT WAT WAT WAT WAT WAT WAT WAT WAT WAT WAT WAT WAT 
WAT WAT WAT WAT WAT WAT WAT WAT WAT WAT WAT WAT WAT WAT WAT WAT WAT WAT WAT WAT 
WAT WAT WAT WAT WAT WAT WAT WAT WAT WAT WAT WAT WAT WAT WAT WAT WAT WAT WAT WAT 
WAT WAT WAT WAT WAT WAT WAT WAT WAT WAT WAT WAT WAT WAT WAT WAT WAT WAT WAT WAT 
WAT WAT WAT WAT WAT WAT WAT WAT WAT WAT WAT WAT WAT WAT WAT WAT WAT WAT WAT WAT 
WAT WAT WAT WAT WAT WAT WAT WAT WAT WAT WAT WAT WAT WAT WAT WAT WAT WAT WAT WAT 
WAT WAT WAT WAT WAT WAT WAT WAT WAT WAT WAT WAT WAT WAT WAT WAT WAT WAT WAT WAT 
WAT WAT WAT WAT WAT WAT WAT WAT WAT WAT WAT WAT WAT WAT WAT WAT WAT WAT WAT WAT 
WAT WAT WAT WAT WAT WAT WAT WAT WAT WAT WAT WAT WAT WAT WAT WAT WAT WAT WAT WAT 
WAT WAT WAT WAT WAT WAT WAT WAT WAT WAT WAT WAT WAT WAT WAT WAT WAT WAT WAT WAT 
WAT WAT WAT WAT WAT WAT WAT WAT WAT WAT WAT WAT WAT WAT WAT WAT WAT WAT WAT WAT 
WAT WAT WAT WAT WAT WAT WAT WAT WAT WAT WAT WAT WAT WAT WAT WAT WAT WAT WAT WAT 
WAT WAT WAT WAT WAT WAT WAT WAT WAT WAT WAT WAT WAT WAT WAT WAT WAT WAT WAT WAT 
WAT WAT WAT WAT WAT WAT WAT WAT WAT WAT WAT WAT WAT WAT WAT WAT WAT WAT WAT WAT 
WAT WAT WAT WAT WAT WAT WAT WAT WAT WAT WAT WAT WAT WAT WAT WAT WAT WAT WAT WAT 
WAT WAT WAT WAT WAT WAT WAT WAT WAT WAT WAT WAT WAT WAT WAT WAT WAT WAT WAT WAT 
WAT WAT WAT WAT WAT WAT WAT WAT WAT WAT WAT WAT WAT WAT WAT WAT WAT WAT WAT WAT 
WAT WAT WAT WAT WAT WAT WAT WAT WAT WAT WAT WAT WAT WAT WAT WAT WAT WAT WAT WAT 
WAT WAT WAT WAT WAT WAT WAT WAT WAT WAT WAT WAT WAT WAT WAT WAT WAT WAT WAT WAT 
WAT WAT WAT WAT WAT WAT WAT WAT WAT WAT WAT WAT WAT WAT WAT WAT WAT WAT WAT WAT 
WAT WAT WAT WAT WAT WAT WAT WAT WAT WAT WAT WAT WAT WAT WAT WAT WAT WAT WAT WAT 
WAT WAT WAT WAT WAT WAT WAT WAT WAT WAT WAT WAT WAT WAT WAT WAT WAT WAT WAT WAT 
WAT WAT WAT WAT WAT WAT WAT WAT WAT WAT WAT WAT WAT WAT WAT WAT WAT WAT WAT WAT 
WAT WAT WAT WAT WAT WAT WAT WAT WAT WAT WAT WAT WAT WAT WAT WAT WAT WAT WAT WAT 
WAT WAT WAT WAT WAT WAT WAT WAT WAT WAT WAT WAT WAT WAT WAT WAT WAT WAT WAT WAT 
WAT WAT WAT WAT WAT WAT WAT WAT WAT WAT WAT WAT WAT WAT WAT WAT WAT WAT WAT WAT 
WAT WAT WAT WAT WAT WAT WAT WAT WAT WAT WAT WAT WAT WAT WAT WAT WAT WAT WAT WAT 
WAT WAT WAT WAT WAT WAT WAT WAT WAT WAT WAT WAT WAT WAT WAT WAT WAT WAT WAT WAT 
WAT WAT WAT WAT WAT WAT WAT WAT WAT WAT WAT WAT WAT WAT WAT WAT WAT WAT WAT WAT 
WAT WAT WAT WAT WAT WAT WAT WAT WAT WAT WAT WAT WAT WAT WAT WAT WAT WAT WAT WAT 
WAT WAT WAT WAT WAT WAT WAT WAT WAT WAT WAT WAT WAT WAT WAT WAT WAT WAT WAT WAT 
WAT WAT WAT WAT WAT WAT WAT WAT WAT WAT WAT WAT WAT WAT WAT WAT WAT WAT WAT WAT 
WAT WAT WAT WAT WAT WAT WAT WAT WAT WAT WAT WAT WAT WAT WAT WAT WAT WAT WAT WAT 
WAT WAT WAT WAT WAT WAT WAT WAT WAT WAT WAT WAT WAT WAT WAT WAT WAT WAT WAT WAT 
WAT WAT WAT WAT WAT WAT WAT WAT WAT WAT WAT WAT WAT WAT WAT WAT WAT WAT WAT WAT 
WAT WAT WAT WAT WAT WAT WAT WAT WAT WAT WAT WAT WAT WAT WAT WAT WAT WAT WAT WAT 
WAT WAT WAT WAT WAT WAT WAT WAT WAT WAT WAT WAT WAT WAT WAT WAT WAT WAT WAT WAT 
WAT WAT WAT WAT WAT WAT WAT WAT WAT WAT WAT WAT WAT WAT WAT WAT WAT WAT WAT WAT 
WAT WAT WAT WAT WAT WAT WAT WAT WAT WAT WAT WAT WAT WAT WAT WAT WAT WAT WAT WAT 
WAT WAT WAT WAT WAT WAT WAT WAT WAT WAT WAT WAT WAT WAT WAT WAT WAT WAT WAT WAT 
WAT WAT WAT WAT WAT WAT WAT WAT WAT WAT WAT WAT WAT WAT WAT WAT WAT WAT WAT WAT 
WAT WAT WAT WAT WAT WAT WAT WAT WAT WAT WAT WAT WAT WAT WAT WAT WAT WAT WAT WAT 
WAT WAT WAT WAT WAT WAT WAT WAT WAT WAT WAT WAT WAT WAT WAT WAT WAT WAT WAT WAT 
WAT WAT WAT WAT WAT WAT WAT WAT WAT WAT WAT WAT WAT WAT WAT WAT WAT WAT WAT WAT 
WAT WAT WAT WAT WAT WAT WAT WAT WAT WAT WAT WAT WAT WAT WAT WAT WAT WAT WAT WAT 
WAT WAT WAT WAT WAT WAT WAT WAT WAT WAT WAT WAT WAT WAT WAT WAT WAT WAT WAT WAT 
WAT WAT WAT WAT WAT WAT WAT WAT WAT WAT WAT WAT WAT WAT WAT WAT WAT WAT WAT WAT 
WAT WAT WAT WAT WAT WAT WAT WAT WAT WAT WAT WAT WAT WAT WAT WAT WAT WAT WAT WAT 
WAT WAT WAT WAT WAT WAT WAT WAT WAT WAT WAT WAT WAT WAT WAT WAT WAT WAT WAT WAT 
WAT WAT WAT WAT WAT WAT WAT WAT WAT WAT WAT WAT WAT WAT WAT WAT WAT WAT WAT WAT 
WAT WAT WAT WAT WAT WAT WAT WAT WAT WAT WAT WAT WAT WAT WAT WAT WAT WAT WAT WAT 
WAT WAT WAT WAT WAT WAT WAT WAT WAT WAT WAT WAT WAT WAT WAT WAT WAT WAT WAT WAT 
WAT WAT WAT WAT WAT WAT WAT WAT WAT WAT WAT WAT WAT WAT WAT WAT WAT WAT WAT WAT 
WAT WAT WAT WAT WAT WAT WAT WAT WAT WAT WAT WAT WAT WAT WAT WAT WAT WAT WAT WAT 
WAT WAT WAT WAT WAT WAT WAT WAT WAT WAT WAT WAT WAT WAT WAT WAT WAT WAT WAT WAT 
WAT WAT WAT WAT WAT WAT WAT WAT WAT WAT WAT WAT WAT WAT WAT WAT WAT WAT WAT WAT 
WAT WAT WAT WAT WAT WAT WAT WAT WAT WAT WAT WAT WAT WAT WAT WAT WAT WAT WAT WAT 
WAT WAT WAT WAT WAT WAT WAT WAT WAT WAT WAT WAT WAT WAT WAT WAT WAT WAT WAT WAT 
WAT WAT WAT WAT WAT WAT WAT WAT WAT WAT WAT WAT WAT WAT WAT WAT WAT WAT WAT WAT 
WAT WAT WAT WAT WAT WAT WAT WAT WAT WAT WAT WAT WAT WAT WAT WAT WAT WAT WAT WAT 
WAT WAT WAT WAT WAT WAT WAT WAT WAT WAT WAT WAT WAT WAT WAT WAT WAT WAT WAT WAT 
WAT WAT WAT WAT WAT WAT WAT WAT WAT WAT WAT WAT WAT WAT WAT WAT WAT WAT WAT WAT 
WAT WAT WAT WAT WAT WAT WAT WAT WAT WAT WAT WAT WAT WAT WAT WAT WAT WAT WAT WAT 
WAT WAT WAT WAT WAT WAT WAT WAT WAT WAT WAT WAT WAT WAT WAT WAT WAT WAT WAT WAT 
WAT WAT WAT WAT WAT WAT WAT WAT WAT WAT WAT WAT WAT WAT WAT WAT WAT WAT WAT WAT 
WAT WAT WAT WAT WAT WAT WAT WAT WAT WAT WAT WAT WAT WAT WAT WAT WAT WAT WAT WAT 
WAT WAT WAT WAT WAT WAT WAT WAT WAT WAT WAT WAT WAT WAT WAT WAT WAT WAT WAT WAT 
WAT WAT WAT WAT WAT WAT WAT WAT WAT WAT WAT WAT WAT WAT WAT WAT WAT WAT WAT WAT 
WAT WAT WAT WAT WAT WAT WAT WAT WAT WAT WAT WAT WAT WAT WAT WAT WAT WAT WAT WAT 
WAT WAT WAT WAT WAT WAT WAT WAT WAT WAT WAT WAT WAT WAT WAT WAT WAT WAT WAT WAT 
WAT WAT WAT WAT WAT WAT WAT WAT WAT WAT WAT WAT WAT WAT WAT WAT WAT WAT WAT WAT 
WAT WAT WAT WAT WAT WAT WAT WAT WAT WAT WAT WAT WAT WAT WAT WAT WAT WAT WAT WAT 
WAT WAT WAT WAT WAT WAT WAT WAT WAT WAT WAT WAT WAT WAT WAT WAT WAT WAT WAT WAT 
WAT WAT WAT WAT WAT WAT WAT WAT WAT WAT WAT WAT WAT WAT WAT WAT WAT WAT WAT WAT 
WAT WAT WAT WAT WAT WAT WAT WAT WAT WAT WAT WAT WAT WAT WAT WAT WAT WAT WAT WAT 
WAT WAT WAT WAT WAT WAT WAT WAT WAT WAT WAT WAT WAT WAT WAT WAT WAT WAT WAT WAT 
WAT WAT WAT WAT WAT WAT WAT WAT WAT WAT WAT WAT WAT WAT WAT WAT WAT WAT WAT WAT 
WAT WAT WAT WAT WAT WAT WAT WAT WAT WAT WAT WAT WAT WAT WAT WAT WAT WAT WAT WAT 
WAT WAT WAT WAT WAT WAT WAT WAT WAT WAT WAT WAT WAT WAT WAT WAT WAT WAT WAT WAT 
WAT WAT WAT WAT WAT WAT WAT WAT WAT WAT WAT WAT WAT WAT WAT WAT WAT WAT WAT WAT 
WAT WAT WAT WAT WAT WAT WAT WAT WAT WAT WAT WAT WAT WAT WAT WAT WAT WAT WAT WAT 
WAT WAT WAT WAT WAT WAT WAT WAT WAT WAT WAT WAT WAT WAT WAT WAT WAT WAT WAT WAT 
WAT WAT WAT WAT WAT WAT WAT WAT WAT WAT WAT WAT WAT WAT WAT WAT WAT WAT WAT WAT 
WAT WAT WAT WAT WAT WAT WAT WAT WAT WAT WAT WAT WAT WAT WAT WAT WAT WAT WAT WAT 
WAT WAT WAT WAT WAT WAT WAT WAT WAT WAT WAT WAT WAT WAT WAT WAT WAT WAT WAT WAT 
WAT WAT WAT WAT WAT WAT WAT WAT WAT WAT WAT WAT WAT WAT WAT WAT WAT WAT WAT WAT 
WAT WAT WAT WAT WAT WAT WAT WAT WAT WAT WAT WAT WAT WAT WAT WAT WAT WAT WAT WAT 
WAT WAT WAT WAT WAT WAT WAT WAT WAT WAT WAT WAT WAT WAT WAT WAT WAT WAT WAT WAT 
WAT WAT WAT WAT WAT WAT WAT WAT WAT WAT WAT WAT WAT WAT WAT WAT WAT WAT WAT WAT 
WAT WAT WAT WAT WAT WAT WAT WAT WAT WAT WAT WAT WAT WAT WAT WAT WAT WAT WAT WAT 
WAT WAT WAT WAT WAT WAT WAT WAT WAT WAT WAT WAT WAT WAT WAT WAT WAT WAT WAT WAT 
WAT WAT WAT WAT WAT WAT WAT WAT WAT WAT WAT WAT WAT WAT WAT WAT WAT WAT WAT WAT 
WAT WAT WAT WAT WAT WAT WAT WAT WAT WAT WAT WAT WAT WAT WAT WAT WAT WAT WAT WAT 
WAT WAT WAT WAT WAT WAT WAT WAT WAT WAT WAT WAT WAT WAT WAT WAT WAT WAT WAT WAT 
WAT WAT WAT WAT WAT WAT WAT WAT WAT WAT WAT WAT WAT WAT WAT WAT WAT WAT WAT WAT 
WAT WAT WAT WAT WAT WAT WAT WAT WAT WAT WAT WAT WAT WAT WAT WAT WAT WAT WAT WAT 
WAT WAT WAT WAT WAT WAT WAT WAT WAT WAT WAT WAT WAT WAT WAT WAT WAT WAT WAT WAT 
WAT WAT WAT WAT WAT WAT WAT WAT WAT WAT WAT WAT WAT WAT WAT WAT WAT WAT WAT WAT 
WAT WAT WAT WAT WAT WAT WAT WAT WAT WAT WAT WAT WAT WAT WAT WAT WAT WAT WAT WAT 
WAT WAT WAT WAT WAT WAT WAT WAT WAT WAT WAT WAT WAT WAT WAT WAT WAT WAT WAT WAT 
WAT WAT WAT WAT WAT WAT WAT WAT WAT WAT WAT WAT WAT WAT WAT WAT WAT WAT WAT WAT 
WAT WAT WAT WAT WAT WAT WAT WAT WAT WAT WAT WAT WAT WAT WAT WAT WAT WAT WAT WAT 
WAT WAT WAT WAT WAT WAT WAT WAT WAT WAT WAT WAT WAT WAT WAT WAT WAT WAT WAT WAT 
WAT WAT WAT WAT WAT WAT WAT WAT WAT WAT WAT WAT WAT WAT WAT WAT WAT WAT WAT WAT 
WAT WAT WAT WAT WAT WAT WAT WAT WAT WAT WAT WAT WAT WAT WAT WAT WAT WAT WAT WAT 
WAT WAT WAT WAT WAT WAT WAT WAT WAT WAT WAT WAT WAT WAT WAT WAT WAT WAT WAT WAT 
WAT WAT WAT WAT WAT WAT WAT WAT WAT WAT WAT WAT WAT WAT WAT WAT WAT WAT WAT WAT 
WAT WAT WAT WAT WAT WAT WAT WAT WAT WAT WAT WAT WAT WAT WAT WAT WAT WAT WAT WAT 
WAT WAT WAT WAT WAT WAT WAT WAT WAT WAT WAT WAT WAT WAT WAT WAT WAT WAT WAT WAT 
WAT WAT WAT WAT WAT WAT WAT WAT WAT WAT WAT WAT WAT WAT WAT WAT WAT WAT WAT WAT 
WAT WAT WAT WAT WAT WAT WAT WAT WAT WAT WAT WAT WAT WAT WAT WAT WAT WAT WAT WAT 
WAT WAT WAT WAT WAT WAT WAT WAT WAT WAT WAT WAT WAT WAT WAT WAT WAT WAT WAT WAT 
WAT WAT WAT WAT WAT WAT WAT WAT WAT WAT WAT WAT WAT WAT WAT WAT WAT WAT WAT WAT 
WAT WAT WAT WAT WAT WAT WAT WAT WAT WAT WAT WAT WAT WAT WAT WAT WAT WAT WAT WAT 
WAT WAT WAT WAT WAT WAT WAT WAT WAT WAT WAT WAT WAT WAT WAT WAT WAT WAT WAT WAT 
WAT WAT WAT WAT WAT WAT WAT WAT WAT WAT WAT WAT WAT WAT WAT WAT WAT WAT WAT WAT 
WAT WAT WAT WAT WAT WAT WAT WAT WAT WAT WAT WAT WAT WAT WAT WAT WAT WAT WAT WAT 
WAT WAT WAT WAT WAT WAT WAT WAT WAT WAT WAT WAT WAT WAT WAT WAT WAT WAT WAT WAT 
WAT WAT WAT WAT WAT WAT WAT WAT WAT WAT WAT WAT WAT WAT WAT WAT WAT WAT WAT WAT 
WAT WAT WAT WAT WAT WAT WAT WAT WAT WAT WAT WAT WAT WAT WAT WAT WAT WAT WAT WAT 
WAT WAT WAT WAT WAT WAT WAT WAT WAT WAT WAT WAT WAT WAT WAT WAT WAT WAT WAT WAT 
WAT WAT WAT WAT WAT WAT WAT WAT WAT WAT WAT WAT WAT WAT WAT WAT WAT WAT WAT WAT 
WAT WAT WAT WAT WAT WAT WAT WAT WAT WAT WAT WAT WAT WAT WAT WAT WAT WAT WAT WAT 
WAT WAT WAT WAT WAT WAT WAT WAT WAT WAT WAT WAT WAT WAT WAT WAT WAT WAT WAT WAT 
WAT WAT WAT WAT WAT WAT WAT WAT WAT WAT WAT WAT WAT WAT WAT WAT WAT WAT WAT WAT 
WAT WAT WAT WAT WAT WAT WAT WAT WAT WAT WAT WAT WAT WAT WAT WAT WAT WAT WAT WAT 
WAT WAT WAT WAT WAT WAT WAT WAT WAT WAT WAT WAT WAT WAT WAT WAT WAT WAT WAT WAT 
WAT WAT WAT WAT WAT WAT WAT WAT WAT WAT WAT WAT WAT WAT WAT WAT WAT WAT WAT WAT 
WAT WAT WAT WAT WAT WAT WAT WAT WAT WAT WAT WAT WAT WAT WAT WAT WAT WAT WAT WAT 
WAT WAT WAT WAT WAT WAT WAT WAT WAT WAT WAT WAT WAT WAT WAT WAT WAT WAT WAT WAT 
WAT WAT WAT WAT WAT WAT WAT WAT WAT WAT WAT WAT WAT WAT WAT WAT WAT WAT WAT WAT 
WAT WAT WAT WAT WAT WAT WAT WAT WAT WAT WAT WAT WAT WAT WAT WAT WAT WAT WAT WAT 
WAT WAT WAT WAT WAT WAT WAT WAT WAT WAT WAT WAT WAT WAT WAT WAT WAT WAT WAT WAT 
WAT WAT WAT WAT WAT WAT WAT WAT WAT WAT WAT WAT WAT WAT WAT WAT WAT WAT WAT WAT 
WAT WAT WAT WAT WAT WAT WAT WAT WAT WAT WAT WAT WAT WAT WAT WAT WAT WAT WAT WAT 
WAT WAT WAT WAT WAT WAT WAT WAT WAT WAT WAT WAT WAT WAT WAT WAT WAT WAT WAT WAT 
WAT WAT WAT WAT WAT WAT WAT WAT WAT WAT WAT WAT WAT WAT WAT WAT WAT WAT WAT WAT 
WAT WAT WAT WAT WAT WAT WAT WAT WAT WAT WAT WAT WAT WAT WAT WAT WAT WAT WAT WAT 
WAT WAT WAT WAT WAT WAT WAT WAT WAT WAT WAT WAT WAT WAT WAT WAT WAT WAT WAT WAT 
WAT WAT WAT WAT WAT WAT WAT WAT WAT WAT WAT WAT WAT WAT WAT WAT WAT WAT WAT WAT 
WAT WAT WAT WAT WAT WAT WAT WAT WAT WAT WAT WAT WAT WAT WAT WAT WAT WAT WAT WAT 
WAT WAT WAT WAT WAT WAT WAT WAT WAT WAT WAT WAT WAT WAT WAT WAT WAT WAT WAT WAT 
WAT WAT WAT WAT WAT WAT WAT WAT WAT WAT WAT WAT WAT WAT WAT WAT WAT WAT WAT WAT 
WAT WAT WAT WAT WAT WAT WAT WAT WAT WAT WAT WAT WAT WAT WAT WAT WAT WAT WAT WAT 
WAT WAT WAT WAT WAT WAT WAT WAT WAT WAT WAT WAT WAT WAT WAT WAT WAT WAT WAT WAT 
WAT WAT WAT WAT WAT WAT WAT WAT WAT WAT WAT WAT WAT WAT WAT WAT WAT WAT WAT WAT 
WAT WAT WAT WAT WAT WAT WAT WAT WAT WAT WAT WAT WAT WAT WAT WAT WAT WAT WAT WAT 
WAT WAT WAT WAT WAT WAT WAT WAT WAT WAT WAT WAT WAT WAT WAT WAT WAT WAT WAT WAT 
WAT WAT WAT WAT WAT WAT WAT WAT WAT WAT WAT WAT WAT WAT WAT WAT WAT WAT WAT WAT 
WAT WAT WAT WAT WAT WAT WAT WAT WAT WAT WAT WAT WAT WAT WAT WAT WAT WAT WAT WAT 
WAT WAT WAT WAT WAT WAT WAT WAT WAT WAT WAT WAT WAT WAT WAT WAT WAT WAT WAT WAT 
WAT WAT WAT WAT WAT WAT WAT WAT WAT WAT WAT WAT WAT WAT WAT WAT WAT WAT WAT WAT 
WAT WAT WAT WAT WAT WAT WAT WAT WAT WAT WAT WAT WAT WAT WAT WAT WAT WAT WAT WAT 
WAT WAT WAT WAT WAT WAT WAT WAT WAT WAT WAT WAT WAT WAT WAT WAT WAT WAT WAT WAT 
WAT WAT WAT WAT WAT WAT WAT WAT WAT WAT WAT WAT WAT WAT WAT WAT WAT WAT WAT WAT 
WAT WAT WAT WAT WAT WAT WAT WAT WAT WAT WAT WAT WAT WAT WAT WAT WAT WAT WAT WAT 
WAT WAT WAT WAT WAT WAT WAT WAT WAT WAT WAT WAT WAT WAT WAT WAT WAT WAT WAT WAT 
WAT WAT WAT WAT WAT WAT WAT WAT WAT WAT WAT WAT WAT WAT WAT WAT WAT WAT WAT WAT 
WAT WAT WAT WAT WAT WAT WAT WAT WAT WAT WAT WAT WAT WAT WAT WAT WAT WAT WAT WAT 
WAT WAT WAT WAT WAT WAT WAT WAT WAT WAT WAT WAT WAT WAT WAT WAT WAT WAT WAT WAT 
WAT WAT WAT WAT WAT WAT WAT WAT WAT WAT WAT WAT WAT WAT WAT WAT WAT WAT WAT WAT 
WAT WAT WAT WAT WAT WAT WAT WAT WAT WAT WAT WAT WAT WAT WAT WAT WAT WAT WAT WAT 
WAT WAT WAT WAT WAT WAT WAT WAT WAT WAT WAT WAT WAT WAT WAT WAT WAT WAT WAT WAT 
WAT WAT WAT WAT WAT WAT WAT WAT WAT WAT WAT WAT WAT WAT WAT WAT WAT WAT WAT WAT 
WAT WAT WAT WAT WAT WAT WAT WAT WAT WAT WAT WAT WAT WAT WAT WAT WAT WAT WAT WAT 
WAT WAT WAT WAT WAT WAT WAT WAT WAT WAT WAT WAT WAT WAT WAT WAT WAT WAT WAT WAT 
WAT WAT WAT WAT WAT WAT WAT WAT WAT WAT WAT WAT WAT WAT WAT WAT WAT WAT WAT WAT 
WAT WAT WAT WAT WAT WAT WAT WAT WAT WAT WAT WAT WAT WAT WAT WAT WAT WAT WAT WAT 
WAT WAT WAT WAT WAT WAT WAT WAT WAT WAT WAT WAT WAT WAT WAT WAT WAT WAT WAT WAT 
WAT WAT WAT WAT WAT WAT WAT WAT WAT WAT WAT WAT WAT WAT WAT WAT WAT WAT WAT WAT 
WAT WAT WAT WAT WAT WAT WAT WAT WAT WAT WAT WAT WAT WAT WAT WAT WAT WAT WAT WAT 
WAT WAT WAT WAT WAT WAT WAT WAT WAT WAT WAT WAT WAT WAT WAT WAT WAT WAT WAT WAT 
WAT WAT WAT WAT WAT WAT WAT WAT WAT WAT WAT WAT WAT WAT WAT WAT WAT WAT WAT WAT 
WAT WAT WAT WAT WAT WAT WAT WAT WAT WAT WAT WAT WAT WAT WAT WAT WAT WAT WAT WAT 
WAT WAT WAT WAT WAT WAT WAT WAT WAT WAT WAT WAT WAT WAT WAT WAT WAT WAT WAT WAT 
WAT WAT WAT WAT WAT WAT WAT WAT WAT WAT WAT WAT WAT WAT WAT WAT WAT WAT WAT WAT 
WAT WAT WAT WAT WAT WAT WAT WAT WAT WAT WAT WAT WAT WAT WAT WAT WAT WAT WAT WAT 
WAT WAT WAT WAT WAT WAT WAT WAT WAT WAT WAT WAT WAT WAT WAT WAT WAT WAT WAT WAT 
WAT WAT WAT WAT WAT WAT WAT WAT WAT WAT WAT WAT WAT WAT WAT WAT WAT WAT WAT WAT 
WAT WAT WAT WAT WAT WAT WAT WAT WAT WAT WAT WAT WAT WAT WAT WAT WAT WAT WAT WAT 
WAT WAT WAT WAT WAT WAT WAT WAT WAT WAT WAT WAT WAT WAT WAT WAT WAT WAT WAT WAT 
WAT WAT WAT WAT WAT WAT WAT WAT WAT WAT WAT WAT WAT WAT WAT WAT WAT WAT WAT WAT 
WAT WAT WAT WAT WAT WAT WAT WAT WAT WAT WAT WAT WAT WAT WAT WAT WAT WAT WAT WAT 
WAT WAT WAT WAT WAT WAT WAT WAT WAT WAT WAT WAT WAT WAT WAT WAT WAT WAT WAT WAT 
WAT WAT WAT WAT WAT WAT WAT WAT WAT WAT WAT WAT WAT WAT WAT WAT WAT WAT WAT WAT 
WAT WAT WAT WAT WAT WAT WAT WAT WAT WAT WAT WAT WAT WAT WAT WAT WAT WAT WAT WAT 
WAT WAT WAT WAT WAT WAT WAT WAT WAT WAT WAT WAT WAT WAT WAT WAT WAT WAT WAT WAT 
WAT WAT WAT WAT WAT WAT WAT WAT WAT WAT WAT WAT WAT WAT WAT WAT WAT WAT WAT WAT 
WAT WAT WAT WAT WAT WAT WAT WAT WAT WAT WAT WAT WAT WAT WAT WAT WAT WAT WAT WAT 
WAT WAT WAT WAT WAT WAT WAT WAT WAT WAT WAT WAT WAT WAT WAT WAT WAT WAT WAT WAT 
WAT WAT WAT WAT WAT WAT WAT WAT WAT WAT WAT WAT WAT WAT WAT WAT WAT WAT WAT WAT 
WAT WAT WAT WAT WAT WAT WAT WAT WAT WAT WAT WAT WAT WAT WAT WAT WAT WAT WAT WAT 
WAT WAT WAT WAT WAT WAT WAT WAT WAT WAT WAT WAT WAT WAT WAT WAT WAT WAT WAT WAT 
WAT WAT WAT WAT WAT WAT WAT WAT WAT WAT WAT WAT WAT WAT WAT WAT WAT WAT WAT WAT 
WAT WAT WAT WAT WAT WAT WAT WAT WAT WAT WAT WAT WAT WAT WAT WAT WAT WAT WAT WAT 
WAT WAT WAT WAT WAT WAT WAT WAT WAT WAT WAT WAT WAT WAT WAT WAT WAT WAT WAT WAT 
WAT WAT WAT WAT WAT WAT WAT WAT WAT WAT WAT WAT WAT WAT WAT WAT WAT WAT WAT WAT 
WAT WAT WAT WAT WAT WAT WAT WAT WAT WAT WAT WAT WAT WAT WAT WAT WAT WAT WAT WAT 
WAT WAT WAT WAT WAT WAT WAT WAT WAT WAT WAT WAT WAT WAT WAT WAT WAT WAT WAT WAT 
WAT WAT WAT WAT WAT WAT WAT WAT WAT WAT WAT WAT WAT WAT WAT WAT WAT WAT WAT WAT 
WAT WAT WAT WAT WAT WAT WAT WAT WAT WAT WAT WAT WAT WAT WAT WAT WAT WAT WAT WAT 
WAT WAT WAT WAT WAT WAT WAT WAT WAT WAT WAT WAT WAT WAT WAT WAT WAT WAT WAT WAT 
WAT WAT WAT WAT WAT WAT WAT WAT WAT WAT WAT WAT WAT WAT WAT WAT WAT WAT WAT WAT 
WAT WAT WAT WAT WAT WAT WAT WAT WAT WAT WAT WAT WAT WAT WAT WAT WAT WAT WAT WAT 
WAT WAT WAT WAT WAT WAT WAT WAT WAT WAT WAT WAT WAT WAT WAT WAT WAT WAT WAT WAT 
WAT WAT WAT WAT WAT WAT WAT WAT WAT WAT WAT WAT WAT WAT WAT WAT WAT WAT WAT WAT 
WAT WAT WAT WAT WAT WAT WAT WAT WAT WAT WAT WAT WAT WAT WAT WAT WAT WAT WAT WAT 
WAT WAT WAT WAT WAT WAT WAT WAT WAT WAT WAT WAT WAT WAT WAT WAT WAT WAT WAT WAT 
WAT WAT WAT WAT WAT WAT WAT WAT WAT WAT WAT WAT WAT WAT WAT WAT WAT WAT WAT WAT 
WAT WAT WAT WAT WAT WAT WAT WAT WAT WAT WAT WAT WAT WAT WAT WAT WAT WAT WAT WAT 
WAT WAT WAT WAT WAT WAT WAT WAT WAT WAT WAT WAT WAT WAT WAT WAT WAT WAT WAT WAT 
WAT WAT WAT WAT WAT WAT WAT WAT WAT WAT WAT WAT WAT WAT WAT WAT WAT WAT WAT WAT 
WAT WAT WAT WAT WAT WAT WAT WAT WAT WAT WAT WAT WAT WAT WAT WAT WAT WAT WAT WAT 
WAT WAT WAT WAT WAT WAT WAT WAT WAT WAT WAT WAT WAT WAT WAT WAT WAT WAT WAT WAT 
WAT WAT WAT WAT WAT WAT WAT WAT WAT WAT WAT WAT WAT WAT WAT WAT WAT WAT WAT WAT 
WAT WAT WAT WAT WAT WAT WAT WAT WAT WAT WAT WAT WAT WAT WAT WAT WAT WAT WAT WAT 
WAT WAT WAT WAT WAT WAT WAT WAT WAT WAT WAT WAT WAT WAT WAT WAT WAT WAT WAT WAT 
WAT WAT WAT WAT WAT WAT WAT WAT WAT WAT WAT WAT WAT WAT WAT WAT WAT WAT WAT WAT 
WAT WAT WAT WAT WAT WAT WAT WAT WAT WAT WAT WAT WAT WAT WAT WAT WAT WAT WAT WAT 
WAT WAT WAT WAT WAT WAT WAT WAT WAT WAT WAT WAT WAT WAT WAT WAT WAT WAT WAT WAT 
WAT WAT WAT WAT WAT WAT WAT WAT WAT WAT WAT WAT WAT WAT WAT WAT WAT WAT WAT WAT 
WAT WAT WAT WAT WAT WAT WAT WAT WAT WAT WAT WAT WAT WAT WAT WAT WAT WAT WAT WAT 
WAT WAT WAT WAT WAT WAT WAT WAT WAT WAT WAT WAT WAT WAT WAT WAT WAT WAT WAT WAT 
WAT WAT WAT WAT WAT WAT WAT WAT WAT WAT WAT WAT WAT WAT WAT WAT WAT WAT WAT WAT 
WAT WAT WAT WAT WAT WAT WAT WAT WAT WAT WAT WAT WAT WAT WAT WAT WAT WAT WAT WAT 
WAT WAT WAT WAT WAT WAT WAT WAT WAT WAT WAT WAT WAT WAT WAT WAT WAT WAT WAT WAT 
WAT WAT WAT WAT WAT WAT WAT WAT WAT WAT WAT WAT WAT WAT WAT WAT WAT WAT WAT WAT 
WAT WAT WAT WAT WAT WAT WAT WAT WAT WAT WAT WAT WAT WAT WAT WAT WAT WAT WAT WAT 
WAT WAT WAT WAT WAT WAT WAT WAT WAT WAT WAT WAT WAT WAT WAT WAT WAT WAT WAT WAT 
WAT WAT WAT WAT WAT WAT WAT WAT WAT WAT WAT WAT WAT WAT WAT WAT WAT WAT WAT WAT 
WAT WAT WAT WAT WAT WAT WAT WAT WAT WAT WAT WAT WAT WAT WAT WAT WAT WAT WAT WAT 
WAT WAT WAT WAT WAT WAT WAT WAT WAT WAT WAT WAT WAT WAT WAT WAT WAT WAT WAT WAT 
WAT WAT WAT WAT WAT WAT WAT WAT WAT WAT WAT WAT WAT WAT WAT WAT WAT WAT WAT WAT 
WAT WAT WAT WAT WAT WAT WAT WAT WAT WAT WAT WAT WAT WAT WAT WAT WAT WAT WAT WAT 
WAT WAT WAT WAT WAT WAT WAT WAT WAT WAT WAT WAT WAT WAT WAT WAT WAT WAT WAT WAT 
WAT WAT WAT WAT WAT WAT WAT WAT WAT WAT WAT WAT WAT WAT WAT WAT WAT WAT WAT WAT 
WAT WAT WAT WAT WAT WAT WAT WAT WAT WAT WAT WAT WAT WAT WAT WAT WAT WAT WAT WAT 
WAT WAT WAT WAT WAT WAT WAT WAT WAT WAT WAT WAT WAT WAT WAT WAT WAT WAT WAT WAT 
WAT WAT WAT WAT WAT WAT WAT WAT WAT WAT WAT WAT WAT WAT WAT WAT WAT WAT WAT WAT 
WAT WAT WAT WAT WAT WAT WAT WAT WAT WAT WAT WAT WAT WAT WAT WAT WAT WAT WAT WAT 
WAT WAT WAT WAT WAT WAT WAT WAT WAT WAT WAT WAT WAT WAT WAT WAT WAT WAT WAT WAT 
WAT WAT WAT WAT WAT WAT WAT WAT WAT WAT WAT WAT WAT WAT WAT WAT WAT WAT WAT WAT 
WAT WAT WAT WAT WAT WAT WAT WAT WAT WAT WAT WAT WAT WAT WAT WAT WAT WAT WAT WAT 
WAT WAT WAT WAT WAT WAT WAT WAT WAT WAT WAT WAT WAT WAT WAT WAT WAT WAT WAT WAT 
WAT WAT WAT WAT WAT WAT WAT WAT WAT WAT WAT WAT WAT WAT WAT WAT WAT WAT WAT WAT 
WAT WAT WAT WAT WAT WAT WAT WAT WAT WAT WAT WAT WAT WAT WAT WAT WAT WAT WAT WAT 
WAT WAT WAT WAT WAT WAT WAT WAT WAT WAT WAT WAT WAT WAT WAT WAT WAT WAT WAT WAT 
WAT WAT WAT WAT WAT WAT WAT WAT WAT WAT WAT WAT WAT WAT WAT WAT WAT WAT WAT WAT 
WAT WAT WAT WAT WAT WAT WAT WAT WAT WAT WAT WAT WAT WAT WAT WAT WAT WAT WAT WAT 
WAT WAT WAT WAT WAT WAT WAT WAT WAT WAT WAT WAT WAT WAT WAT WAT WAT WAT WAT WAT 
WAT WAT WAT WAT WAT WAT WAT WAT WAT WAT WAT WAT WAT WAT WAT WAT WAT WAT WAT WAT 
WAT WAT WAT WAT WAT WAT WAT WAT WAT WAT WAT WAT WAT WAT WAT WAT WAT WAT WAT WAT 
WAT WAT WAT WAT WAT WAT WAT WAT WAT WAT WAT WAT WAT WAT WAT WAT WAT WAT WAT WAT 
WAT WAT WAT WAT WAT WAT WAT WAT WAT WAT WAT WAT WAT WAT WAT WAT WAT WAT WAT WAT 
WAT WAT WAT WAT WAT WAT WAT WAT WAT WAT WAT WAT WAT WAT WAT WAT WAT WAT WAT WAT 
WAT WAT WAT WAT WAT WAT WAT WAT WAT WAT WAT WAT WAT WAT WAT WAT WAT WAT WAT WAT 
WAT WAT WAT WAT WAT WAT WAT WAT WAT WAT WAT WAT WAT WAT WAT WAT WAT WAT WAT WAT 
WAT WAT WAT WAT WAT WAT WAT WAT WAT WAT WAT WAT WAT WAT WAT WAT WAT WAT WAT WAT 
WAT WAT WAT WAT WAT WAT WAT WAT WAT WAT WAT WAT WAT WAT WAT WAT WAT WAT WAT WAT 
WAT WAT WAT WAT WAT WAT WAT WAT WAT WAT WAT WAT WAT WAT WAT WAT WAT WAT WAT WAT 
WAT WAT WAT WAT WAT WAT WAT WAT WAT WAT WAT WAT WAT WAT WAT WAT WAT WAT WAT WAT 
WAT WAT WAT WAT WAT WAT WAT WAT WAT WAT WAT WAT WAT WAT WAT WAT WAT WAT WAT WAT 
WAT WAT WAT WAT WAT WAT WAT WAT WAT WAT WAT WAT WAT WAT WAT WAT WAT WAT WAT WAT 
WAT WAT WAT WAT WAT WAT WAT WAT WAT WAT WAT WAT WAT WAT WAT WAT WAT WAT WAT WAT 
WAT WAT WAT WAT WAT WAT WAT WAT WAT WAT WAT WAT WAT WAT WAT WAT WAT WAT WAT WAT 
WAT WAT WAT WAT WAT WAT WAT WAT WAT WAT WAT WAT WAT WAT WAT WAT WAT WAT WAT WAT 
WAT WAT WAT WAT WAT WAT WAT WAT WAT WAT WAT WAT WAT WAT WAT WAT WAT WAT WAT WAT 
WAT WAT WAT WAT WAT WAT WAT WAT WAT WAT WAT WAT WAT WAT WAT WAT WAT WAT WAT WAT 
WAT WAT WAT WAT WAT WAT WAT WAT WAT WAT WAT WAT WAT WAT WAT WAT WAT WAT WAT WAT 
WAT WAT WAT WAT WAT WAT WAT WAT WAT WAT WAT WAT WAT WAT WAT WAT WAT WAT WAT WAT 
WAT WAT WAT WAT WAT WAT WAT WAT WAT WAT WAT WAT WAT WAT WAT WAT WAT WAT WAT WAT 
WAT WAT WAT WAT WAT WAT WAT WAT WAT WAT WAT WAT WAT WAT WAT WAT WAT WAT WAT WAT 
WAT WAT WAT WAT WAT WAT WAT WAT WAT WAT WAT WAT WAT WAT WAT WAT WAT WAT WAT WAT 
WAT WAT WAT WAT WAT WAT WAT WAT WAT WAT WAT WAT WAT WAT WAT WAT WAT WAT WAT WAT 
WAT WAT WAT WAT WAT WAT WAT WAT WAT WAT WAT WAT WAT WAT WAT WAT WAT WAT WAT WAT 
WAT WAT WAT WAT WAT WAT WAT WAT WAT WAT WAT WAT WAT WAT WAT WAT WAT WAT WAT WAT 
WAT WAT WAT WAT WAT WAT WAT WAT WAT WAT WAT WAT WAT WAT WAT WAT WAT WAT WAT WAT 
WAT WAT WAT WAT WAT WAT WAT WAT WAT WAT WAT WAT WAT WAT WAT WAT WAT WAT WAT WAT 
WAT WAT WAT WAT WAT WAT WAT WAT WAT WAT WAT WAT WAT WAT WAT WAT WAT WAT WAT WAT 
WAT WAT WAT WAT WAT WAT WAT WAT WAT WAT WAT WAT WAT WAT WAT WAT WAT WAT WAT WAT 
WAT WAT WAT WAT WAT WAT WAT WAT WAT WAT WAT WAT WAT WAT WAT WAT WAT WAT WAT WAT 
WAT WAT WAT WAT WAT WAT WAT WAT WAT WAT WAT WAT WAT WAT WAT WAT WAT WAT WAT WAT 
WAT WAT WAT WAT WAT WAT WAT WAT WAT WAT WAT WAT WAT WAT WAT WAT WAT WAT WAT WAT 
WAT WAT WAT WAT WAT WAT WAT WAT WAT WAT WAT WAT WAT WAT WAT WAT WAT WAT WAT WAT 
WAT WAT WAT WAT WAT WAT WAT WAT WAT WAT WAT WAT WAT WAT WAT WAT WAT WAT WAT WAT 
WAT WAT WAT WAT WAT WAT WAT WAT WAT WAT WAT WAT WAT WAT WAT WAT WAT WAT WAT WAT 
WAT WAT WAT WAT WAT WAT WAT WAT WAT WAT WAT WAT WAT WAT WAT WAT WAT WAT WAT WAT 
WAT WAT WAT WAT WAT WAT WAT WAT WAT WAT WAT WAT WAT WAT WAT WAT WAT WAT WAT WAT 
WAT WAT WAT WAT WAT WAT WAT WAT WAT WAT WAT WAT WAT WAT WAT WAT WAT WAT WAT WAT 
WAT WAT WAT WAT WAT WAT WAT WAT WAT WAT WAT WAT WAT WAT WAT WAT WAT WAT WAT WAT 
WAT WAT WAT WAT WAT WAT WAT WAT WAT WAT WAT WAT WAT WAT WAT WAT WAT WAT WAT WAT 
WAT WAT WAT WAT WAT WAT WAT WAT WAT WAT WAT WAT WAT WAT WAT WAT WAT WAT WAT WAT 
WAT WAT WAT WAT WAT WAT WAT WAT WAT WAT WAT WAT WAT WAT WAT WAT WAT WAT WAT WAT 
WAT WAT WAT WAT WAT WAT WAT WAT WAT WAT WAT WAT WAT WAT WAT WAT WAT WAT WAT WAT 
WAT WAT WAT WAT WAT WAT WAT WAT WAT WAT WAT WAT WAT WAT WAT WAT WAT WAT WAT WAT 
WAT WAT WAT WAT WAT WAT WAT WAT WAT WAT WAT WAT WAT WAT WAT WAT WAT WAT WAT WAT 
WAT WAT WAT WAT WAT WAT WAT WAT WAT WAT WAT WAT WAT WAT WAT WAT WAT WAT WAT WAT 
WAT WAT WAT WAT WAT WAT WAT WAT WAT WAT WAT WAT WAT WAT WAT WAT WAT WAT WAT WAT 
WAT WAT WAT WAT WAT WAT WAT WAT WAT WAT WAT WAT WAT WAT WAT WAT WAT WAT WAT WAT 
WAT WAT WAT WAT WAT WAT WAT WAT WAT WAT WAT WAT WAT WAT WAT WAT WAT WAT WAT WAT 
WAT WAT WAT WAT WAT WAT WAT WAT WAT WAT WAT WAT WAT WAT WAT WAT WAT WAT WAT WAT 
WAT WAT WAT WAT WAT WAT WAT WAT WAT WAT WAT WAT WAT WAT WAT WAT WAT WAT WAT WAT 
WAT WAT WAT WAT WAT WAT WAT WAT WAT WAT WAT WAT WAT WAT WAT WAT WAT WAT WAT WAT 
WAT WAT WAT WAT WAT WAT WAT WAT WAT WAT WAT WAT WAT WAT WAT WAT WAT WAT WAT WAT 
WAT WAT WAT WAT WAT WAT WAT WAT WAT WAT WAT WAT WAT WAT WAT WAT WAT WAT WAT WAT 
WAT WAT WAT WAT WAT WAT WAT WAT WAT WAT WAT WAT WAT WAT WAT WAT WAT WAT WAT WAT 
WAT WAT WAT WAT WAT WAT WAT WAT WAT WAT WAT WAT WAT WAT WAT WAT WAT WAT WAT WAT 
WAT WAT WAT WAT WAT WAT WAT WAT WAT WAT WAT WAT WAT WAT WAT WAT WAT WAT WAT WAT 
WAT WAT WAT WAT WAT WAT WAT WAT WAT WAT WAT WAT WAT WAT WAT WAT WAT WAT WAT WAT 
WAT WAT WAT WAT WAT WAT WAT 
%FLAG RESIDUE_POINTER                                                           
%FORMAT(10I8)                                                                   
       1       7      31      47      61      78     102     127     137     144
     163     178     189     213     224     231     238     254     270     292
     306     320     340     356     370     384     396     412     419     433
     453     463     483     486     487     488     489     490     491     492
     493     494     495     496     497     498     499     500     501     502
     503     504     505     506     507     508     509     510     511     512
     513     514     515     516     517     518     519     520     521     522
     523     524     525     526     527     528     529     530     534     538
     542     546     550     554     558     562     566     570     574     578
     582     586     590     594     598     602     606     610     614     618
     622     626     630     634     638     642     646     650     654     658
     662     666     670     674     678     682     686     690     694     698
     702     706     710     714     718     722     726     730     734     738
     742     746     750     754     758     762     766     770     774     778
     782     786     790     794     798     802     806     810     814     818
     822     826     830     834     838     842     846     850     854     858
     862     866     870     874     878     882     886     890     894     898
     902     906     910     914     918     922     926     930     934     938
     942     946     950     954     958     962     966     970     974     978
     982     986     990     994     998    1002    1006    1010    1014    1018
    1022    1026    1030    1034    1038    1042    1046    1050    1054    1058
    1062    1066    1070    1074    1078    1082    1086    1090    1094    1098
    1102    1106    1110    1114    1118    1122    1126    1130    1134    1138
    1142    1146    1150    1154    1158    1162    1166    1170    1174    1178
    1182    1186    1190    1194    1198    1202    1206    1210    1214    1218
    1222    1226    1230    1234    1238    1242    1246    1250    1254    1258
    1262    1266    1270    1274    1278    1282    1286    1290    1294    1298
    1302    1306    1310    1314    1318    1322    1326    1330    1334    1338
    1342    1346    1350    1354    1358    1362    1366    1370    1374    1378
    1382    1386    1390    1394    1398    1402    1406    1410    1414    1418
    1422    1426    1430    1434    1438    1442    1446    1450    1454    1458
    1462    1466    1470    1474    1478    1482    1486    1490    1494    1498
    1502    1506    1510    1514    1518    1522    1526    1530    1534    1538
    1542    1546    1550    1554    1558    1562    1566    1570    1574    1578
    1582    1586    1590    1594    1598    1602    1606    1610    1614    1618
    1622    1626    1630    1634    1638    1642    1646    1650    1654    1658
    1662    1666    1670    1674    1678    1682    1686    1690    1694    1698
    1702    1706    1710    1714    1718    1722    1726    1730    1734    1738
    1742    1746    1750    1754    1758    1762    1766    1770    1774    1778
    1782    1786    1790    1794    1798    1802    1806    1810    1814    1818
    1822    1826    1830    1834    1838    1842    1846    1850    1854    1858
    1862    1866    1870    1874    1878    1882    1886    1890    1894    1898
    1902    1906    1910    1914    1918    1922    1926    1930    1934    1938
    1942    1946    1950    1954    1958    1962    1966    1970    1974    1978
    1982    1986    1990    1994    1998    2002    2006    2010    2014    2018
    2022    2026    2030    2034    2038    2042    2046    2050    2054    2058
    2062    2066    2070    2074    2078    2082    2086    2090    2094    2098
    2102    2106    2110    2114    2118    2122    2126    2130    2134    2138
    2142    2146    2150    2154    2158    2162    2166    2170    2174    2178
    2182    2186    2190    2194    2198    2202    2206    2210    2214    2218
    2222    2226    2230    2234    2238    2242    2246    2250    2254    2258
    2262    2266    2270    2274    2278    2282    2286    2290    2294    2298
    2302    2306    2310    2314    2318    2322    2326    2330    2334    2338
    2342    2346    2350    2354    2358    2362    2366    2370    2374    2378
    2382    2386    2390    2394    2398    2402    2406    2410    2414    2418
    2422    2426    2430    2434    2438    2442    2446    2450    2454    2458
    2462    2466    2470    2474    2478    2482    2486    2490    2494    2498
    2502    2506    2510    2514    2518    2522    2526    2530    2534    2538
    2542    2546    2550    2554    2558    2562    2566    2570    2574    2578
    2582    2586    2590    2594    2598    2602    2606    2610    2614    2618
    2622    2626    2630    2634    2638    2642    2646    2650    2654    2658
    2662    2666    2670    2674    2678    2682    2686    2690    2694    2698
    2702    2706    2710    2714    2718    2722    2726    2730    2734    2738
    2742    2746    2750    2754    2758    2762    2766    2770    2774    2778
    2782    2786    2790    2794    2798    2802    2806    2810    2814    2818
    2822    2826    2830    2834    2838    2842    2846    2850    2854    2858
    2862    2866    2870    2874    2878    2882    2886    2890    2894    2898
    2902    2906    2910    2914    2918    2922    2926    2930    2934    2938
    2942    2946    2950    2954    2958    2962    2966    2970    2974    2978
    2982    2986    2990    2994    2998    3002    3006    3010    3014    3018
    3022    3026    3030    3034    3038    3042    3046    3050    3054    3058
    3062    3066    3070    3074    3078    3082    3086    3090    3094    3098
    3102    3106    3110    3114    3118    3122    3126    3130    3134    3138
    3142    3146    3150    3154    3158    3162    3166    3170    3174    3178
    3182    3186    3190    3194    3198    3202    3206    3210    3214    3218
    3222    3226    3230    3234    3238    3242    3246    3250    3254    3258
    3262    3266    3270    3274    3278    3282    3286    3290    3294    3298
    3302    3306    3310    3314    3318    3322    3326    3330    3334    3338
    3342    3346    3350    3354    3358    3362    3366    3370    3374    3378
    3382    3386    3390    3394    3398    3402    3406    3410    3414    3418
    3422    3426    3430    3434    3438    3442    3446    3450    3454    3458
    3462    3466    3470    3474    3478    3482    3486    3490    3494    3498
    3502    3506    3510    3514    3518    3522    3526    3530    3534    3538
    3542    3546    3550    3554    3558    3562    3566    3570    3574    3578
    3582    3586    3590    3594    3598    3602    3606    3610    3614    3618
    3622    3626    3630    3634    3638    3642    3646    3650    3654    3658
    3662    3666    3670    3674    3678    3682    3686    3690    3694    3698
    3702    3706    3710    3714    3718    3722    3726    3730    3734    3738
    3742    3746    3750    3754    3758    3762    3766    3770    3774    3778
    3782    3786    3790    3794    3798    3802    3806    3810    3814    3818
    3822    3826    3830    3834    3838    3842    3846    3850    3854    3858
    3862    3866    3870    3874    3878    3882    3886    3890    3894    3898
    3902    3906    3910    3914    3918    3922    3926    3930    3934    3938
    3942    3946    3950    3954    3958    3962    3966    3970    3974    3978
    3982    3986    3990    3994    3998    4002    4006    4010    4014    4018
    4022    4026    4030    4034    4038    4042    4046    4050    4054    4058
    4062    4066    4070    4074    4078    4082    4086    4090    4094    4098
    4102    4106    4110    4114    4118    4122    4126    4130    4134    4138
    4142    4146    4150    4154    4158    4162    4166    4170    4174    4178
    4182    4186    4190    4194    4198    4202    4206    4210    4214    4218
    4222    4226    4230    4234    4238    4242    4246    4250    4254    4258
    4262    4266    4270    4274    4278    4282    4286    4290    4294    4298
    4302    4306    4310    4314    4318    4322    4326    4330    4334    4338
    4342    4346    4350    4354    4358    4362    4366    4370    4374    4378
    4382    4386    4390    4394    4398    4402    4406    4410    4414    4418
    4422    4426    4430    4434    4438    4442    4446    4450    4454    4458
    4462    4466    4470    4474    4478    4482    4486    4490    4494    4498
    4502    4506    4510    4514    4518    4522    4526    4530    4534    4538
    4542    4546    4550    4554    4558    4562    4566    4570    4574    4578
    4582    4586    4590    4594    4598    4602    4606    4610    4614    4618
    4622    4626    4630    4634    4638    4642    4646    4650    4654    4658
    4662    4666    4670    4674    4678    4682    4686    4690    4694    4698
    4702    4706    4710    4714    4718    4722    4726    4730    4734    4738
    4742    4746    4750    4754    4758    4762    4766    4770    4774    4778
    4782    4786    4790    4794    4798    4802    4806    4810    4814    4818
    4822    4826    4830    4834    4838    4842    4846    4850    4854    4858
    4862    4866    4870    4874    4878    4882    4886    4890    4894    4898
    4902    4906    4910    4914    4918    4922    4926    4930    4934    4938
    4942    4946    4950    4954    4958    4962    4966    4970    4974    4978
    4982    4986    4990    4994    4998    5002    5006    5010    5014    5018
    5022    5026    5030    5034    5038    5042    5046    5050    5054    5058
    5062    5066    5070    5074    5078    5082    5086    5090    5094    5098
    5102    5106    5110    5114    5118    5122    5126    5130    5134    5138
    5142    5146    5150    5154    5158    5162    5166    5170    5174    5178
    5182    5186    5190    5194    5198    5202    5206    5210    5214    5218
    5222    5226    5230    5234    5238    5242    5246    5250    5254    5258
    5262    5266    5270    5274    5278    5282    5286    5290    5294    5298
    5302    5306    5310    5314    5318    5322    5326    5330    5334    5338
    5342    5346    5350    5354    5358    5362    5366    5370    5374    5378
    5382    5386    5390    5394    5398    5402    5406    5410    5414    5418
    5422    5426    5430    5434    5438    5442    5446    5450    5454    5458
    5462    5466    5470    5474    5478    5482    5486    5490    5494    5498
    5502    5506    5510    5514    5518    5522    5526    5530    5534    5538
    5542    5546    5550    5554    5558    5562    5566    5570    5574    5578
    5582    5586    5590    5594    5598    5602    5606    5610    5614    5618
    5622    5626    5630    5634    5638    5642    5646    5650    5654    5658
    5662    5666    5670    5674    5678    5682    5686    5690    5694    5698
    5702    5706    5710    5714    5718    5722    5726    5730    5734    5738
    5742    5746    5750    5754    5758    5762    5766    5770    5774    5778
    5782    5786    5790    5794    5798    5802    5806    5810    5814    5818
    5822    5826    5830    5834    5838    5842    5846    5850    5854    5858
    5862    5866    5870    5874    5878    5882    5886    5890    5894    5898
    5902    5906    5910    5914    5918    5922    5926    5930    5934    5938
    5942    5946    5950    5954    5958    5962    5966    5970    5974    5978
    5982    5986    5990    5994    5998    6002    6006    6010    6014    6018
    6022    6026    6030    6034    6038    6042    6046    6050    6054    6058
    6062    6066    6070    6074    6078    6082    6086    6090    6094    6098
    6102    6106    6110    6114    6118    6122    6126    6130    6134    6138
    6142    6146    6150    6154    6158    6162    6166    6170    6174    6178
    6182    6186    6190    6194    6198    6202    6206    6210    6214    6218
    6222    6226    6230    6234    6238    6242    6246    6250    6254    6258
    6262    6266    6270    6274    6278    6282    6286    6290    6294    6298
    6302    6306    6310    6314    6318    6322    6326    6330    6334    6338
    6342    6346    6350    6354    6358    6362    6366    6370    6374    6378
    6382    6386    6390    6394    6398    6402    6406    6410    6414    6418
    6422    6426    6430    6434    6438    6442    6446    6450    6454    6458
    6462    6466    6470    6474    6478    6482    6486    6490    6494    6498
    6502    6506    6510    6514    6518    6522    6526    6530    6534    6538
    6542    6546    6550    6554    6558    6562    6566    6570    6574    6578
    6582    6586    6590    6594    6598    6602    6606    6610    6614    6618
    6622    6626    6630    6634    6638    6642    6646    6650    6654    6658
    6662    6666    6670    6674    6678    6682    6686    6690    6694    6698
    6702    6706    6710    6714    6718    6722    6726    6730    6734    6738
    6742    6746    6750    6754    6758    6762    6766    6770    6774    6778
    6782    6786    6790    6794    6798    6802    6806    6810    6814    6818
    6822    6826    6830    6834    6838    6842    6846    6850    6854    6858
    6862    6866    6870    6874    6878    6882    6886    6890    6894    6898
    6902    6906    6910    6914    6918    6922    6926    6930    6934    6938
    6942    6946    6950    6954    6958    6962    6966    6970    6974    6978
    6982    6986    6990    6994    6998    7002    7006    7010    7014    7018
    7022    7026    7030    7034    7038    7042    7046    7050    7054    7058
    7062    7066    7070    7074    7078    7082    7086    7090    7094    7098
    7102    7106    7110    7114    7118    7122    7126    7130    7134    7138
    7142    7146    7150    7154    7158    7162    7166    7170    7174    7178
    7182    7186    7190    7194    7198    7202    7206    7210    7214    7218
    7222    7226    7230    7234    7238    7242    7246    7250    7254    7258
    7262    7266    7270    7274    7278    7282    7286    7290    7294    7298
    7302    7306    7310    7314    7318    7322    7326    7330    7334    7338
    7342    7346    7350    7354    7358    7362    7366    7370    7374    7378
    7382    7386    7390    7394    7398    7402    7406    7410    7414    7418
    7422    7426    7430    7434    7438    7442    7446    7450    7454    7458
    7462    7466    7470    7474    7478    7482    7486    7490    7494    7498
    7502    7506    7510    7514    7518    7522    7526    7530    7534    7538
    7542    7546    7550    7554    7558    7562    7566    7570    7574    7578
    7582    7586    7590    7594    7598    7602    7606    7610    7614    7618
    7622    7626    7630    7634    7638    7642    7646    7650    7654    7658
    7662    7666    7670    7674    7678    7682    7686    7690    7694    7698
    7702    7706    7710    7714    7718    7722    7726    7730    7734    7738
    7742    7746    7750    7754    7758    7762    7766    7770    7774    7778
    7782    7786    7790    7794    7798    7802    7806    7810    7814    7818
    7822    7826    7830    7834    7838    7842    7846    7850    7854    7858
    7862    7866    7870    7874    7878    7882    7886    7890    7894    7898
    7902    7906    7910    7914    7918    7922    7926    7930    7934    7938
    7942    7946    7950    7954    7958    7962    7966    7970    7974    7978
    7982    7986    7990    7994    7998    8002    8006    8010    8014    8018
    8022    8026    8030    8034    8038    8042    8046    8050    8054    8058
    8062    8066    8070    8074    8078    8082    8086    8090    8094    8098
    8102    8106    8110    8114    8118    8122    8126    8130    8134    8138
    8142    8146    8150    8154    8158    8162    8166    8170    8174    8178
    8182    8186    8190    8194    8198    8202    8206    8210    8214    8218
    8222    8226    8230    8234    8238    8242    8246    8250    8254    8258
    8262    8266    8270    8274    8278    8282    8286    8290    8294    8298
    8302    8306    8310    8314    8318    8322    8326    8330    8334    8338
    8342    8346    8350    8354    8358    8362    8366    8370    8374    8378
    8382    8386    8390    8394    8398    8402    8406    8410    8414    8418
    8422    8426    8430    8434    8438    8442    8446    8450    8454    8458
    8462    8466    8470    8474    8478    8482    8486    8490    8494    8498
    8502    8506    8510    8514    8518    8522    8526    8530    8534    8538
    8542    8546    8550    8554    8558    8562    8566    8570    8574    8578
    8582    8586    8590    8594    8598    8602    8606    8610    8614    8618
    8622    8626    8630    8634    8638    8642    8646    8650    8654    8658
    8662    8666    8670    8674    8678    8682    8686    8690    8694    8698
    8702    8706    8710    8714    8718    8722    8726    8730    8734    8738
    8742    8746    8750    8754    8758    8762    8766    8770    8774    8778
    8782    8786    8790    8794    8798    8802    8806    8810    8814    8818
    8822    8826    8830    8834    8838    8842    8846    8850    8854    8858
    8862    8866    8870    8874    8878    8882    8886    8890    8894    8898
    8902    8906    8910    8914    8918    8922    8926    8930    8934    8938
    8942    8946    8950    8954    8958    8962    8966    8970    8974    8978
    8982    8986    8990    8994    8998    9002    9006    9010    9014    9018
    9022    9026    9030    9034    9038    9042    9046    9050    9054    9058
    9062    9066    9070    9074    9078    9082    9086    9090    9094    9098
    9102    9106    9110    9114    9118    9122    9126    9130    9134    9138
    9142    9146    9150    9154    9158    9162    9166    9170    9174    9178
    9182    9186    9190    9194    9198    9202    9206    9210    9214    9218
    9222    9226    9230    9234    9238    9242    9246    9250    9254    9258
    9262    9266    9270    9274    9278    9282    9286    9290    9294    9298
    9302    9306    9310    9314    9318    9322    9326    9330    9334    9338
    9342    9346    9350    9354    9358    9362    9366    9370    9374    9378
    9382    9386    9390    9394    9398    9402    9406    9410    9414    9418
    9422    9426    9430    9434    9438    9442    9446    9450    9454    9458
    9462    9466    9470    9474    9478    9482    9486    9490    9494    9498
    9502    9506    9510    9514    9518    9522    9526    9530    9534    9538
    9542    9546    9550    9554    9558    9562    9566    9570    9574    9578
    9582    9586    9590    9594    9598    9602    9606    9610    9614    9618
    9622    9626    9630    9634    9638    9642    9646    9650    9654    9658
    9662    9666    9670    9674    9678    9682    9686    9690    9694    9698
    9702    9706    9710    9714    9718    9722    9726    9730    9734    9738
    9742    9746    9750    9754    9758    9762    9766    9770    9774    9778
    9782    9786    9790    9794    9798    9802    9806    9810    9814    9818
    9822    9826    9830    9834    9838    9842    9846    9850    9854    9858
    9862    9866    9870    9874    9878    9882    9886    9890    9894    9898
    9902    9906    9910    9914    9918    9922    9926    9930    9934    9938
    9942    9946    9950    9954    9958    9962    9966    9970    9974    9978
    9982    9986    9990    9994    9998   10002   10006   10010   10014   10018
   10022   10026   10030   10034   10038   10042   10046   10050   10054   10058
   10062   10066   10070   10074   10078   10082   10086   10090   10094   10098
   10102   10106   10110   10114   10118   10122   10126   10130   10134   10138
   10142   10146   10150   10154   10158   10162   10166   10170   10174   10178
   10182   10186   10190   10194   10198   10202   10206   10210   10214   10218
   10222   10226   10230   10234   10238   10242   10246   10250   10254   10258
   10262   10266   10270   10274   10278   10282   10286   10290   10294   10298
   10302   10306   10310   10314   10318   10322   10326   10330   10334   10338
   10342   10346   10350   10354   10358   10362   10366   10370   10374   10378
   10382   10386   10390   10394   10398   10402   10406   10410   10414   10418
   10422   10426   10430   10434   10438   10442   10446   10450   10454   10458
   10462   10466   10470   10474   10478   10482   10486   10490   10494   10498
   10502   10506   10510   10514   10518   10522   10526   10530   10534   10538
   10542   10546   10550   10554   10558   10562   10566   10570   10574   10578
   10582   10586   10590   10594   10598   10602   10606   10610   10614   10618
   10622   10626   10630   10634   10638   10642   10646   10650   10654   10658
   10662   10666   10670   10674   10678   10682   10686   10690   10694   10698
   10702   10706   10710   10714   10718   10722   10726   10730   10734   10738
   10742   10746   10750   10754   10758   10762   10766   10770   10774   10778
   10782   10786   10790   10794   10798   10802   10806   10810   10814   10818
   10822   10826   10830   10834   10838   10842   10846   10850   10854   10858
   10862   10866   10870   10874   10878   10882   10886   10890   10894   10898
   10902   10906   10910   10914   10918   10922   10926   10930   10934   10938
   10942   10946   10950   10954   10958   10962   10966   10970   10974   10978
   10982   10986   10990   10994   10998   11002   11006   11010   11014   11018
   11022   11026   11030   11034   11038   11042   11046   11050   11054   11058
   11062   11066   11070   11074   11078   11082   11086   11090   11094   11098
   11102   11106   11110   11114   11118   11122   11126   11130   11134   11138
   11142   11146   11150   11154   11158   11162   11166   11170   11174   11178
   11182   11186   11190   11194   11198   11202   11206   11210   11214   11218
   11222   11226   11230   11234   11238   11242   11246   11250   11254   11258
   11262   11266   11270   11274   11278   11282   11286   11290   11294   11298
   11302   11306   11310   11314   11318   11322   11326   11330   11334   11338
   11342   11346   11350   11354   11358   11362   11366   11370   11374   11378
   11382   11386   11390   11394   11398   11402   11406   11410   11414   11418
   11422   11426   11430   11434   11438   11442   11446   11450   11454   11458
   11462   11466   11470   11474   11478   11482   11486   11490   11494   11498
   11502   11506   11510   11514   11518   11522   11526   11530   11534   11538
   11542   11546   11550   11554   11558   11562   11566   11570   11574   11578
   11582   11586   11590   11594   11598   11602   11606   11610   11614   11618
   11622   11626   11630   11634   11638   11642   11646   11650   11654   11658
   11662   11666   11670   11674   11678   11682   11686   11690   11694   11698
   11702   11706   11710   11714   11718   11722   11726   11730   11734   11738
   11742   11746   11750   11754   11758   11762   11766   11770   11774   11778
   11782   11786   11790   11794   11798   11802   11806   11810   11814   11818
   11822   11826   11830   11834   11838   11842   11846   11850   11854   11858
   11862   11866   11870   11874   11878   11882   11886   11890   11894   11898
   11902   11906   11910   11914   11918   11922   11926   11930   11934   11938
   11942   11946   11950   11954   11958   11962   11966   11970   11974   11978
   11982   11986   11990   11994   11998   12002   12006   12010   12014   12018
   12022   12026   12030   12034   12038   12042   12046   12050   12054   12058
   12062   12066   12070   12074   12078   12082   12086   12090   12094   12098
   12102   12106   12110   12114   12118   12122   12126   12130   12134   12138
   12142   12146   12150   12154   12158   12162   12166   12170   12174   12178
   12182   12186   12190   12194   12198   12202   12206   12210   12214   12218
   12222   12226   12230   12234   12238   12242   12246   12250   12254   12258
   12262   12266   12270   12274   12278   12282   12286   12290   12294   12298
   12302   12306   12310   12314   12318   12322   12326   12330   12334   12338
   12342   12346   12350   12354   12358   12362   12366   12370   12374   12378
   12382   12386   12390   12394   12398   12402   12406   12410   12414   12418
   12422   12426   12430   12434   12438   12442   12446   12450   12454   12458
   12462   12466   12470   12474   12478   12482   12486   12490   12494   12498
   12502   12506   12510   12514   12518   12522   12526   12530   12534   12538
   12542   12546   12550   12554   12558   12562   12566   12570   12574   12578
   12582   12586   12590   12594   12598   12602   12606   12610   12614   12618
   12622   12626   12630   12634   12638   12642   12646   12650   12654   12658
   12662   12666   12670   12674   12678   12682   12686   12690   12694   12698
   12702   12706   12710   12714   12718   12722   12726   12730   12734   12738
   12742   12746   12750   12754   12758   12762   12766   12770   12774   12778
   12782   12786   12790   12794   12798   12802   12806   12810   12814   12818
   12822   12826   12830   12834   12838   12842   12846   12850   12854   12858
   12862   12866   12870   12874   12878   12882   12886   12890   12894   12898
   12902   12906   12910   12914   12918   12922   12926   12930   12934   12938
   12942   12946   12950   12954   12958   12962   12966   12970   12974   12978
   12982   12986   12990   12994   12998   13002   13006   13010   13014   13018
   13022   13026   13030   13034   13038   13042   13046   13050   13054   13058
   13062   13066   13070   13074   13078   13082   13086   13090   13094   13098
   13102   13106   13110   13114   13118   13122   13126   13130   13134   13138
   13142   13146   13150   13154   13158   13162   13166   13170   13174   13178
   13182   13186   13190   13194   13198   13202   13206   13210   13214   13218
   13222   13226   13230   13234   13238   13242   13246   13250   13254   13258
   13262   13266   13270   13274   13278   13282   13286   13290   13294   13298
   13302   13306   13310   13314   13318   13322   13326   13330   13334   13338
   13342   13346   13350   13354   13358   13362   13366   13370   13374   13378
   13382   13386   13390   13394   13398   13402   13406   13410   13414   13418
   13422   13426   13430   13434   13438   13442   13446   13450   13454   13458
   13462   13466   13470   13474   13478   13482   13486   13490   13494   13498
   13502   13506   13510   13514   13518   13522   13526   13530   13534   13538
   13542   13546   13550   13554   13558   13562   13566   13570   13574   13578
   13582   13586   13590   13594   13598   13602   13606   13610   13614   13618
   13622   13626   13630   13634   13638   13642   13646   13650   13654   13658
   13662   13666   13670   13674   13678   13682   13686   13690   13694   13698
   13702   13706   13710   13714   13718   13722   13726   13730   13734   13738
   13742   13746   13750   13754   13758   13762   13766   13770   13774   13778
   13782   13786   13790   13794   13798   13802   13806   13810   13814   13818
   13822   13826   13830   13834   13838   13842   13846   13850   13854   13858
   13862   13866   13870   13874   13878   13882   13886   13890   13894   13898
   13902   13906   13910   13914   13918   13922   13926   13930   13934   13938
   13942   13946   13950   13954   13958   13962   13966   13970   13974   13978
   13982   13986   13990   13994   13998   14002   14006   14010   14014   14018
   14022   14026   14030   14034   14038   14042   14046   14050   14054   14058
   14062   14066   14070   14074   14078   14082   14086   14090   14094   14098
   14102   14106   14110   14114   14118   14122   14126   14130   14134   14138
   14142   14146   14150   14154   14158   14162   14166   14170   14174   14178
   14182   14186   14190   14194   14198   14202   14206   14210   14214   14218
   14222   14226   14230   14234   14238   14242   14246   14250   14254   14258
   14262   14266   14270   14274   14278   14282   14286   14290   14294   14298
   14302   14306   14310   14314   14318   14322   14326   14330   14334   14338
   14342   14346   14350   14354   14358   14362   14366   14370   14374   14378
   14382   14386   14390   14394   14398   14402   14406   14410   14414   14418
   14422   14426   14430   14434   14438   14442   14446   14450   14454   14458
   14462   14466   14470   14474   14478   14482   14486   14490   14494   14498
   14502   14506   14510   14514   14518   14522   14526   14530   14534   14538
   14542   14546   14550   14554   14558   14562   14566   14570   14574   14578
   14582   14586   14590   14594   14598   14602   14606   14610   14614   14618
   14622   14626   14630   14634   14638   14642   14646   14650   14654   14658
   14662   14666   14670   14674   14678   14682   14686   14690   14694   14698
   14702   14706   14710   14714   14718   14722   14726   14730   14734   14738
   14742   14746   14750   14754   14758   14762   14766   14770   14774   14778
   14782   14786   14790   14794   14798   14802   14806   14810   14814   14818
   14822   14826   14830   14834   14838   14842   14846   14850   14854   14858
   14862   14866   14870   14874   14878   14882   14886   14890   14894   14898
   14902   14906   14910   14914   14918   14922   14926   14930   14934   14938
   14942   14946   14950   14954   14958   14962   14966   14970   14974   14978
   14982   14986   14990   14994   14998   15002   15006   15010   15014   15018
   15022   15026   15030   15034   15038   15042   15046   15050   15054   15058
   15062   15066   15070   15074   15078   15082   15086   15090   15094   15098
   15102   15106   15110   15114   15118   15122   15126   15130   15134   15138
   15142   15146   15150   15154   15158   15162   15166   15170   15174   15178
   15182   15186   15190   15194   15198   15202   15206   15210   15214   15218
   15222   15226   15230   15234   15238   15242   15246   15250   15254   15258
   15262   15266   15270   15274   15278   15282   15286   15290   15294   15298
   15302   15306   15310   15314   15318   15322   15326   15330   15334   15338
   15342   15346   15350   15354   15358   15362   15366   15370   15374   15378
   15382   15386   15390   15394   15398   15402   15406   15410   15414   15418
   15422   15426   15430   15434   15438   15442   15446   15450   15454   15458
   15462   15466   15470   15474   15478   15482   15486   15490   15494   15498
   15502   15506   15510   15514   15518   15522   15526   15530   15534   15538
   15542   15546   15550   15554   15558   15562   15566   15570   15574   15578
   15582   15586   15590   15594   15598   15602   15606   15610   15614   15618
   15622   15626   15630   15634   15638   15642   15646   15650   15654   15658
   15662   15666   15670   15674   15678   15682   15686   15690   15694   15698
   15702   15706   15710   15714   15718   15722   15726   15730   15734   15738
   15742   15746   15750   15754   15758   15762   15766   15770   15774   15778
   15782   15786   15790   15794   15798   15802   15806   15810   15814   15818
   15822   15826   15830   15834   15838   15842   15846   15850   15854   15858
   15862   15866   15870   15874   15878   15882   15886   15890   15894   15898
   15902   15906   15910   15914   15918   15922   15926   15930   15934   15938
   15942   15946   15950   15954   15958   15962   15966   15970   15974   15978
   15982   15986   15990   15994   15998   16002   16006   16010   16014   16018
   16022   16026   16030   16034   16038   16042   16046   16050   16054   16058
   16062   16066   16070   16074   16078   16082   16086   16090   16094   16098
   16102   16106   16110   16114   16118   16122   16126   16130   16134   16138
   16142   16146   16150   16154   16158   16162   16166   16170   16174   16178
   16182   16186   16190   16194   16198   16202   16206   16210   16214   16218
   16222   16226   16230   16234   16238   16242   16246   16250   16254   16258
   16262   16266   16270   16274   16278   16282   16286   16290   16294   16298
   16302   16306   16310   16314   16318   16322   16326   16330   16334   16338
   16342   16346   16350   16354   16358   16362   16366   16370   16374   16378
   16382   16386   16390   16394   16398   16402   16406   16410   16414   16418
   16422   16426   16430   16434   16438   16442   16446   16450   16454   16458
   16462   16466   16470   16474   16478   16482   16486   16490   16494   16498
   16502   16506   16510   16514   16518   16522   16526   16530   16534   16538
   16542   16546   16550   16554   16558   16562   16566   16570   16574   16578
   16582   16586   16590   16594   16598   16602   16606   16610   16614   16618
   16622   16626   16630   16634   16638   16642   16646   16650   16654   16658
   16662   16666   16670   16674   16678   16682   16686   16690   16694   16698
   16702   16706   16710   16714   16718   16722   16726   16730   16734   16738
   16742   16746   16750   16754   16758   16762   16766   16770   16774   16778
   16782   16786   16790   16794   16798   16802   16806   16810   16814   16818
   16822   16826   16830   16834   16838   16842   16846   16850   16854   16858
   16862   16866   16870   16874   16878   16882   16886   16890   16894   16898
   16902   16906   16910   16914   16918   16922   16926   16930   16934   16938
   16942   16946   16950   16954   16958   16962   16966   16970   16974   16978
   16982   16986   16990   16994   16998   17002   17006   17010   17014   17018
   17022   17026   17030   17034   17038   17042   17046   17050   17054   17058
   17062   17066   17070   17074   17078   17082   17086   17090   17094   17098
   17102   17106   17110   17114   17118   17122   17126   17130   17134   17138
   17142   17146   17150   17154   17158   17162   17166   17170   17174   17178
   17182   17186   17190   17194   17198   17202   17206   17210   17214   17218
   17222   17226   17230   17234   17238   17242   17246   17250   17254   17258
   17262   17266   17270   17274   17278   17282   17286   17290   17294   17298
   17302   17306   17310   17314   17318   17322   17326   17330   17334   17338
   17342   17346   17350   17354   17358   17362   17366   17370   17374   17378
   17382   17386   17390   17394   17398   17402   17406   17410   17414   17418
   17422   17426   17430   17434   17438   17442   17446   17450   17454   17458
   17462   17466   17470   17474   17478   17482   17486   17490   17494   17498
   17502   17506   17510   17514   17518   17522   17526   17530   17534   17538
   17542   17546   17550   17554   17558   17562   17566   17570   17574   17578
   17582   17586   17590   17594   17598   17602   17606   17610   17614   17618
   17622   17626   17630   17634   17638   17642   17646   17650   17654   17658
   17662   17666   17670   17674   17678   17682   17686   17690   17694   17698
   17702   17706   17710   17714   17718   17722   17726   17730   17734   17738
   17742   17746   17750   17754   17758   17762   17766   17770   17774   17778
   17782   17786   17790   17794   17798   17802   17806   17810   17814   17818
   17822   17826   17830   17834   17838   17842   17846   17850   17854   17858
   17862   17866   17870   17874   17878   17882   17886   17890   17894   17898
   17902   17906   17910   17914   17918   17922   17926   17930   17934   17938
   17942   17946   17950   17954   17958   17962   17966   17970   17974   17978
   17982   17986   17990   17994   17998   18002   18006   18010   18014   18018
   18022   18026   18030   18034   18038   18042   18046   18050   18054   18058
   18062   18066   18070   18074   18078   18082   18086   18090   18094   18098
   18102   18106   18110   18114   18118   18122   18126   18130   18134   18138
   18142   18146   18150   18154   18158   18162   18166   18170   18174   18178
   18182   18186   18190   18194   18198   18202   18206   18210   18214   18218
   18222   18226   18230   18234   18238   18242   18246   18250   18254   18258
   18262   18266   18270   18274   18278   18282   18286   18290   18294   18298
   18302   18306   18310   18314   18318   18322   18326   18330   18334   18338
   18342   18346   18350   18354   18358   18362   18366   18370   18374   18378
   18382   18386   18390   18394   18398   18402   18406   18410   18414   18418
   18422   18426   18430   18434   18438   18442   18446   18450   18454   18458
   18462   18466   18470   18474   18478   18482   18486   18490   18494   18498
   18502   18506   18510   18514   18518   18522   18526   18530   18534   18538
   18542   18546   18550   18554   18558   18562   18566   18570   18574   18578
   18582   18586   18590   18594   18598   18602   18606   18610   18614   18618
   18622   18626   18630   18634   18638   18642   18646   18650   18654   18658
   18662   18666   18670   18674   18678   18682   18686   18690   18694   18698
   18702   18706   18710   18714   18718   18722   18726   18730   18734   18738
   18742   18746   18750   18754   18758   18762   18766   18770   18774   18778
   18782   18786   18790   18794   18798   18802   18806   18810   18814   18818
   18822   18826   18830   18834   18838   18842   18846   18850   18854   18858
   18862   18866   18870   18874   18878   18882   18886   18890   18894   18898
   18902   18906   18910   18914   18918   18922   18926   18930   18934   18938
   18942   18946   18950   18954   18958   18962   18966   18970   18974   18978
   18982   18986   18990   18994   18998   19002   19006   19010   19014   19018
   19022   19026   19030   19034   19038   19042   19046   19050   19054   19058
   19062   19066   19070   19074   19078   19082   19086   19090   19094   19098
   19102   19106   19110   19114   19118   19122   19126   19130   19134   19138
   19142   19146   19150   19154   19158   19162   19166   19170   19174   19178
   19182   19186   19190   19194   19198   19202   19206   19210   19214   19218
   19222   19226   19230   19234   19238   19242   19246   19250   19254   19258
   19262   19266   19270   19274   19278   19282   19286   19290   19294   19298
   19302   19306   19310   19314   19318   19322   19326   19330   19334   19338
   19342   19346   19350   19354   19358   19362   19366   19370   19374   19378
   19382   19386   19390   19394   19398   19402   19406   19410   19414   19418
   19422   19426   19430   19434   19438   19442   19446   19450   19454   19458
   19462   19466   19470   19474   19478   19482   19486   19490   19494   19498
   19502   19506   19510   19514   19518   19522   19526   19530   19534   19538
   19542   19546   19550   19554   19558   19562   19566   19570   19574   19578
   19582   19586   19590   19594   19598   19602   19606   19610   19614   19618
   19622   19626   19630   19634   19638   19642   19646   19650   19654   19658
   19662   19666   19670   19674   19678   19682   19686   19690   19694   19698
   19702   19706   19710   19714   19718   19722   19726   19730   19734   19738
   19742   19746   19750   19754   19758   19762   19766   19770   19774   19778
   19782   19786   19790   19794   19798   19802   19806   19810   19814   19818
   19822   19826   19830   19834   19838   19842   19846   19850   19854   19858
   19862   19866   19870   19874   19878   19882   19886   19890   19894   19898
   19902   19906   19910   19914   19918   19922   19926   19930   19934   19938
   19942   19946   19950   19954   19958   19962   19966   19970   19974   19978
   19982   19986   19990   19994   19998   20002   20006   20010   20014   20018
   20022   20026   20030   20034   20038   20042   20046   20050   20054   20058
   20062   20066   20070   20074   20078   20082   20086   20090   20094   20098
   20102   20106   20110   20114   20118   20122   20126   20130   20134   20138
   20142   20146   20150   20154   20158   20162   20166   20170   20174   20178
   20182   20186   20190   20194   20198   20202   20206   20210   20214   20218
   20222   20226   20230   20234   20238   20242   20246   20250   20254   20258
   20262   20266   20270   20274   20278   20282   20286   20290   20294   20298
   20302   20306   20310   20314   20318   20322   20326   20330   20334   20338
   20342   20346   20350   20354   20358   20362   20366   20370   20374   20378
   20382   20386   20390   20394   20398   20402   20406   20410   20414   20418
   20422   20426   20430   20434   20438   20442   20446   20450   20454   20458
   20462   20466   20470   20474   20478   20482   20486   20490   20494   20498
   20502   20506   20510   20514   20518   20522   20526   20530   20534   20538
   20542   20546   20550   20554   20558   20562   20566   20570   20574   20578
   20582   20586   20590   20594   20598   20602   20606   20610   20614   20618
   20622   20626   20630   20634   20638   20642   20646   20650   20654   20658
   20662   20666   20670   20674   20678   20682   20686   20690   20694   20698
   20702   20706   20710   20714   20718   20722   20726   20730   20734   20738
   20742   20746   20750   20754   20758   20762   20766   20770   20774   20778
   20782   20786   20790   20794   20798   20802   20806   20810   20814   20818
   20822   20826   20830   20834   20838   20842   20846   20850   20854   20858
   20862   20866   20870   20874   20878   20882   20886   20890   20894   20898
   20902   20906   20910   20914   20918   20922   20926   20930   20934   20938
   20942   20946   20950   20954   20958   20962   20966   20970   20974   20978
   20982   20986   20990   20994   20998   21002   21006   21010   21014   21018
   21022   21026   21030   21034   21038   21042   21046   21050   21054   21058
   21062   21066   21070   21074   21078   21082   21086   21090   21094   21098
   21102   21106   21110   21114   21118   21122   21126   21130   21134   21138
   21142   21146   21150   21154   21158   21162   21166   21170   21174   21178
   21182   21186   21190   21194   21198   21202   21206   21210   21214   21218
   21222   21226   21230   21234   21238   21242   21246   21250   21254   21258
   21262   21266   21270   21274   21278   21282   21286   21290   21294   21298
   21302   21306   21310   21314   21318   21322   21326   21330   21334   21338
   21342   21346   21350   21354   21358   21362   21366   21370   21374   21378
   21382   21386   21390   21394   21398   21402   21406   21410   21414   21418
   21422   21426   21430   21434   21438   21442   21446   21450   21454   21458
   21462   21466   21470   21474   21478   21482   21486   21490   21494   21498
   21502   21506   21510   21514   21518   21522   21526   21530   21534   21538
   21542   21546   21550   21554   21558   21562   21566   21570   21574   21578
   21582   21586   21590   21594   21598   21602   21606   21610   21614   21618
   21622   21626   21630   21634   21638   21642   21646   21650   21654   21658
   21662   21666   21670   21674   21678   21682   21686   21690   21694   21698
   21702   21706   21710   21714   21718   21722   21726   21730   21734   21738
   21742   21746   21750   21754   21758   21762   21766   21770   21774   21778
   21782   21786   21790   21794   21798   21802   21806   21810   21814   21818
   21822   21826   21830   21834   21838   21842   21846   21850   21854   21858
   21862   21866   21870   21874   21878   21882   21886   21890   21894   21898
   21902   21906   21910   21914   21918   21922   21926   21930   21934   21938
   21942   21946   21950   21954   21958   21962   21966   21970   21974   21978
   21982   21986   21990   21994   21998   22002   22006   22010   22014   22018
   22022   22026   22030   22034   22038   22042   22046   22050   22054   22058
   22062   22066   22070   22074   22078   22082   22086   22090   22094   22098
   22102   22106   22110   22114   22118   22122   22126   22130   22134   22138
   22142   22146   22150   22154   22158   22162   22166   22170   22174   22178
   22182   22186   22190   22194   22198   22202   22206   22210   22214   22218
   22222   22226   22230   22234   22238   22242   22246   22250   22254   22258
   22262   22266   22270   22274   22278   22282   22286   22290   22294   22298
   22302   22306   22310   22314   22318   22322   22326   22330   22334   22338
   22342   22346   22350   22354   22358   22362   22366   22370   22374   22378
   22382   22386   22390   22394   22398   22402   22406   22410   22414   22418
   22422   22426   22430   22434   22438   22442   22446   22450   22454   22458
   22462   22466   22470   22474   22478   22482   22486   22490   22494   22498
   22502   22506   22510   22514   22518   22522   22526   22530   22534   22538
   22542   22546   22550   22554   22558   22562   22566   22570   22574   22578
   22582   22586   22590   22594   22598   22602   22606   22610   22614   22618
   22622   22626   22630   22634   22638   22642   22646   22650   22654   22658
   22662   22666   22670   22674   22678   22682   22686   22690   22694   22698
   22702   22706   22710   22714   22718   22722   22726   22730   22734   22738
   22742   22746   22750   22754   22758   22762   22766   22770   22774   22778
   22782   22786   22790   22794   22798   22802   22806   22810   22814   22818
   22822   22826   22830   22834   22838   22842   22846   22850   22854   22858
   22862   22866   22870   22874   22878   22882   22886   22890   22894   22898
   22902   22906   22910   22914   22918   22922   22926   22930   22934   22938
   22942   22946   22950   22954   22958   22962   22966   22970   22974   22978
   22982   22986   22990   22994   22998   23002   23006   23010   23014   23018
   23022   23026   23030   23034   23038   23042   23046   23050   23054   23058
   23062   23066   23070   23074   23078   23082   23086   23090   23094   23098
   23102   23106   23110   23114   23118   23122   23126   23130   23134   23138
   23142   23146   23150   23154   23158   23162   23166   23170   23174   23178
   23182   23186   23190   23194   23198   23202   23206   23210   23214   23218
   23222   23226   23230   23234   23238   23242   23246   23250   23254   23258
   23262   23266   23270   23274   23278   23282   23286   23290   23294   23298
   23302   23306   23310   23314   23318   23322   23326   23330   23334   23338
   23342   23346   23350   23354   23358   23362   23366   23370   23374   23378
   23382   23386   23390   23394   23398   23402   23406   23410   23414   23418
   23422   23426   23430   23434   23438   23442   23446   23450   23454   23458
   23462   23466   23470   23474   23478   23482   23486   23490   23494   23498
   23502   23506   23510   23514   23518   23522   23526   23530   23534   23538
   23542   23546   23550   23554   23558   23562   23566   23570   23574   23578
   23582   23586   23590   23594   23598   23602   23606   23610   23614   23618
   23622   23626   23630   23634   23638   23642   23646   23650   23654   23658
   23662   23666   23670   23674   23678   23682   23686   23690   23694   23698
   23702   23706   23710   23714   23718   23722   23726   23730   23734   23738
   23742   23746   23750   23754   23758   23762   23766   23770   23774   23778
   23782   23786   23790   23794   23798   23802   23806   23810   23814   23818
   23822   23826   23830   23834   23838   23842   23846   23850   23854   23858
   23862   23866   23870   23874   23878   23882   23886   23890   23894   23898
   23902   23906   23910   23914   23918   23922   23926   23930   23934   23938
   23942   23946   23950   23954   23958   23962   23966   23970   23974   23978
   23982   23986   23990   23994   23998   24002   24006   24010   24014   24018
   24022   24026   24030   24034   24038   24042   24046   24050   24054   24058
   24062   24066   24070   24074   24078   24082   24086   24090   24094   24098
   24102   24106   24110   24114   24118   24122   24126   24130   24134   24138
   24142   24146   24150   24154   24158   24162   24166   24170   24174   24178
   24182   24186   24190   24194   24198   24202   24206   24210   24214   24218
   24222   24226   24230   24234   24238   24242   24246   24250   24254   24258
   24262   24266   24270   24274   24278   24282   24286   24290   24294   24298
   24302   24306   24310   24314   24318   24322   24326   24330   24334   24338
   24342   24346   24350   24354   24358   24362   24366   24370   24374   24378
   24382   24386   24390   24394   24398   24402   24406   24410   24414   24418
   24422   24426   24430   24434   24438   24442   24446   24450   24454   24458
   24462   24466   24470   24474   24478   24482   24486   24490   24494   24498
   24502   24506   24510   24514   24518   24522   24526   24530   24534   24538
   24542   24546   24550   24554   24558   24562   24566   24570   24574   24578
   24582   24586   24590   24594   24598   24602   24606   24610   24614   24618
   24622   24626   24630   24634   24638   24642   24646   24650   24654   24658
   24662   24666   24670   24674   24678   24682   24686   24690   24694   24698
   24702   24706   24710   24714   24718   24722   24726   24730   24734   24738
   24742   24746   24750   24754   24758   24762   24766   24770   24774   24778
   24782   24786   24790   24794   24798   24802   24806   24810   24814   24818
   24822   24826   24830   24834   24838   24842   24846   24850   24854   24858
   24862   24866   24870   24874   24878   24882   24886   24890   24894   24898
   24902   24906   24910   24914   24918   24922   24926   24930   24934   24938
   24942   24946   24950   24954   24958   24962   24966   24970   24974   24978
   24982   24986   24990   24994   24998   25002   25006   25010   25014   25018
   25022   25026   25030   25034   25038   25042   25046   25050   25054   25058
   25062   25066   25070   25074   25078   25082   25086   25090   25094   25098
   25102   25106   25110   25114   25118   25122   25126   25130   25134   25138
   25142   25146   25150   25154   25158   25162   25166   25170   25174   25178
   25182   25186   25190   25194   25198   25202   25206   25210   25214   25218
   25222   25226   25230   25234   25238   25242   25246   25250   25254   25258
   25262   25266   25270   25274   25278   25282   25286   25290   25294   25298
   25302   25306   25310   25314   25318   25322   25326   25330   25334   25338
   25342   25346   25350   25354   25358   25362   25366   25370   25374   25378
   25382   25386   25390   25394   25398   25402   25406   25410   25414   25418
   25422   25426   25430   25434   25438   25442   25446   25450   25454   25458
   25462   25466   25470   25474   25478   25482   25486   25490   25494   25498
   25502   25506   25510   25514   25518   25522   25526   25530   25534   25538
   25542   25546   25550   25554   25558   25562   25566   25570   25574   25578
   25582   25586   25590   25594   25598   25602   25606   25610   25614   25618
   25622   25626   25630   25634   25638   25642   25646   25650   25654   25658
   25662   25666   25670   25674   25678   25682   25686   25690   25694   25698
   25702   25706   25710   25714   25718   25722   25726   25730   25734   25738
   25742   25746   25750   25754   25758   25762   25766   25770   25774   25778
   25782   25786   25790   25794   25798   25802   25806   25810   25814   25818
   25822   25826   25830   25834   25838   25842   25846   25850   25854   25858
   25862   25866   25870   25874   25878   25882   25886   25890   25894   25898
   25902   25906   25910   25914   25918   25922   25926   25930   25934   25938
   25942   25946   25950   25954   25958   25962   25966   25970   25974   25978
   25982   25986   25990   25994   25998   26002   26006   26010   26014   26018
   26022   26026   26030   26034   26038   26042   26046   26050   26054   26058
   26062   26066   26070   26074   26078   26082   26086   26090   26094   26098
   26102   26106   26110   26114   26118   26122   26126   26130   26134   26138
   26142   26146   26150   26154   26158   26162   26166   26170   26174   26178
   26182   26186   26190   26194   26198   26202   26206   26210   26214   26218
   26222   26226   26230   26234   26238   26242   26246   26250   26254   26258
   26262   26266   26270   26274   26278   26282   26286   26290   26294   26298
   26302   26306   26310   26314   26318   26322   26326   26330   26334   26338
   26342   26346   26350   26354   26358   26362   26366   26370   26374   26378
   26382   26386   26390   26394   26398   26402   26406   26410   26414   26418
   26422   26426   26430   26434   26438   26442   26446   26450   26454   26458
   26462   26466   26470   26474   26478   26482   26486   26490   26494   26498
   26502   26506   26510   26514   26518   26522   26526   26530   26534   26538
   26542   26546   26550   26554   26558   26562   26566   26570   26574   26578
   26582   26586   26590   26594   26598   26602   26606   26610   26614   26618
   26622   26626   26630   26634   26638   26642   26646   26650   26654   26658
   26662   26666   26670   26674   26678   26682   26686   26690   26694   26698
   26702   26706   26710   26714   26718   26722   26726   26730   26734   26738
   26742   26746   26750   26754   26758   26762   26766   26770   26774   26778
   26782   26786   26790   26794   26798   26802   26806   26810   26814   26818
   26822   26826   26830   26834   26838   26842   26846   26850   26854   26858
   26862   26866   26870   26874   26878   26882   26886   26890   26894   26898
   26902   26906   26910   26914   26918   26922   26926   26930   26934   26938
   26942   26946   26950   26954   26958   26962   26966   26970   26974   26978
   26982   26986   26990   26994   26998   27002   27006   27010   27014   27018
   27022   27026   27030   27034   27038   27042   27046   27050   27054   27058
   27062   27066   27070   27074   27078   27082   27086   27090   27094   27098
   27102   27106   27110   27114   27118   27122   27126   27130   27134   27138
   27142   27146   27150   27154   27158   27162   27166   27170   27174   27178
   27182   27186   27190   27194   27198   27202   27206   27210   27214   27218
   27222   27226   27230   27234   27238   27242   27246   27250   27254   27258
   27262   27266   27270   27274   27278   27282   27286   27290   27294   27298
   27302   27306   27310   27314   27318   27322   27326   27330   27334   27338
   27342   27346   27350   27354   27358   27362   27366   27370   27374   27378
   27382   27386   27390   27394   27398   27402   27406   27410   27414   27418
   27422   27426   27430   27434   27438   27442   27446   27450   27454   27458
   27462   27466   27470   27474   27478   27482   27486   27490   27494   27498
   27502   27506   27510   27514   27518   27522   27526   27530   27534   27538
   27542   27546   27550   27554   27558   27562   27566   27570   27574   27578
   27582   27586   27590   27594   27598   27602   27606   27610   27614   27618
   27622   27626   27630   27634   27638   27642   27646   27650   27654   27658
   27662   27666   27670   27674   27678   27682   27686   27690   27694   27698
   27702   27706   27710   27714   27718   27722   27726   27730   27734   27738
   27742   27746   27750   27754   27758   27762   27766   27770   27774   27778
   27782   27786   27790   27794   27798   27802   27806   27810   27814   27818
   27822   27826   27830   27834   27838   27842   27846   27850   27854   27858
   27862   27866   27870   27874   27878   27882   27886   27890   27894   27898
   27902   27906   27910   27914   27918   27922   27926   27930   27934   27938
   27942   27946   27950   27954   27958   27962   27966   27970   27974   27978
   27982   27986   27990   27994   27998   28002   28006   28010   28014   28018
   28022   28026   28030   28034   28038   28042   28046   28050   28054   28058
   28062   28066   28070   28074   28078   28082   28086   28090   28094   28098
   28102   28106   28110   28114   28118   28122   28126   28130   28134   28138
   28142   28146   28150   28154   28158   28162   28166   28170   28174   28178
   28182   28186   28190   28194   28198   28202   28206   28210   28214   28218
   28222   28226   28230   28234   28238   28242   28246   28250   28254   28258
   28262   28266   28270   28274   28278   28282   28286   28290   28294   28298
   28302   28306   28310   28314   28318   28322   28326   28330   28334   28338
   28342   28346   28350   28354   28358   28362   28366   28370   28374   28378
   28382   28386   28390   28394   28398   28402   28406   28410   28414   28418
   28422   28426   28430   28434   28438   28442   28446   28450   28454   28458
   28462   28466   28470   28474   28478   28482   28486   28490   28494   28498
   28502   28506   28510   28514   28518   28522   28526   28530   28534   28538
   28542   28546   28550   28554   28558   28562   28566   28570   28574   28578
   28582   28586   28590   28594   28598   28602   28606   28610   28614   28618
   28622   28626   28630   28634   28638   28642   28646   28650   28654   28658
   28662   28666   28670   28674   28678   28682   28686   28690   28694   28698
   28702   28706   28710   28714   28718   28722   28726   28730   28734   28738
   28742   28746   28750   28754   28758   28762   28766   28770   28774   28778
   28782   28786   28790   28794   28798   28802   28806   28810   28814   28818
   28822   28826   28830   28834   28838   28842   28846   28850   28854   28858
   28862   28866   28870   28874   28878   28882   28886   28890   28894   28898
   28902   28906   28910   28914   28918   28922   28926   28930   28934   28938
   28942   28946   28950   28954   28958   28962   28966   28970   28974   28978
   28982   28986   28990   28994   28998   29002   29006   29010   29014   29018
   29022   29026   29030   29034   29038   29042   29046   29050   29054   29058
   29062   29066   29070   29074   29078   29082   29086   29090   29094   29098
   29102   29106   29110   29114   29118   29122   29126   29130   29134   29138
   29142   29146   29150   29154   29158   29162   29166   29170   29174   29178
   29182   29186   29190   29194   29198   29202   29206   29210   29214   29218
   29222   29226   29230   29234   29238   29242   29246   29250   29254   29258
   29262   29266   29270   29274   29278   29282   29286   29290   29294   29298
   29302   29306   29310   29314   29318   29322   29326   29330   29334   29338
   29342   29346   29350   29354   29358   29362   29366   29370   29374   29378
   29382   29386   29390   29394   29398   29402   29406   29410   29414   29418
   29422   29426   29430   29434   29438   29442   29446   29450   29454   29458
   29462   29466   29470   29474   29478   29482   29486   29490   29494   29498
   29502   29506   29510   29514   29518   29522   29526   29530   29534   29538
   29542   29546   29550   29554   29558   29562   29566   29570   29574   29578
   29582   29586   29590   29594   29598   29602   29606   29610   29614   29618
   29622   29626   29630   29634   29638   29642   29646   29650   29654   29658
   29662   29666   29670   29674   29678   29682   29686   29690   29694   29698
   29702   29706   29710   29714   29718   29722   29726   29730   29734   29738
   29742   29746   29750   29754   29758   29762   29766   29770   29774   29778
   29782   29786   29790   29794   29798   29802   29806   29810   29814   29818
   29822   29826   29830   29834   29838   29842   29846   29850   29854   29858
   29862   29866   29870   29874   29878   29882   29886   29890   29894   29898
   29902   29906   29910   29914   29918   29922   29926   29930   29934   29938
   29942   29946   29950   29954   29958   29962   29966   29970   29974   29978
   29982   29986   29990   29994   29998   30002   30006   30010   30014   30018
   30022   30026   30030   30034   30038   30042   30046   30050   30054   30058
   30062   30066   30070   30074   30078   30082   30086   30090   30094   30098
   30102   30106   30110   30114   30118   30122   30126   30130   30134   30138
   30142   30146   30150   30154   30158   30162   30166   30170   30174   30178
   30182   30186   30190   30194   30198   30202   30206   30210   30214   30218
   30222   30226   30230   30234   30238   30242   30246   30250   30254   30258
   30262   30266   30270   30274   30278   30282   30286   30290   30294   30298
   30302   30306   30310   30314   30318   30322   30326   30330   30334   30338
   30342   30346   30350   30354   30358   30362   30366   30370   30374   30378
   30382   30386   30390   30394   30398   30402   30406   30410   30414   30418
   30422   30426   30430   30434   30438   30442   30446   30450   30454   30458
   30462   30466   30470   30474   30478   30482   30486   30490   30494   30498
   30502   30506   30510   30514   30518   30522   30526   30530   30534   30538
   30542   30546   30550   30554   30558   30562   30566   30570   30574   30578
   30582   30586   30590   30594   30598   30602   30606   30610   30614   30618
   30622   30626   30630   30634   30638   30642   30646   30650   30654   30658
   30662   30666   30670   30674   30678   30682   30686   30690   30694   30698
   30702   30706   30710   30714   30718   30722   30726   30730   30734   30738
   30742   30746   30750   30754   30758   30762   30766   30770   30774   30778
   30782   30786   30790   30794   30798   30802   30806   30810   30814   30818
   30822   30826   30830   30834   30838   30842   30846   30850   30854   30858
   30862   30866   30870   30874   30878   30882   30886   30890   30894   30898
   30902   30906   30910   30914   30918   30922   30926   30930   30934   30938
   30942   30946   30950   30954   30958   30962   30966   30970   30974   30978
   30982   30986   30990   30994   30998   31002   31006   31010   31014   31018
   31022   31026   31030   31034   31038   31042   31046   31050   31054   31058
   31062   31066   31070   31074   31078   31082   31086   31090   31094   31098
   31102   31106   31110   31114   31118   31122   31126   31130   31134   31138
   31142   31146   31150   31154   31158   31162   31166   31170   31174   31178
   31182   31186   31190   31194   31198   31202   31206   31210   31214   31218
   31222   31226   31230   31234   31238   31242   31246   31250   31254   31258
   31262   31266   31270   31274   31278   31282   31286   31290   31294   31298
   31302   31306   31310   31314   31318   31322   31326   31330   31334   31338
   31342   31346   31350   31354   31358   31362   31366   31370   31374   31378
   31382   31386   31390   31394   31398   31402   31406   31410   31414   31418
   31422   31426   31430   31434   31438   31442   31446   31450   31454   31458
   31462   31466   31470   31474   31478   31482   31486   31490   31494   31498
   31502   31506   31510   31514   31518   31522   31526   31530   31534   31538
   31542   31546   31550   31554   31558   31562   31566   31570   31574   31578
   31582   31586   31590   31594   31598   31602   31606   31610   31614   31618
   31622   31626   31630   31634   31638   31642   31646   31650   31654   31658
   31662   31666   31670   31674   31678   31682   31686   31690   31694   31698
   31702   31706   31710   31714   31718   31722   31726   31730   31734   31738
   31742   31746   31750   31754   31758   31762   31766   31770   31774   31778
   31782   31786   31790   31794   31798   31802   31806   31810   31814   31818
   31822   31826   31830   31834   31838   31842   31846   31850   31854   31858
   31862   31866   31870   31874   31878   31882   31886   31890   31894   31898
   31902   31906   31910   31914   31918   31922   31926   31930   31934   31938
   31942   31946   31950   31954   31958   31962   31966   31970   31974   31978
   31982   31986   31990   31994   31998   32002   32006   32010   32014   32018
   32022   32026   32030   32034   32038   32042   32046   32050   32054   32058
   32062   32066   32070   32074   32078   32082   32086   32090   32094   32098
   32102   32106   32110   32114   32118   32122   32126   32130   32134   32138
   32142   32146   32150   32154   32158   32162   32166   32170   32174   32178
   32182   32186   32190   32194   32198   32202   32206   32210   32214   32218
   32222   32226   32230   32234   32238   32242   32246   32250   32254   32258
   32262   32266   32270   32274   32278   32282   32286   32290   32294   32298
   32302   32306   32310   32314   32318   32322   32326   32330   32334   32338
   32342   32346   32350   32354   32358   32362   32366   32370   32374   32378
   32382   32386   32390   32394   32398   32402   32406   32410   32414   32418
   32422   32426   32430   32434   32438   32442   32446   32450   32454   32458
   32462   32466   32470   32474   32478   32482   32486   32490   32494   32498
   32502   32506   32510   32514   32518   32522   32526   32530   32534   32538
   32542   32546   32550   32554   32558   32562   32566   32570   32574   32578
   32582   32586   32590   32594   32598   32602   32606   32610   32614   32618
   32622   32626   32630   32634   32638   32642   32646   32650   32654   32658
   32662   32666   32670   32674   32678   32682   32686   32690   32694   32698
   32702   32706   32710   32714   32718   32722   32726   32730   32734   32738
   32742   32746   32750   32754   32758   32762   32766   32770   32774   32778
   32782   32786   32790   32794   32798   32802   32806   32810   32814   32818
   32822   32826   32830   32834   32838   32842   32846   32850   32854   32858
   32862   32866   32870   32874   32878   32882   32886   32890   32894   32898
   32902   32906   32910   32914   32918   32922   32926   32930   32934   32938
   32942   32946   32950   32954   32958   32962   32966   32970   32974   32978
   32982   32986   32990   32994   32998   33002   33006   33010   33014   33018
   33022   33026   33030   33034   33038   33042   33046   33050   33054   33058
   33062   33066   33070   33074   33078   33082   33086   33090   33094   33098
   33102   33106   33110   33114   33118   33122   33126   33130   33134   33138
   33142   33146   33150   33154   33158   33162   33166   33170   33174   33178
   33182   33186   33190   33194   33198   33202   33206   33210   33214   33218
   33222   33226   33230   33234   33238   33242   33246   33250   33254   33258
   33262   33266   33270   33274   33278   33282   33286   33290   33294   33298
   33302   33306   33310   33314   33318   33322   33326   33330   33334   33338
   33342   33346   33350   33354   33358   33362   33366   33370   33374   33378
   33382   33386   33390   33394   33398   33402   33406   33410   33414   33418
   33422   33426   33430   33434   33438   33442   33446   33450   33454   33458
   33462   33466   33470   33474   33478   33482   33486   33490   33494   33498
   33502   33506   33510   33514   33518   33522   33526   33530   33534   33538
   33542   33546   33550   33554   33558   33562   33566   33570   33574   33578
   33582   33586   33590   33594   33598   33602   33606   33610   33614   33618
   33622   33626   33630   33634   33638   33642   33646   33650   33654   33658
   33662   33666   33670   33674   33678   33682   33686   33690   33694   33698
   33702   33706   33710   33714   33718   33722   33726   33730   33734   33738
   33742   33746   33750   33754   33758   33762   33766   33770   33774   33778
   33782   33786   33790   33794   33798   33802   33806   33810   33814   33818
   33822   33826   33830   33834   33838   33842   33846   33850   33854   33858
   33862   33866   33870   33874   33878   33882   33886   33890   33894   33898
   33902   33906   33910   33914   33918   33922   33926   33930   33934   33938
   33942   33946   33950   33954   33958   33962   33966   33970   33974   33978
   33982   33986   33990   33994   33998   34002   34006   34010   34014   34018
   34022   34026   34030   34034   34038   34042   34046   34050   34054   34058
   34062   34066   34070   34074   34078   34082   34086   34090   34094   34098
   34102   34106   34110   34114   34118   34122   34126   34130   34134   34138
   34142   34146   34150   34154   34158   34162   34166   34170   34174   34178
   34182   34186   34190   34194   34198   34202   34206   34210   34214   34218
   34222   34226   34230   34234   34238   34242   34246   34250   34254   34258
   34262   34266   34270   34274   34278   34282   34286   34290   34294   34298
   34302   34306   34310   34314   34318   34322   34326   34330   34334   34338
   34342   34346   34350   34354   34358   34362   34366   34370   34374   34378
   34382   34386   34390   34394   34398   34402   34406   34410   34414   34418
   34422   34426   34430   34434   34438   34442   34446   34450   34454   34458
   34462   34466   34470   34474   34478   34482   34486   34490   34494   34498
   34502   34506   34510   34514   34518   34522   34526   34530   34534   34538
   34542   34546   34550   34554   34558   34562   34566   34570   34574   34578
   34582   34586   34590   34594   34598   34602   34606   34610   34614   34618
   34622   34626   34630   34634   34638   34642   34646   34650   34654   34658
   34662   34666   34670   34674   34678   34682   34686   34690   34694   34698
   34702   34706   34710   34714   34718   34722   34726   34730   34734   34738
   34742   34746   34750   34754   34758   34762   34766   34770   34774   34778
   34782   34786   34790   34794   34798   34802   34806   34810   34814   34818
   34822   34826   34830   34834   34838   34842   34846   34850   34854   34858
   34862   34866   34870   34874   34878   34882   34886   34890   34894   34898
   34902   34906   34910   34914   34918   34922   34926   34930   34934   34938
   34942   34946   34950   34954   34958   34962   34966   34970   34974   34978
   34982   34986   34990   34994   34998   35002   35006   35010   35014   35018
   35022   35026   35030   35034   35038   35042   35046   35050   35054   35058
   35062   35066   35070   35074   35078   35082   35086   35090   35094   35098
   35102   35106   35110   35114   35118   35122   35126   35130   35134   35138
   35142   35146   35150   35154   35158   35162   35166   35170   35174   35178
   35182   35186   35190   35194   35198   35202   35206   35210   35214   35218
   35222   35226   35230   35234   35238   35242   35246   35250   35254   35258
   35262   35266   35270   35274   35278   35282   35286   35290   35294   35298
   35302   35306   35310   35314   35318   35322   35326   35330   35334   35338
   35342   35346   35350   35354   35358   35362   35366   35370   35374   35378
   35382   35386   35390   35394   35398   35402   35406   35410   35414   35418
   35422   35426   35430   35434   35438   35442   35446   35450   35454   35458
   35462   35466   35470   35474   35478   35482   35486   35490   35494   35498
   35502   35506   35510   35514   35518   35522   35526   35530   35534   35538
   35542   35546   35550   35554   35558   35562   35566   35570   35574   35578
   35582   35586   35590   35594   35598   35602   35606   35610   35614   35618
   35622   35626   35630   35634   35638   35642   35646   35650   35654   35658
   35662   35666   35670   35674   35678   35682   35686   35690   35694   35698
   35702   35706   35710   35714   35718   35722   35726   35730   35734   35738
   35742   35746   35750   35754   35758   35762   35766   35770   35774   35778
   35782   35786   35790   35794   35798   35802   35806   35810   35814   35818
   35822   35826   35830   35834   35838   35842   35846   35850   35854   35858
   35862   35866   35870   35874   35878   35882   35886   35890   35894   35898
   35902   35906   35910   35914   35918   35922   35926   35930   35934   35938
   35942   35946   35950   35954   35958   35962   35966   35970   35974   35978
   35982   35986   35990   35994   35998   36002   36006   36010   36014   36018
   36022   36026   36030   36034   36038   36042   36046   36050   36054   36058
   36062   36066   36070   36074   36078   36082   36086   36090   36094   36098
   36102   36106   36110   36114   36118   36122   36126   36130   36134   36138
   36142   36146   36150   36154   36158   36162   36166   36170   36174   36178
   36182   36186   36190   36194   36198   36202   36206   36210   36214   36218
   36222   36226   36230   36234   36238   36242   36246   36250   36254   36258
   36262   36266   36270   36274   36278   36282   36286   36290   36294   36298
   36302   36306   36310   36314   36318   36322   36326   36330   36334   36338
   36342   36346   36350   36354   36358   36362   36366   36370   36374   36378
   36382   36386   36390   36394   36398   36402   36406   36410   36414   36418
   36422   36426   36430   36434   36438   36442   36446   36450   36454   36458
   36462   36466   36470   36474   36478   36482   36486   36490   36494   36498
   36502   36506   36510   36514   36518   36522   36526   36530   36534   36538
   36542   36546   36550   36554   36558   36562   36566   36570   36574   36578
   36582   36586   36590   36594   36598   36602   36606   36610   36614   36618
   36622   36626   36630   36634   36638   36642   36646   36650   36654   36658
   36662   36666   36670   36674   36678   36682   36686   36690   36694   36698
   36702   36706   36710   36714   36718   36722   36726   36730   36734   36738
   36742   36746   36750   36754   36758   36762   36766   36770   36774   36778
   36782   36786   36790   36794   36798   36802   36806   36810   36814   36818
   36822   36826   36830   36834   36838   36842   36846   36850   36854   36858
   36862   36866   36870   36874   36878   36882   36886   36890   36894   36898
   36902   36906   36910   36914   36918   36922   36926   36930   36934   36938
   36942   36946   36950   36954   36958   36962   36966   36970   36974   36978
   36982   36986   36990   36994   36998   37002   37006   37010   37014   37018
   37022   37026   37030   37034   37038   37042   37046   37050   37054   37058
   37062   37066   37070   37074   37078   37082   37086   37090   37094   37098
   37102   37106   37110   37114   37118   37122   37126   37130   37134   37138
   37142   37146   37150   37154   37158   37162   37166   37170   37174   37178
   37182   37186   37190   37194   37198   37202   37206   37210   37214   37218
   37222   37226   37230   37234   37238   37242   37246   37250   37254   37258
   37262   37266   37270   37274   37278   37282   37286   37290   37294   37298
   37302   37306   37310   37314   37318   37322   37326   37330   37334   37338
   37342   37346   37350   37354   37358   37362   37366   37370   37374   37378
   37382   37386   37390   37394   37398   37402   37406   37410   37414   37418
   37422   37426   37430   37434   37438   37442   37446   37450   37454   37458
   37462   37466   37470   37474   37478   37482   37486   37490   37494   37498
   37502   37506   37510   37514   37518   37522   37526   37530   37534   37538
   37542   37546   37550   37554   37558   37562   37566   37570   37574   37578
   37582   37586   37590   37594   37598   37602   37606   37610   37614   37618
   37622   37626   37630   37634   37638   37642   37646   37650   37654   37658
   37662   37666   37670   37674   37678   37682   37686   37690   37694   37698
   37702   37706   37710   37714   37718   37722   37726   37730   37734   37738
   37742   37746   37750   37754   37758   37762   37766   37770   37774   37778
   37782   37786   37790   37794   37798   37802   37806   37810   37814   37818
   37822   37826   37830   37834   37838   37842   37846   37850   37854   37858
   37862   37866   37870   37874   37878   37882   37886   37890   37894   37898
   37902   37906   37910   37914   37918   37922   37926   37930   37934   37938
   37942   37946   37950   37954   37958   37962   37966   37970   37974   37978
   37982   37986   37990   37994   37998   38002   38006   38010   38014   38018
   38022   38026   38030   38034   38038   38042   38046   38050   38054   38058
   38062   38066   38070   38074   38078   38082   38086   38090   38094   38098
   38102   38106   38110   38114   38118   38122   38126   38130   38134   38138
   38142   38146   38150   38154   38158   38162   38166   38170   38174   38178
   38182   38186   38190   38194   38198   38202   38206   38210   38214   38218
   38222   38226   38230   38234   38238   38242   38246   38250   38254   38258
   38262   38266   38270   38274   38278   38282   38286   38290   38294   38298
   38302   38306   38310   38314   38318   38322   38326   38330   38334   38338
   38342   38346   38350   38354   38358   38362   38366   38370   38374   38378
   38382   38386   38390   38394   38398   38402   38406   38410   38414   38418
   38422   38426   38430   38434   38438   38442   38446   38450   38454   38458
   38462   38466   38470   38474   38478   38482   38486   38490   38494   38498
   38502   38506   38510   38514   38518   38522   38526   38530   38534   38538
   38542   38546   38550   38554   38558   38562   38566   38570   38574   38578
   38582   38586   38590   38594   38598   38602   38606   38610   38614   38618
   38622   38626   38630   38634   38638   38642   38646   38650   38654   38658
   38662   38666   38670   38674   38678   38682   38686   38690   38694   38698
   38702   38706   38710   38714   38718   38722   38726   38730   38734   38738
   38742   38746   38750   38754   38758   38762   38766   38770   38774   38778
   38782   38786   38790   38794   38798   38802   38806   38810   38814   38818
   38822   38826   38830   38834   38838   38842   38846   38850   38854   38858
   38862   38866   38870   38874   38878   38882   38886   38890   38894   38898
   38902   38906   38910   38914   38918   38922   38926   38930   38934   38938
   38942   38946   38950   38954   38958   38962   38966   38970   38974   38978
   38982   38986   38990   38994   38998   39002   39006   39010   39014   39018
   39022   39026   39030   39034   39038   39042   39046   39050   39054   39058
   39062   39066   39070   39074   39078   39082   39086   39090   39094   39098
   39102   39106   39110   39114   39118   39122   39126   39130   39134   39138
   39142   39146   39150   39154   39158   39162   39166   39170   39174   39178
   39182   39186   39190   39194   39198   39202   39206   39210   39214   39218
   39222   39226   39230   39234   39238   39242   39246   39250   39254   39258
   39262   39266   39270   39274   39278   39282   39286   39290   39294   39298
   39302   39306   39310   39314   39318   39322   39326   39330   39334   39338
   39342   39346   39350   39354   39358   39362   39366   39370   39374   39378
   39382   39386   39390   39394   39398   39402   39406   39410   39414   39418
   39422   39426   39430   39434   39438   39442   39446   39450   39454   39458
   39462   39466   39470   39474   39478   39482   39486   39490   39494   39498
   39502   39506   39510   39514   39518   39522   39526   39530   39534   39538
   39542   39546   39550   39554   39558   39562   39566   39570   39574   39578
   39582   39586   39590   39594   39598   39602   39606   39610   39614   39618
   39622   39626   39630   39634   39638   39642   39646   39650   39654   39658
   39662   39666   39670   39674   39678   39682   39686   39690   39694   39698
   39702   39706   39710   39714   39718   39722   39726   39730   39734   39738
   39742   39746   39750   39754   39758   39762   39766   39770   39774   39778
   39782   39786   39790   39794   39798   39802   39806   39810   39814   39818
   39822   39826   39830   39834   39838   39842   39846   39850   39854   39858
   39862   39866   39870   39874   39878   39882   39886   39890   39894   39898
   39902   39906   39910   39914   39918   39922   39926   39930   39934   39938
   39942   39946   39950   39954   39958   39962   39966   39970   39974   39978
   39982   39986   39990   39994   39998   40002   40006   40010   40014   40018
   40022   40026   40030   40034   40038   40042   40046   40050   40054   40058
   40062   40066   40070   40074   40078   40082   40086   40090   40094   40098
   40102   40106   40110   40114   40118   40122   40126   40130   40134   40138
   40142   40146   40150   40154   40158   40162   40166   40170   40174   40178
   40182   40186   40190   40194   40198   40202   40206   40210   40214   40218
   40222   40226   40230   40234   40238   40242   40246   40250   40254   40258
   40262   40266   40270   40274   40278   40282   40286   40290   40294   40298
   40302   40306   40310   40314   40318   40322   40326   40330   40334   40338
   40342   40346   40350   40354   40358   40362   40366   40370   40374   40378
   40382   40386   40390   40394   40398   40402   40406   40410   40414   40418
   40422   40426   40430   40434   40438   40442   40446   40450   40454   40458
   40462   40466   40470   40474   40478   40482   40486   40490   40494   40498
   40502   40506   40510   40514   40518   40522   40526   40530   40534   40538
   40542   40546   40550   40554   40558   40562   40566   40570   40574   40578
   40582   40586   40590   40594   40598   40602   40606   40610   40614   40618
   40622   40626   40630   40634   40638   40642   40646   40650   40654   40658
   40662   40666   40670   40674   40678   40682   40686   40690   40694   40698
   40702   40706   40710   40714   40718   40722   40726   40730   40734   40738
   40742   40746   40750   40754   40758   40762   40766   40770   40774   40778
   40782   40786   40790   40794   40798   40802   40806   40810   40814   40818
   40822   40826   40830   40834   40838   40842   40846   40850   40854   40858
   40862   40866   40870   40874   40878   40882   40886   40890   40894   40898
   40902   40906   40910   40914   40918   40922   40926   40930   40934   40938
   40942   40946   40950   40954   40958   40962   40966   40970   40974   40978
   40982   40986   40990   40994   40998   41002   41006   41010   41014   41018
   41022   41026   41030   41034   41038   41042   41046   41050   41054   41058
   41062   41066   41070   41074   41078   41082   41086   41090   41094   41098
   41102   41106   41110   41114   41118   41122   41126   41130   41134   41138
   41142   41146   41150   41154   41158   41162   41166   41170   41174   41178
   41182   41186   41190   41194   41198   41202   41206   41210   41214   41218
   41222   41226   41230   41234   41238   41242   41246   41250   41254   41258
   41262   41266   41270   41274   41278   41282   41286   41290   41294   41298
   41302   41306   41310   41314   41318   41322   41326   41330   41334   41338
   41342   41346   41350   41354   41358   41362   41366   41370   41374   41378
   41382   41386   41390   41394   41398   41402   41406   41410   41414   41418
   41422   41426   41430   41434   41438   41442   41446   41450   41454   41458
   41462   41466   41470   41474   41478   41482   41486   41490   41494   41498
   41502   41506   41510   41514   41518   41522   41526   41530   41534   41538
   41542   41546   41550   41554   41558   41562   41566   41570   41574   41578
   41582   41586   41590   41594   41598   41602   41606   41610   41614   41618
   41622   41626   41630   41634   41638   41642   41646   41650   41654   41658
   41662   41666   41670   41674   41678   41682   41686   41690   41694   41698
   41702   41706   41710   41714   41718   41722   41726   41730   41734   41738
   41742   41746   41750   41754   41758   41762   41766   41770   41774   41778
   41782   41786   41790   41794   41798   41802   41806   41810   41814   41818
   41822   41826   41830   41834   41838   41842   41846   41850   41854   41858
   41862   41866   41870   41874   41878   41882   41886   41890   41894   41898
   41902   41906   41910   41914   41918   41922   41926   41930   41934   41938
   41942   41946   41950   41954   41958   41962   41966   41970   41974   41978
   41982   41986   41990   41994   41998   42002   42006   42010   42014   42018
   42022   42026   42030   42034   42038   42042   42046   42050   42054   42058
   42062   42066   42070   42074   42078   42082   42086   42090   42094   42098
   42102   42106   42110   42114   42118   42122   42126   42130   42134   42138
   42142   42146   42150   42154   42158   42162   42166   42170   42174   42178
   42182   42186   42190   42194   42198   42202   42206   42210   42214   42218
   42222   42226   42230   42234   42238   42242   42246   42250   42254   42258
   42262   42266   42270   42274   42278   42282   42286   42290   42294   42298
   42302   42306   42310   42314   42318   42322   42326   42330   42334   42338
   42342   42346   42350   42354   42358   42362   42366   42370   42374   42378
   42382   42386   42390   42394   42398   42402   42406   42410   42414   42418
   42422   42426   42430   42434   42438   42442   42446   42450   42454   42458
   42462   42466   42470   42474   42478   42482   42486   42490   42494   42498
   42502   42506   42510   42514   42518   42522   42526   42530   42534   42538
   42542   42546   42550   42554   42558   42562   42566   42570   42574   42578
   42582   42586   42590   42594   42598   42602   42606   42610   42614   42618
   42622   42626   42630   42634   42638   42642   42646   42650   42654   42658
   42662   42666   42670   42674   42678   42682   42686   42690   42694   42698
   42702   42706   42710   42714   42718   42722   42726   42730   42734   42738
   42742   42746   42750   42754   42758   42762   42766   42770   42774   42778
   42782   42786   42790   42794   42798   42802   42806   42810   42814   42818
   42822   42826   42830   42834   42838   42842   42846   42850   42854   42858
   42862   42866   42870   42874   42878   42882   42886   42890   42894   42898
   42902   42906   42910   42914   42918   42922   42926   42930   42934   42938
   42942   42946   42950   42954   42958   42962   42966   42970   42974   42978
   42982   42986   42990   42994   42998   43002   43006   43010   43014   43018
   43022   43026   43030   43034   43038   43042   43046   43050   43054   43058
   43062   43066   43070   43074   43078   43082   43086   43090   43094   43098
   43102   43106   43110   43114   43118   43122   43126   43130   43134   43138
   43142   43146   43150   43154   43158   43162   43166   43170   43174   43178
   43182   43186   43190   43194   43198   43202   43206   43210   43214   43218
   43222   43226   43230   43234   43238   43242   43246   43250   43254   43258
   43262   43266   43270   43274   43278   43282   43286   43290   43294   43298
   43302   43306   43310   43314   43318   43322   43326   43330   43334   43338
   43342   43346   43350   43354   43358   43362   43366   43370   43374   43378
   43382   43386   43390   43394   43398   43402   43406   43410   43414   43418
   43422   43426   43430   43434   43438   43442   43446   43450   43454   43458
   43462   43466   43470   43474   43478   43482   43486   43490   43494   43498
   43502   43506   43510   43514   43518   43522   43526   43530   43534   43538
   43542   43546   43550   43554   43558   43562   43566   43570   43574   43578
   43582   43586   43590   43594   43598   43602   43606   43610   43614   43618
   43622   43626   43630   43634   43638   43642   43646   43650   43654   43658
   43662   43666   43670   43674   43678   43682   43686   43690   43694   43698
   43702   43706   43710   43714   43718   43722   43726   43730   43734   43738
   43742   43746   43750   43754   43758   43762   43766   43770   43774   43778
   43782   43786   43790   43794   43798   43802   43806   43810   43814   43818
   43822   43826   43830   43834   43838   43842   43846   43850   43854   43858
   43862   43866   43870   43874   43878   43882   43886   43890   43894   43898
   43902   43906   43910   43914   43918   43922   43926   43930   43934   43938
   43942   43946   43950   43954   43958   43962   43966   43970   43974   43978
   43982   43986   43990   43994   43998   44002   44006   44010   44014   44018
   44022   44026   44030   44034   44038   44042   44046   44050   44054   44058
   44062   44066   44070   44074   44078   44082   44086   44090   44094   44098
   44102   44106   44110   44114   44118   44122   44126   44130   44134   44138
   44142   44146   44150   44154   44158   44162   44166   44170   44174   44178
   44182   44186   44190   44194   44198   44202   44206   44210   44214   44218
   44222   44226   44230   44234   44238   44242   44246   44250   44254   44258
   44262   44266   44270   44274   44278   44282   44286   44290   44294   44298
   44302   44306   44310   44314   44318   44322   44326   44330   44334   44338
   44342   44346   44350   44354   44358   44362   44366   44370   44374   44378
   44382   44386   44390   44394   44398   44402   44406   44410   44414   44418
   44422   44426   44430   44434   44438   44442   44446   44450   44454   44458
   44462   44466   44470   44474   44478   44482   44486   44490   44494   44498
   44502   44506   44510   44514   44518   44522   44526   44530   44534   44538
   44542   44546   44550   44554   44558   44562   44566   44570   44574   44578
   44582   44586   44590   44594   44598   44602   44606   44610   44614   44618
   44622   44626   44630   44634   44638   44642   44646   44650   44654   44658
   44662   44666   44670   44674   44678   44682   44686   44690   44694   44698
   44702   44706   44710   44714   44718   44722   44726   44730   44734   44738
   44742   44746   44750   44754   44758   44762   44766   44770   44774   44778
   44782   44786   44790   44794   44798   44802   44806   44810   44814   44818
   44822   44826   44830   44834   44838   44842   44846   44850   44854   44858
   44862   44866   44870   44874   44878   44882   44886   44890   44894   44898
   44902   44906   44910   44914   44918   44922   44926   44930   44934   44938
   44942   44946   44950   44954   44958   44962   44966   44970   44974   44978
   44982   44986   44990   44994   44998   45002   45006   45010   45014   45018
   45022   45026   45030   45034   45038   45042   45046   45050   45054   45058
   45062   45066   45070   45074   45078   45082   45086   45090   45094   45098
   45102   45106   45110   45114   45118   45122   45126   45130   45134   45138
   45142   45146   45150   45154   45158   45162   45166   45170   45174   45178
   45182   45186   45190   45194   45198   45202   45206   45210   45214   45218
   45222   45226   45230   45234   45238   45242   45246   45250   45254   45258
   45262   45266   45270   45274   45278   45282   45286   45290   45294   45298
   45302   45306   45310   45314   45318   45322   45326   45330   45334   45338
   45342   45346   45350   45354   45358   45362   45366   45370   45374   45378
   45382   45386   45390   45394   45398   45402   45406   45410   45414   45418
   45422   45426   45430   45434   45438   45442   45446   45450   45454   45458
   45462   45466   45470   45474   45478   45482   45486   45490   45494   45498
   45502   45506   45510   45514   45518   45522   45526   45530   45534   45538
   45542   45546   45550   45554   45558   45562   45566   45570   45574   45578
   45582   45586   45590   45594   45598   45602   45606   45610   45614   45618
   45622   45626   45630   45634   45638   45642   45646   45650   45654   45658
   45662   45666   45670   45674   45678   45682   45686   45690   45694   45698
   45702   45706   45710   45714   45718   45722   45726   45730   45734   45738
   45742   45746   45750   45754   45758   45762   45766   45770   45774   45778
   45782   45786   45790   45794   45798   45802   45806   45810   45814   45818
   45822   45826   45830   45834   45838   45842   45846   45850   45854   45858
   45862   45866   45870   45874   45878   45882   45886   45890   45894   45898
   45902   45906   45910   45914   45918   45922   45926   45930   45934   45938
   45942   45946   45950   45954   45958   45962   45966   45970   45974   45978
   45982   45986   45990   45994   45998   46002   46006   46010   46014   46018
   46022   46026   46030   46034   46038   46042   46046   46050   46054   46058
   46062   46066   46070   46074   46078   46082   46086   46090   46094   46098
   46102   46106   46110   46114   46118   46122   46126   46130   46134   46138
   46142   46146   46150   46154   46158   46162   46166   46170   46174   46178
   46182   46186   46190   46194   46198   46202   46206   46210   46214   46218
   46222   46226   46230   46234   46238   46242   46246   46250   46254   46258
   46262   46266   46270   46274   46278   46282   46286   46290   46294   46298
   46302   46306   46310   46314   46318   46322   46326   46330   46334   46338
   46342   46346   46350   46354   46358   46362   46366   46370   46374   46378
   46382   46386   46390   46394   46398   46402   46406   46410   46414   46418
   46422   46426   46430   46434   46438   46442   46446   46450   46454   46458
   46462   46466   46470   46474   46478   46482   46486   46490   46494   46498
   46502   46506   46510   46514   46518   46522   46526   46530   46534   46538
   46542   46546   46550   46554   46558   46562   46566   46570   46574   46578
   46582   46586   46590   46594   46598   46602   46606   46610   46614   46618
   46622   46626   46630   46634   46638   46642   46646   46650   46654   46658
   46662   46666   46670   46674   46678   46682   46686   46690   46694   46698
   46702   46706   46710   46714   46718   46722   46726   46730   46734   46738
   46742   46746   46750   46754   46758   46762   46766   46770   46774   46778
   46782   46786   46790   46794   46798   46802   46806   46810   46814   46818
   46822   46826   46830   46834   46838   46842   46846   46850   46854   46858
   46862   46866   46870   46874   46878   46882   46886   46890   46894   46898
   46902   46906   46910   46914   46918   46922   46926   46930   46934   46938
   46942   46946   46950   46954   46958   46962   46966   46970   46974   46978
   46982   46986   46990   46994   46998   47002   47006   47010   47014   47018
   47022   47026   47030   47034   47038   47042   47046   47050   47054   47058
   47062   47066   47070   47074   47078   47082   47086   47090   47094   47098
   47102   47106   47110   47114   47118   47122   47126   47130   47134   47138
   47142   47146   47150   47154   47158   47162   47166   47170   47174   47178
   47182   47186   47190   47194   47198   47202   47206   47210   47214   47218
   47222   47226   47230   47234   47238   47242   47246   47250   47254   47258
   47262   47266   47270   47274   47278   47282   47286   47290   47294   47298
   47302   47306   47310   47314   47318   47322   47326   47330   47334   47338
   47342   47346   47350   47354   47358   47362   47366   47370   47374   47378
   47382   47386   47390   47394   47398   47402   47406   47410   47414   47418
   47422   47426   47430   47434   47438   47442   47446   47450   47454   47458
   47462   47466   47470   47474   47478   47482   47486   47490   47494   47498
   47502   47506   47510   47514   47518   47522   47526   47530   47534   47538
   47542   47546   47550   47554   47558   47562   47566   47570   47574   47578
   47582   47586   47590   47594   47598   47602   47606   47610   47614   47618
   47622   47626   47630   47634   47638   47642   47646   47650   47654   47658
   47662   47666   47670   47674   47678   47682   47686   47690   47694   47698
   47702   47706   47710   47714   47718   47722   47726   47730   47734   47738
   47742   47746   47750   47754   47758   47762   47766   47770   47774   47778
   47782   47786   47790   47794   47798   47802   47806   47810   47814   47818
   47822   47826   47830   47834   47838   47842   47846   47850   47854   47858
   47862   47866   47870   47874   47878   47882   47886   47890   47894   47898
   47902   47906   47910   47914   47918   47922   47926   47930   47934   47938
   47942   47946   47950   47954   47958   47962   47966   47970   47974   47978
   47982   47986   47990   47994   47998   48002   48006   48010   48014   48018
   48022   48026   48030   48034   48038   48042   48046   48050   48054   48058
   48062   48066   48070   48074   48078   48082   48086   48090   48094   48098
   48102   48106   48110   48114   48118   48122   48126   48130   48134   48138
   48142   48146   48150   48154   48158   48162   48166   48170   48174   48178
   48182   48186   48190   48194   48198   48202   48206   48210   48214   48218
   48222   48226   48230   48234   48238   48242   48246   48250   48254   48258
   48262   48266   48270   48274   48278   48282   48286   48290   48294   48298
   48302   48306   48310   48314   48318   48322   48326   48330   48334   48338
   48342   48346   48350   48354   48358   48362   48366   48370   48374   48378
   48382   48386   48390   48394   48398   48402   48406   48410   48414   48418
   48422   48426   48430   48434   48438   48442   48446   48450   48454   48458
   48462   48466   48470   48474   48478   48482   48486   48490   48494   48498
   48502   48506   48510   48514   48518   48522   48526   48530   48534   48538
   48542   48546   48550   48554   48558   48562   48566   48570   48574   48578
   48582   48586   48590   48594   48598   48602   48606   48610   48614   48618
   48622   48626   48630   48634   48638   48642   48646   48650   48654   48658
   48662   48666   48670   48674   48678   48682   48686   48690   48694   48698
   48702   48706   48710   48714   48718   48722   48726   48730   48734   48738
   48742   48746   48750   48754   48758   48762   48766   48770   48774   48778
   48782   48786   48790   48794   48798   48802   48806   48810   48814   48818
   48822   48826   48830   48834   48838   48842   48846   48850   48854   48858
   48862   48866   48870   48874   48878   48882   48886   48890   48894   48898
   48902   48906   48910   48914   48918   48922   48926   48930   48934   48938
   48942   48946   48950   48954   48958   48962   48966   48970   48974   48978
   48982   48986   48990   48994   48998   49002   49006   49010   49014   49018
   49022   49026   49030   49034   49038   49042   49046   49050   49054   49058
   49062   49066   49070   49074   49078   49082   49086   49090   49094   49098
   49102   49106   49110   49114   49118   49122   49126   49130   49134   49138
   49142   49146   49150   49154   49158   49162   49166   49170   49174   49178
   49182   49186   49190   49194   49198   49202   49206   49210   49214   49218
   49222   49226   49230   49234   49238   49242   49246   49250   49254   49258
   49262   49266   49270   49274   49278   49282   49286   49290   49294   49298
   49302   49306   49310   49314   49318   49322   49326   49330   49334   49338
   49342   49346   49350   49354   49358   49362   49366   49370   49374   49378
   49382   49386   49390   49394   49398   49402   49406   49410   49414   49418
   49422   49426   49430   49434   49438   49442   49446   49450   49454   49458
   49462   49466   49470   49474   49478   49482   49486   49490   49494   49498
   49502   49506   49510   49514   49518   49522   49526   49530   49534   49538
   49542   49546   49550   49554   49558   49562   49566   49570   49574   49578
   49582   49586   49590   49594   49598   49602   49606   49610   49614   49618
   49622   49626   49630   49634   49638   49642   49646   49650   49654   49658
   49662   49666   49670   49674   49678   49682   49686   49690   49694   49698
   49702   49706   49710   49714   49718   49722   49726   49730   49734   49738
   49742   49746   49750   49754   49758   49762   49766   49770   49774   49778
   49782   49786   49790   49794   49798   49802   49806   49810   49814   49818
   49822   49826   49830   49834   49838   49842   49846   49850   49854   49858
   49862   49866   49870   49874   49878   49882   49886   49890   49894   49898
   49902   49906   49910   49914   49918   49922   49926   49930   49934   49938
   49942   49946   49950   49954   49958   49962   49966   49970   49974   49978
   49982   49986   49990   49994   49998   50002   50006   50010   50014   50018
   50022   50026   50030   50034   50038   50042   50046   50050   50054   50058
   50062   50066   50070   50074   50078   50082   50086   50090   50094   50098
   50102   50106   50110   50114   50118   50122   50126   50130   50134   50138
   50142   50146   50150   50154   50158   50162   50166   50170   50174   50178
   50182   50186   50190   50194   50198   50202   50206   50210   50214   50218
   50222   50226   50230   50234   50238   50242   50246   50250   50254   50258
   50262   50266   50270   50274   50278   50282   50286   50290   50294   50298
   50302   50306   50310   50314   50318   50322   50326   50330   50334   50338
   50342   50346   50350   50354   50358   50362   50366   50370   50374   50378
   50382   50386   50390   50394   50398   50402   50406   50410   50414   50418
   50422   50426   50430   50434   50438   50442   50446   50450   50454   50458
   50462   50466   50470   50474   50478   50482   50486   50490   50494   50498
   50502   50506   50510   50514   50518   50522   50526   50530   50534   50538
   50542   50546   50550   50554   50558   50562   50566   50570   50574   50578
   50582   50586   50590   50594   50598   50602   50606   50610   50614   50618
   50622   50626   50630   50634   50638   50642   50646   50650   50654   50658
   50662   50666   50670   50674   50678   50682   50686   50690   50694   50698
   50702   50706   50710   50714   50718   50722   50726   50730   50734   50738
   50742   50746   50750   50754   50758   50762   50766   50770   50774   50778
   50782   50786   50790   50794   50798   50802   50806   50810   50814   50818
   50822   50826   50830   50834   50838   50842   50846   50850   50854   50858
   50862   50866   50870   50874   50878   50882   50886   50890   50894   50898
   50902   50906   50910   50914   50918   50922   50926   50930   50934   50938
   50942   50946   50950   50954   50958   50962   50966   50970   50974   50978
   50982   50986   50990   50994   50998   51002   51006   51010   51014   51018
   51022   51026   51030   51034   51038   51042   51046   51050   51054   51058
   51062   51066   51070   51074   51078   51082   51086   51090   51094   51098
   51102   51106   51110   51114   51118   51122   51126   51130   51134   51138
   51142   51146   51150   51154   51158   51162   51166   51170   51174   51178
   51182   51186   51190   51194   51198   51202   51206   51210   51214   51218
   51222   51226   51230   51234   51238   51242   51246   51250   51254   51258
   51262   51266   51270   51274   51278   51282   51286   51290   51294   51298
   51302   51306   51310   51314   51318   51322   51326   51330   51334   51338
   51342   51346   51350   51354   51358   51362   51366   51370   51374   51378
   51382   51386   51390   51394   51398   51402   51406   51410   51414   51418
   51422   51426   51430   51434   51438   51442   51446   51450   51454   51458
   51462   51466   51470   51474   51478   51482   51486   51490   51494   51498
   51502   51506   51510   51514   51518   51522   51526   51530   51534   51538
   51542   51546   51550   51554   51558   51562   51566   51570   51574   51578
   51582   51586   51590   51594   51598   51602   51606   51610   51614   51618
   51622   51626   51630   51634   51638   51642   51646   51650   51654   51658
   51662   51666   51670   51674   51678   51682   51686   51690   51694   51698
   51702   51706   51710   51714   51718   51722   51726   51730   51734   51738
   51742   51746   51750   51754   51758   51762   51766
%FLAG BOND_FORCE_CONSTANT                                                       
%FORMAT(5E16.8)                                                                 
  6.52600000E+02  3.56200000E+02  3.40000000E+02  3.17000000E+02  3.67000000E+02
  4.69000000E+02  4.69000000E+02  4.69000000E+02  4.47000000E+02  4.34000000E+02
  4.28000000E+02  3.67000000E+02  4.27000000E+02  5.46000000E+02  3.88000000E+02
  3.17000000E+02  3.40000000E+02  3.10000000E+02  3.17000000E+02  5.27300000E+02
  3.37000000E+02  3.40000000E+02  3.10000000E+02  3.10000000E+02  5.53000000E+02
  3.40000000E+02  3.20000000E+02  3.67000000E+02  4.10000000E+02  3.67000000E+02
  4.88000000E+02  4.77000000E+02  4.22000000E+02  5.12000000E+02  3.17000000E+02
  4.34000000E+02  4.81000000E+02  3.40000000E+02  3.37000000E+02  3.40000000E+02
  3.10000000E+02  3.10000000E+02  3.75900000E+02  2.32500000E+02  2.50300000E+02
  3.95700000E+02  3.78600000E+02  2.32500000E+02  2.63800000E+02  2.43200000E+02
  3.40000000E+02  3.10000000E+02  3.10000000E+02  3.40000000E+02  3.20000000E+02
  4.34000000E+02  3.40000000E+02  3.67000000E+02  3.17000000E+02  3.17000000E+02
  3.10000000E+02  3.40000000E+02  3.37000000E+02  6.56000000E+02  3.17000000E+02
  5.53000000E+02  5.53000000E+02  5.53000000E+02
%FLAG BOND_EQUIL_VALUE                                                          
%FORMAT(5E16.8)                                                                 
  1.21800000E+00  1.37900000E+00  1.09000000E+00  1.52200000E+00  1.08000000E+00
  1.40400000E+00  1.40000000E+00  1.40000000E+00  1.41900000E+00  1.01000000E+00
  1.38000000E+00  1.08000000E+00  1.38100000E+00  1.35200000E+00  1.45900000E+00
  1.49500000E+00  1.09000000E+00  1.52600000E+00  1.52200000E+00  1.01300000E+00
  1.44900000E+00  1.09000000E+00  1.52600000E+00  1.52600000E+00  9.60000000E-01
  1.09000000E+00  1.41000000E+00  1.08000000E+00  1.39400000E+00  1.08000000E+00
  1.33500000E+00  1.34300000E+00  1.38500000E+00  1.37500000E+00  1.50400000E+00
  1.01000000E+00  1.34000000E+00  1.09000000E+00  1.46300000E+00  1.09000000E+00
  1.52600000E+00  1.52600000E+00  1.09700000E+00  1.53800000E+00  1.51600000E+00
  1.08600000E+00  1.39800000E+00  1.53800000E+00  1.46200000E+00  1.52400000E+00
  1.09000000E+00  1.52600000E+00  1.52600000E+00  1.09000000E+00  1.41000000E+00
  1.01000000E+00  1.09000000E+00  1.47100000E+00  1.52200000E+00  1.51000000E+00
  1.52600000E+00  1.09000000E+00  1.44900000E+00  1.25000000E+00  1.52200000E+00
  8.72433130E-01  1.37120510E+00  1.59398330E-01
%FLAG ANGLE_FORCE_CONSTANT                                                      
%FORMAT(5E16.8)                                                                 
  1.13800000E+02  4.87000000E+01  5.00000000E+01  5.00000000E+01  3.50000000E+01
  8.00000000E+01  7.00000000E+01  5.00000000E+01  5.00000000E+01  6.30000000E+01
  6.30000000E+01  6.30000000E+01  5.00000000E+01  6.30000000E+01  6.30000000E+01
  5.00000000E+01  7.00000000E+01  7.00000000E+01  5.00000000E+01  6.30000000E+01
  5.00000000E+01  7.00000000E+01  5.00000000E+01  7.00000000E+01  6.30000000E+01
  6.30000000E+01  5.00000000E+01  6.30000000E+01  7.00000000E+01  7.00000000E+01
  5.00000000E+01  5.00000000E+01  5.00000000E+01  6.30000000E+01  8.00000000E+01
  7.00000000E+01  5.00000000E+01  5.00000000E+01  8.00000000E+01  6.30000000E+01
  4.00000000E+01  5.00000000E+01  6.30000000E+01  5.00000000E+01  5.00000000E+01
  5.00000000E+01  4.00000000E+01  8.00000000E+01  5.00000000E+01  5.00000000E+01
  5.00000000E+01  5.50000000E+01  5.00000000E+01  5.00000000E+01  5.00000000E+01
  5.00000000E+01  7.00000000E+01  5.00000000E+01  7.00000000E+01  5.00000000E+01
  7.00000000E+01  5.00000000E+01  7.00000000E+01  7.00000000E+01  5.00000000E+01
  5.00000000E+01  7.00000000E+01  7.00000000E+01  6.30000000E+01  6.53000000E+01
  3.50000000E+01  7.00000000E+01  5.00000000E+01  5.00000000E+01  3.50000000E+01
  5.00000000E+01  5.00000000E+01  5.00000000E+01  3.50000000E+01  5.00000000E+01
  8.00000000E+01  6.30000000E+01  4.00000000E+01  5.00000000E+01  5.00000000E+01
  4.00000000E+01  8.00000000E+01  4.68000000E+01  3.90000000E+01  4.62780000E+01
  6.49000000E+01  4.89000000E+01  4.75000000E+01  6.55500000E+01  6.59000000E+01
  8.32000000E+01  6.49000000E+01  8.43000000E+01  4.68000000E+01  6.49000000E+01
  4.61000000E+01  8.46000000E+01  6.53000000E+01  8.45000000E+01  3.50000000E+01
  5.00000000E+01  3.50000000E+01  6.30000000E+01  5.00000000E+01  4.00000000E+01
  5.00000000E+01  5.00000000E+01  4.00000000E+01  8.00000000E+01  5.00000000E+01
  3.50000000E+01  5.50000000E+01  5.00000000E+01  5.00000000E+01  3.50000000E+01
  5.00000000E+01  3.50000000E+01  5.00000000E+01  5.00000000E+01  8.00000000E+01
  3.50000000E+01  5.00000000E+01  8.00000000E+01  7.00000000E+01  6.30000000E+01
  5.00000000E+01  7.00000000E+01  6.30000000E+01  5.00000000E+01  5.00000000E+01
  4.00000000E+01  5.00000000E+01  3.50000000E+01  5.00000000E+01  4.00000000E+01
  5.00000000E+01  8.00000000E+01  8.00000000E+01  5.00000000E+01  7.00000000E+01
  6.30000000E+01
%FLAG ANGLE_EQUIL_VALUE                                                         
%FORMAT(5E16.8)                                                                 
  2.14762857E+00  2.05163542E+00  2.12755727E+00  1.91113635E+00  1.91113635E+00
  2.10137732E+00  2.03505478E+00  2.09439600E+00  2.09439600E+00  2.09439600E+00
  2.09439600E+00  2.14151991E+00  2.09439600E+00  2.09439600E+00  2.02807346E+00
  2.14850123E+00  2.31779824E+00  1.82212452E+00  2.09439600E+00  1.85703112E+00
  2.09439600E+00  1.94778828E+00  2.09439600E+00  1.89717371E+00  1.89891904E+00
  2.35445017E+00  1.91113635E+00  1.93906163E+00  2.18166250E+00  2.24449438E+00
  1.91113635E+00  1.91113635E+00  1.91113635E+00  2.01760148E+00  2.10137732E+00
  2.03505478E+00  2.06018753E+00  1.91113635E+00  1.91462701E+00  1.92160833E+00
  1.91113635E+00  1.91113635E+00  1.93906163E+00  1.91113635E+00  1.91113635E+00
  1.91113635E+00  1.91113635E+00  1.91462701E+00  1.91113635E+00  1.91113635E+00
  1.91113635E+00  1.89368305E+00  1.91113635E+00  1.91113635E+00  2.09439600E+00
  2.09439600E+00  2.04203610E+00  2.09439600E+00  2.09439600E+00  2.09439600E+00
  2.09439600E+00  2.09439600E+00  2.09439600E+00  2.09439600E+00  2.09439600E+00
  1.91113635E+00  2.09439600E+00  2.09439600E+00  1.97396823E+00  2.10643878E+00
  2.09439600E+00  2.09439600E+00  2.09439600E+00  1.91113635E+00  1.91113635E+00
  2.06647072E+00  2.15024656E+00  1.91113635E+00  1.91113635E+00  1.91113635E+00
  1.94080696E+00  1.93906163E+00  1.91113635E+00  1.91113635E+00  1.91113635E+00
  1.91113635E+00  1.91462701E+00  1.91637234E+00  1.87762601E+00  2.02938246E+00
  1.94621748E+00  2.09230160E+00  1.92806605E+00  1.95599133E+00  2.10783504E+00
  1.94796281E+00  1.94621748E+00  2.01027109E+00  1.91637234E+00  1.94621748E+00
  2.05390434E+00  2.15024656E+00  1.93801443E+00  1.90345690E+00  1.91113635E+00
  1.91113635E+00  1.91113635E+00  1.93906163E+00  1.91113635E+00  1.91113635E+00
  1.91113635E+00  1.91113635E+00  1.91113635E+00  1.91462701E+00  1.91113635E+00
  1.91113635E+00  1.89368305E+00  1.91113635E+00  1.91113635E+00  1.91113635E+00
  1.91113635E+00  1.91113635E+00  1.91113635E+00  1.91113635E+00  1.94080696E+00
  2.09439600E+00  1.91113635E+00  2.10137732E+00  2.03505478E+00  1.93906163E+00
  1.91113635E+00  2.09439600E+00  1.98967620E+00  2.12755727E+00  1.91113635E+00
  1.91113635E+00  1.91113635E+00  1.91113635E+00  2.05948940E+00  1.91113635E+00
  1.91113635E+00  1.91462701E+00  2.19911580E+00  1.91113635E+00  2.04203610E+00
  1.93906163E+00
%FLAG DIHEDRAL_FORCE_CONSTANT                                                   
%FORMAT(5E16.8)                                                                 
  2.00000000E+00  2.50000000E+00  0.00000000E+00  0.00000000E+00  0.00000000E+00
  0.00000000E+00  8.00000000E-01  8.00000000E-02  3.62500000E+00  3.00000000E+00
  3.50000000E+00  1.52500000E+00  6.52500000E+00  1.50000000E+00  1.67500000E+00
  1.70000000E-02  3.53000000E-01  2.34000000E-01  7.40000000E-02  1.55555556E-01
  0.00000000E+00  3.65000000E-01  4.08000000E-01  8.19000000E-01  9.50000000E-02
  7.90000000E-02  3.13000000E-01  3.10000000E-02  0.00000000E+00  0.00000000E+00
  4.06000000E-01  2.89000000E-01  1.48000000E-01  1.12000000E-01  1.60000000E-01
  1.50000000E-01  3.37000000E-01  2.16000000E-01  1.00000000E-03  6.97000000E-01
  1.19000000E-01  3.15000000E-01  1.56000000E-01  2.50000000E-01  6.43000000E-01
  7.90000000E-02  2.36000000E-01  4.80000000E-02  1.66666667E-01  6.00000000E-03
  2.51000000E-01  1.30000000E-02  6.74000000E-01  6.00000000E-03  9.50000000E-02
  5.00000000E+00  1.40000000E+00  2.40000000E+00  2.32500000E+00  5.15000000E+00
  1.43000000E-01  2.44000000E-01  2.19000000E-01  2.50000000E-02  1.60000000E-01
  3.92000000E-01  6.86000000E-01  3.70000000E-02  6.74000000E-01  7.50000000E-01
  1.22000000E-01  1.00000000E-02  3.06000000E-01  2.21000000E-01  8.90000000E-02
  6.40000000E-01  3.90000000E-01  1.02000000E+00  1.70000000E-01  1.00000000E-01
  2.00000000E-01  2.50000000E-01  1.80000000E-01  8.00000000E-02  1.20000000E-01
  3.63000000E+00  1.00000000E-01  2.12000000E+00  1.57777778E-01  3.66250000E+00
  1.10000000E-01  2.90000000E-01  1.30000000E-01  1.00000000E-02  1.61111111E-01
  1.58888889E-01  2.65000000E-01  1.00000000E-01  7.10000000E-01  0.00000000E+00
  2.70000000E-01  7.06000000E-01  6.20000000E-01  1.44000000E-01  1.90000000E-01
  3.79000000E-01  2.70000000E-02  1.42000000E-01  1.79000000E-01  9.80000000E-02
  2.59000000E-01  7.30000000E-02  6.61000000E-01  2.18000000E-01  4.01000000E-01
  1.29000000E-01  2.11000000E-01  4.44000000E-01  2.67000000E-01  7.00000000E-03
  6.66000000E-01  2.46000000E-01  1.60000000E-01  1.04600000E+00  3.03000000E-01
  3.30000000E-02  1.07000000E-01  8.28000000E-01  4.85000000E-01  3.01000000E-01
  8.00000000E-03  6.88000000E-01  2.97000000E-01  5.90000000E-02  5.50000000E-02
  4.69000000E-01  1.92000000E-01  1.20000000E-02  6.90000000E-02  4.80000000E-02
  1.20000000E-02  7.00000000E-03  2.00000000E+00  4.00000000E-01  4.24000000E-01
  4.59000000E-01  5.80000000E-02  1.54000000E-01  7.69000000E-01  3.10000000E-02
  2.15400000E+00  6.47000000E-01  1.05000000E+01  0.00000000E+00  1.10000000E+00
  1.00000000E+00
%FLAG DIHEDRAL_PERIODICITY                                                      
%FORMAT(5E16.8)                                                                 
  1.00000000E+00  2.00000000E+00  2.00000000E+00  1.00000000E+00  3.00000000E+00
  4.00000000E+00  1.00000000E+00  3.00000000E+00  2.00000000E+00  2.00000000E+00
  2.00000000E+00  2.00000000E+00  2.00000000E+00  2.00000000E+00  2.00000000E+00
  1.00000000E+00  2.00000000E+00  3.00000000E+00  4.00000000E+00  3.00000000E+00
  3.00000000E+00  1.00000000E+00  2.00000000E+00  3.00000000E+00  4.00000000E+00
  1.00000000E+00  2.00000000E+00  4.00000000E+00  1.00000000E+00  2.00000000E+00
  1.00000000E+00  2.00000000E+00  3.00000000E+00  4.00000000E+00  3.00000000E+00
  3.00000000E+00  1.00000000E+00  2.00000000E+00  4.00000000E+00  1.00000000E+00
  2.00000000E+00  3.00000000E+00  4.00000000E+00  1.00000000E+00  1.00000000E+00
  2.00000000E+00  3.00000000E+00  4.00000000E+00  3.00000000E+00  1.00000000E+00
  2.00000000E+00  4.00000000E+00  1.00000000E+00  2.00000000E+00  4.00000000E+00
  2.00000000E+00  2.00000000E+00  2.00000000E+00  2.00000000E+00  2.00000000E+00
  1.00000000E+00  2.00000000E+00  3.00000000E+00  4.00000000E+00  1.00000000E+00
  2.00000000E+00  3.00000000E+00  4.00000000E+00  1.00000000E+00  2.00000000E+00
  3.00000000E+00  4.00000000E+00  1.00000000E+00  2.00000000E+00  4.00000000E+00
  1.00000000E+00  2.00000000E+00  1.00000000E+00  3.00000000E+00  4.00000000E+00
  1.00000000E+00  2.00000000E+00  3.00000000E+00  3.00000000E+00  3.00000000E+00
  2.00000000E+00  1.00000000E+00  2.00000000E+00  3.00000000E+00  2.00000000E+00
  1.00000000E+00  2.00000000E+00  3.00000000E+00  2.00000000E+00  3.00000000E+00
  3.00000000E+00  2.00000000E+00  3.00000000E+00  2.00000000E+00  4.00000000E+00
  2.00000000E+00  1.00000000E+00  2.00000000E+00  3.00000000E+00  4.00000000E+00
  1.00000000E+00  2.00000000E+00  3.00000000E+00  4.00000000E+00  1.00000000E+00
  2.00000000E+00  4.00000000E+00  1.00000000E+00  2.00000000E+00  3.00000000E+00
  4.00000000E+00  1.00000000E+00  2.00000000E+00  3.00000000E+00  4.00000000E+00
  1.00000000E+00  2.00000000E+00  4.00000000E+00  1.00000000E+00  2.00000000E+00
  3.00000000E+00  4.00000000E+00  1.00000000E+00  2.00000000E+00  3.00000000E+00
  4.00000000E+00  1.00000000E+00  2.00000000E+00  4.00000000E+00  1.00000000E+00
  2.00000000E+00  3.00000000E+00  4.00000000E+00  2.00000000E+00  4.00000000E+00
  1.00000000E+00  4.00000000E+00  2.00000000E+00  3.00000000E+00  1.00000000E+00
  2.00000000E+00  3.00000000E+00  4.00000000E+00  2.00000000E+00  4.00000000E+00
  1.00000000E+00  2.00000000E+00  2.00000000E+00  2.00000000E+00  2.00000000E+00
  2.00000000E+00
%FLAG DIHEDRAL_PHASE                                                            
%FORMAT(5E16.8)                                                                 
  0.00000000E+00  3.14159400E+00  0.00000000E+00  0.00000000E+00  0.00000000E+00
  0.00000000E+00  0.00000000E+00  3.14159400E+00  3.14159400E+00  3.14159400E+00
  3.14159400E+00  3.14159400E+00  3.14159400E+00  3.14159400E+00  3.14159400E+00
  3.14159400E+00  3.14159400E+00  0.00000000E+00  0.00000000E+00  0.00000000E+00
  3.14159400E+00  0.00000000E+00  0.00000000E+00  0.00000000E+00  3.14159400E+00
  0.00000000E+00  3.14159400E+00  0.00000000E+00  3.14159400E+00  3.14159400E+00
  3.14159400E+00  3.14159400E+00  0.00000000E+00  0.00000000E+00  0.00000000E+00
  0.00000000E+00  0.00000000E+00  3.14159400E+00  3.14159400E+00  3.14159400E+00
  3.14159400E+00  0.00000000E+00  0.00000000E+00  0.00000000E+00  0.00000000E+00
  3.14159400E+00  0.00000000E+00  0.00000000E+00  0.00000000E+00  3.14159400E+00
  0.00000000E+00  0.00000000E+00  0.00000000E+00  0.00000000E+00  0.00000000E+00
  3.14159400E+00  3.14159400E+00  3.14159400E+00  3.14159400E+00  3.14159400E+00
  3.14159400E+00  3.14159400E+00  0.00000000E+00  0.00000000E+00  3.14159400E+00
  3.14159400E+00  0.00000000E+00  3.14159400E+00  3.14159400E+00  0.00000000E+00
  3.14159400E+00  3.14159400E+00  3.14159400E+00  3.14159400E+00  0.00000000E+00
  0.00000000E+00  3.14159400E+00  3.14159400E+00  0.00000000E+00  3.14159400E+00
  3.14159400E+00  3.14159400E+00  0.00000000E+00  0.00000000E+00  0.00000000E+00
  3.14159400E+00  3.14159400E+00  3.14159400E+00  0.00000000E+00  3.14159400E+00
  0.00000000E+00  3.14159400E+00  0.00000000E+00  3.14159400E+00  0.00000000E+00
  0.00000000E+00  3.14159400E+00  0.00000000E+00  3.14159400E+00  3.14159400E+00
  3.14159400E+00  0.00000000E+00  3.14159400E+00  0.00000000E+00  0.00000000E+00
  0.00000000E+00  3.14159400E+00  0.00000000E+00  0.00000000E+00  0.00000000E+00
  3.14159400E+00  0.00000000E+00  3.14159400E+00  3.14159400E+00  0.00000000E+00
  0.00000000E+00  0.00000000E+00  0.00000000E+00  0.00000000E+00  0.00000000E+00
  0.00000000E+00  3.14159400E+00  0.00000000E+00  0.00000000E+00  3.14159400E+00
  0.00000000E+00  0.00000000E+00  3.14159400E+00  3.14159400E+00  3.14159400E+00
  0.00000000E+00  3.14159400E+00  3.14159400E+00  0.00000000E+00  0.00000000E+00
  3.14159400E+00  0.00000000E+00  3.14159400E+00  3.14159400E+00  3.14159400E+00
  3.14159400E+00  3.14159400E+00  0.00000000E+00  0.00000000E+00  0.00000000E+00
  3.14159400E+00  0.00000000E+00  0.00000000E+00  3.14159400E+00  3.14159400E+00
  3.14159400E+00  3.14159400E+00  3.14159400E+00  3.14159400E+00  3.14159400E+00
  3.14159400E+00
%FLAG SCEE_SCALE_FACTOR                                                         
%FORMAT(5E16.8)                                                                 
  1.20000000E+00  1.20000000E+00  1.20000000E+00  1.20000000E+00  1.20000000E+00
  1.20000000E+00  1.20000000E+00  1.20000000E+00  1.20000000E+00  1.20000000E+00
  1.20000000E+00  1.20000000E+00  1.20000000E+00  1.20000000E+00  1.20000000E+00
  1.20000000E+00  1.20000000E+00  1.20000000E+00  1.20000000E+00  1.20000000E+00
  1.20000000E+00  1.20000000E+00  1.20000000E+00  1.20000000E+00  1.20000000E+00
  1.20000000E+00  1.20000000E+00  1.20000000E+00  1.20000000E+00  1.20000000E+00
  1.20000000E+00  1.20000000E+00  1.20000000E+00  1.20000000E+00  1.20000000E+00
  1.20000000E+00  1.20000000E+00  1.20000000E+00  1.20000000E+00  1.20000000E+00
  1.20000000E+00  1.20000000E+00  1.20000000E+00  1.20000000E+00  1.20000000E+00
  1.20000000E+00  1.20000000E+00  1.20000000E+00  1.20000000E+00  1.20000000E+00
  1.20000000E+00  1.20000000E+00  1.20000000E+00  1.20000000E+00  1.20000000E+00
  1.20000000E+00  1.20000000E+00  1.20000000E+00  1.20000000E+00  1.20000000E+00
  1.20000000E+00  1.20000000E+00  1.20000000E+00  1.20000000E+00  1.20000000E+00
  1.20000000E+00  1.20000000E+00  1.20000000E+00  1.20000000E+00  1.20000000E+00
  1.20000000E+00  1.20000000E+00  1.20000000E+00  1.20000000E+00  1.20000000E+00
  1.20000000E+00  1.20000000E+00  1.20000000E+00  1.20000000E+00  1.20000000E+00
  1.20000000E+00  1.20000000E+00  1.20000000E+00  1.20000000E+00  1.20000000E+00
  1.20000000E+00  1.20000000E+00  1.20000000E+00  1.20000000E+00  1.20000000E+00
  1.20000000E+00  1.20000000E+00  1.20000000E+00  1.20000000E+00  1.20000000E+00
  1.20000000E+00  1.20000000E+00  1.20000000E+00  1.20000000E+00  1.20000000E+00
  1.20000000E+00  1.20000000E+00  1.20000000E+00  1.20000000E+00  1.20000000E+00
  1.20000000E+00  1.20000000E+00  1.20000000E+00  1.20000000E+00  1.20000000E+00
  1.20000000E+00  1.20000000E+00  1.20000000E+00  1.20000000E+00  1.20000000E+00
  1.20000000E+00  1.20000000E+00  1.20000000E+00  1.20000000E+00  1.20000000E+00
  1.20000000E+00  1.20000000E+00  1.20000000E+00  1.20000000E+00  1.20000000E+00
  1.20000000E+00  1.20000000E+00  1.20000000E+00  1.20000000E+00  1.20000000E+00
  1.20000000E+00  1.20000000E+00  1.20000000E+00  1.20000000E+00  1.20000000E+00
  1.20000000E+00  1.20000000E+00  1.20000000E+00  1.20000000E+00  1.20000000E+00
  1.20000000E+00  1.20000000E+00  1.20000000E+00  1.20000000E+00  1.20000000E+00
  1.20000000E+00  1.20000000E+00  1.20000000E+00  1.20000000E+00  1.20000000E+00
  1.20000000E+00  1.20000000E+00  0.00000000E+00  0.00000000E+00  0.00000000E+00
  0.00000000E+00
%FLAG SCNB_SCALE_FACTOR                                                         
%FORMAT(5E16.8)                                                                 
  2.00000000E+00  2.00000000E+00  2.00000000E+00  2.00000000E+00  2.00000000E+00
  2.00000000E+00  2.00000000E+00  2.00000000E+00  2.00000000E+00  2.00000000E+00
  2.00000000E+00  2.00000000E+00  2.00000000E+00  2.00000000E+00  2.00000000E+00
  2.00000000E+00  2.00000000E+00  2.00000000E+00  2.00000000E+00  2.00000000E+00
  2.00000000E+00  2.00000000E+00  2.00000000E+00  2.00000000E+00  2.00000000E+00
  2.00000000E+00  2.00000000E+00  2.00000000E+00  2.00000000E+00  2.00000000E+00
  2.00000000E+00  2.00000000E+00  2.00000000E+00  2.00000000E+00  2.00000000E+00
  2.00000000E+00  2.00000000E+00  2.00000000E+00  2.00000000E+00  2.00000000E+00
  2.00000000E+00  2.00000000E+00  2.00000000E+00  2.00000000E+00  2.00000000E+00
  2.00000000E+00  2.00000000E+00  2.00000000E+00  2.00000000E+00  2.00000000E+00
  2.00000000E+00  2.00000000E+00  2.00000000E+00  2.00000000E+00  2.00000000E+00
  2.00000000E+00  2.00000000E+00  2.00000000E+00  2.00000000E+00  2.00000000E+00
  2.00000000E+00  2.00000000E+00  2.00000000E+00  2.00000000E+00  2.00000000E+00
  2.00000000E+00  2.00000000E+00  2.00000000E+00  2.00000000E+00  2.00000000E+00
  2.00000000E+00  2.00000000E+00  2.00000000E+00  2.00000000E+00  2.00000000E+00
  2.00000000E+00  2.00000000E+00  2.00000000E+00  2.00000000E+00  2.00000000E+00
  2.00000000E+00  2.00000000E+00  2.00000000E+00  2.00000000E+00  2.00000000E+00
  2.00000000E+00  2.00000000E+00  2.00000000E+00  2.00000000E+00  2.00000000E+00
  2.00000000E+00  2.00000000E+00  2.00000000E+00  2.00000000E+00  2.00000000E+00
  2.00000000E+00  2.00000000E+00  2.00000000E+00  2.00000000E+00  2.00000000E+00
  2.00000000E+00  2.00000000E+00  2.00000000E+00  2.00000000E+00  2.00000000E+00
  2.00000000E+00  2.00000000E+00  2.00000000E+00  2.00000000E+00  2.00000000E+00
  2.00000000E+00  2.00000000E+00  2.00000000E+00  2.00000000E+00  2.00000000E+00
  2.00000000E+00  2.00000000E+00  2.00000000E+00  2.00000000E+00  2.00000000E+00
  2.00000000E+00  2.00000000E+00  2.00000000E+00  2.00000000E+00  2.00000000E+00
  2.00000000E+00  2.00000000E+00  2.00000000E+00  2.00000000E+00  2.00000000E+00
  2.00000000E+00  2.00000000E+00  2.00000000E+00  2.00000000E+00  2.00000000E+00
  2.00000000E+00  2.00000000E+00  2.00000000E+00  2.00000000E+00  2.00000000E+00
  2.00000000E+00  2.00000000E+00  2.00000000E+00  2.00000000E+00  2.00000000E+00
  2.00000000E+00  2.00000000E+00  2.00000000E+00  2.00000000E+00  2.00000000E+00
  2.00000000E+00  2.00000000E+00  0.00000000E+00  0.00000000E+00  0.00000000E+00
  0.00000000E+00
%FLAG SOLTY                                                                     
%FORMAT(5E16.8)                                                                 
  0.00000000E+00  0.00000000E+00  0.00000000E+00  0.00000000E+00  0.00000000E+00
  0.00000000E+00  0.00000000E+00  0.00000000E+00  0.00000000E+00  0.00000000E+00
  0.00000000E+00  0.00000000E+00  0.00000000E+00  0.00000000E+00  0.00000000E+00
  0.00000000E+00  0.00000000E+00  0.00000000E+00  0.00000000E+00  0.00000000E+00
  0.00000000E+00  0.00000000E+00  0.00000000E+00  0.00000000E+00  0.00000000E+00
  0.00000000E+00  0.00000000E+00  0.00000000E+00  0.00000000E+00  0.00000000E+00
  0.00000000E+00  0.00000000E+00  0.00000000E+00  0.00000000E+00  0.00000000E+00
  0.00000000E+00  0.00000000E+00  0.00000000E+00  0.00000000E+00
%FLAG LENNARD_JONES_ACOEF                                                       
%FORMAT(5E16.8)                                                                 
  7.94617769E+03  1.01372942E+05  1.04308023E+06  8.12662403E+04  8.53193737E+05
  6.96551276E+05  5.68021765E+04  6.37913494E+05  5.17507491E+05  3.76435470E+05
  7.93773615E+04  8.61458248E+05  7.01106848E+05  5.15491878E+05  7.02078680E+05
  9.47421632E+01  2.26409483E+03  1.71458823E+03  9.87857350E+02  1.52360475E+03
  1.34728399E-01  5.22955465E+03  7.06006146E+04  5.63013422E+04  3.86646725E+04
  5.45183252E+04  5.24570081E+01  3.39005767E+03  8.98799076E+04  9.24822270E+05
  7.56463928E+05  5.65590822E+05  7.63791460E+05  2.00740581E+03  6.25963552E+04
  8.19971662E+05  5.47737117E+03  7.18621074E+04  5.74592031E+04  3.98127143E+04
  5.58833643E+04  5.99788431E+01  3.57795711E+03  6.37148278E+04  3.76169105E+03
  9.33217616E+04  9.95480466E+05  8.11497350E+05  5.99897901E+05  8.14793385E+05
  1.88178855E+03  6.43853349E+04  8.82619071E+05  6.58473870E+04  9.44293233E+05
  7.41026906E+03  9.38067954E+04  7.52549148E+04  5.27277400E+04  7.35931098E+04
  9.04434904E+01  4.88692384E+03  8.31715633E+04  5.11317150E+03  8.64679274E+04
  6.90855956E+03  7.08225575E+04  7.91544157E+05  6.42430744E+05  4.68011805E+05
  6.40405042E+05  1.24900897E+03  4.82692694E+04  7.01803794E+05  4.96707306E+04
  7.44975864E+05  6.57310418E+04  5.81803229E+05  0.00000000E+00  0.00000000E+00
  0.00000000E+00  0.00000000E+00  0.00000000E+00  0.00000000E+00  0.00000000E+00
  0.00000000E+00  0.00000000E+00  0.00000000E+00  0.00000000E+00  0.00000000E+00
  0.00000000E+00  4.43530964E+03  5.98885646E+04  4.77581094E+04  3.27958584E+04
  4.62444096E+04  4.44659845E+01  2.87505342E+03  5.30987710E+04  3.03448006E+03
  5.46147253E+04  4.14474284E+03  4.09427581E+04  0.00000000E+00  2.43828624E+03
  1.00235148E+05  1.03184851E+06  8.43969952E+05  6.30925504E+05  8.52084164E+05
  2.23577481E+03  6.97998263E+04  9.14863930E+05  7.10513128E+04  9.84684600E+05
  9.27554496E+04  7.82881336E+05  0.00000000E+00  5.92092559E+04  1.02073671E+06
  1.42703904E+03  2.27401052E+04  1.78601506E+04  1.16505362E+04  1.68636880E+04
  8.45902425E+00  8.84544347E+02  2.01619733E+04  9.55000044E+02  2.01791425E+04
  1.34169202E+03  1.45985502E+04  0.00000000E+00  7.50063100E+02  2.24743442E+04
  2.01823541E+02  5.63419090E+04  6.47841731E+05  5.24402060E+05  3.78641356E+05
  5.20462539E+05  9.14858779E+02  3.81142515E+04  5.74393458E+05  3.93690817E+04
  6.06829342E+05  5.23449021E+04  4.71003287E+05  0.00000000E+00  3.23283631E+04
  6.40712560E+05  1.12780457E+04  3.79876399E+05  9.78427953E+03  1.24298247E+05
  9.96834078E+04  6.97666560E+04  9.74293067E+04  1.18150877E+02  6.44646734E+03
  1.10206083E+05  6.74812668E+03  1.14506480E+05  9.12301018E+03  8.69788452E+04
  0.00000000E+00  5.46742125E+03  1.22904242E+05  1.76494537E+03  6.92332636E+04
  1.20465683E+04  1.14473311E+06  9.95563331E+06  8.27439234E+06  6.52407029E+06
  8.57639600E+06  4.05705611E+04  8.32594410E+05  8.82692541E+06  8.29137544E+05
  9.77669063E+06  1.05299389E+06  8.06472025E+06  0.00000000E+00  7.06361584E+05
  9.85204211E+06  3.03899730E+05  6.74908715E+06  1.39907136E+06  8.29924504E+07
  8.78765379E+04  9.57153878E+05  7.78724870E+05  5.71910667E+05  7.79368039E+05
  1.66932268E+03  6.02986271E+04  8.48637713E+05  6.18379568E+04  9.04754248E+05
  8.14835231E+04  7.10552826E+05  0.00000000E+00  5.11473202E+04  9.46731090E+05
  1.86002079E+04  5.77196189E+05  1.07868966E+05  9.55632483E+06  8.65113123E+05
  0.00000000E+00  0.00000000E+00  0.00000000E+00  0.00000000E+00  0.00000000E+00
  0.00000000E+00  0.00000000E+00  0.00000000E+00  0.00000000E+00  0.00000000E+00
  0.00000000E+00  0.00000000E+00  0.00000000E+00  0.00000000E+00  0.00000000E+00
  0.00000000E+00  0.00000000E+00  0.00000000E+00  0.00000000E+00  0.00000000E+00
  0.00000000E+00  0.00000000E+00  0.00000000E+00  0.00000000E+00  0.00000000E+00
  0.00000000E+00  0.00000000E+00  0.00000000E+00  0.00000000E+00  0.00000000E+00
  0.00000000E+00  0.00000000E+00  0.00000000E+00  0.00000000E+00  0.00000000E+00
  0.00000000E+00  0.00000000E+00  0.00000000E+00  0.00000000E+00  0.00000000E+00
  0.00000000E+00  0.00000000E+00  0.00000000E+00
%FLAG LENNARD_JONES_BCOEF                                                       
%FORMAT(5E16.8)                                                                 
  2.57122925E+01  1.39078880E+02  6.75612247E+02  1.21392023E+02  5.95658566E+02
  5.24668528E+02  1.11953944E+02  5.68167388E+02  4.98871431E+02  4.69350655E+02
  1.36094315E+02  6.78964813E+02  5.97113873E+02  5.64804067E+02  6.77820248E+02
  2.33785449E+00  1.73073921E+01  1.46824710E+01  1.22938581E+01  1.57004457E+01
  7.34107347E-02  2.08590256E+01  1.16065835E+02  1.01040256E+02  9.23664132E+01
  1.12788003E+02  1.73959275E+00  1.67944276E+01  1.23310980E+02  5.99015525E+02
  5.28126496E+02  5.03752097E+02  6.01987997E+02  1.53451874E+01  1.02907011E+02
  5.31102864E+02  1.96722815E+01  1.07908863E+02  9.40636541E+01  8.63723599E+01
  1.05230082E+02  1.71416196E+00  1.58996004E+01  9.56748258E+01  1.50233639E+01
  1.48987394E+02  7.36907417E+02  6.48597119E+02  6.15165511E+02  7.37244936E+02
  1.76168249E+01  1.23751804E+02  6.53361429E+02  1.15327881E+02  8.01323529E+02
  2.32899892E+01  1.25489661E+02  1.09570372E+02  1.01173582E+02  1.22913863E+02
  2.14252117E+00  1.89134207E+01  1.11262422E+02  1.78280753E+01  1.34516705E+02
  2.10929191E+01  1.36896727E+02  6.93079947E+02  6.08686716E+02  5.73100668E+02
  6.89389438E+02  1.51381989E+01  1.13016701E+02  6.14502845E+02  1.05648788E+02
  7.50714425E+02  1.23703833E+02  6.99746810E+02  0.00000000E+00  0.00000000E+00
  0.00000000E+00  0.00000000E+00  0.00000000E+00  0.00000000E+00  0.00000000E+00
  0.00000000E+00  0.00000000E+00  0.00000000E+00  0.00000000E+00  0.00000000E+00
  0.00000000E+00  1.77023375E+01  9.85097219E+01  8.57562161E+01  7.83922976E+01
  9.57256348E+01  1.47593342E+00  1.42525182E+01  8.73413012E+01  1.34932874E+01
  1.05031585E+02  1.60512210E+01  9.59185913E+01  0.00000000E+00  1.20953369E+01
  1.37787728E+02  6.69494459E+02  5.90251928E+02  5.62969425E+02  6.72777963E+02
  1.71355763E+01  1.14981426E+02  5.93591333E+02  1.06903901E+02  7.30206155E+02
  1.24325688E+02  6.86742760E+02  0.00000000E+00  9.75893223E+01  6.63431737E+02
  1.01563736E+01  6.13981767E+01  5.30440533E+01  4.72594809E+01  5.84691813E+01
  6.51126010E-01  7.99614292E+00  5.44372326E+01  7.65648470E+00  6.45756063E+01
  9.23714573E+00  5.79323581E+01  0.00000000E+00  6.78541827E+00  6.08139360E+01
  3.56012899E+00  1.22044000E+02  6.26720080E+02  5.49675335E+02  5.15240418E+02
  6.21191325E+02  1.29497639E+01  1.00379343E+02  5.55666448E+02  9.40124296E+01
  6.77220874E+02  1.10338858E+02  6.29300710E+02  0.00000000E+00  8.51921330E+01
  6.20970728E+02  5.08951803E+01  5.64885984E+02  3.11634667E+01  1.68210204E+02
  1.46847372E+02  1.35519110E+02  1.64685793E+02  2.85156961E+00  2.52954396E+01
  1.49139575E+02  2.38495359E+01  1.80257261E+02  2.82254616E+01  1.65704292E+02
  0.00000000E+00  2.14674068E+01  1.66649352E+02  1.23369002E+01  1.47767093E+02
  3.77687565E+01  7.37618163E+02  3.29421866E+03  2.92766201E+03  2.86770216E+03
  3.38113012E+03  1.15629635E+02  6.29066019E+02  2.92074060E+03  5.78495189E+02
  3.64478415E+03  6.63564343E+02  3.49156180E+03  0.00000000E+00  5.33949270E+02
  3.26498708E+03  3.54244990E+02  3.19257412E+03  8.90674642E+02  1.50112408E+04
  1.52923989E+02  7.64308217E+02  6.72054626E+02  6.35328732E+02  7.62676627E+02
  1.75506604E+01  1.26675569E+02  6.77655696E+02  1.18215302E+02  8.29661356E+02
  1.38122581E+02  7.75502024E+02  0.00000000E+00  1.07512157E+02  7.57340751E+02
  6.55778432E+01  6.98618155E+02  1.85057667E+02  3.81155700E+03  8.58130004E+02
  0.00000000E+00  0.00000000E+00  0.00000000E+00  0.00000000E+00  0.00000000E+00
  0.00000000E+00  0.00000000E+00  0.00000000E+00  0.00000000E+00  0.00000000E+00
  0.00000000E+00  0.00000000E+00  0.00000000E+00  0.00000000E+00  0.00000000E+00
  0.00000000E+00  0.00000000E+00  0.00000000E+00  0.00000000E+00  0.00000000E+00
  0.00000000E+00  0.00000000E+00  0.00000000E+00  0.00000000E+00  0.00000000E+00
  0.00000000E+00  0.00000000E+00  0.00000000E+00  0.00000000E+00  0.00000000E+00
  0.00000000E+00  0.00000000E+00  0.00000000E+00  0.00000000E+00  0.00000000E+00
  0.00000000E+00  0.00000000E+00  0.00000000E+00  0.00000000E+00  0.00000000E+00
  0.00000000E+00  0.00000000E+00  0.00000000E+00
%FLAG BONDS_INC_HYDROGEN                                                        
%FORMAT(10I8)                                                                   
       3       6       3       3       9       3       0       3       3      75
      78       5      69      72       5      63      66       5      57      60
       5      48      51      10      42      45      12      30      33       3
      30      36       3      24      27      17      18      21      20     120
     123       3     120     126       3     120     129       3     108     111
       3     108     114       3     108     117       3     102     105      22
      96      99      17      90      93      20     168     171      25     156
     159       3     156     162       3     156     165       3     150     153
      26     144     147      17     138     141      20     219     222      28
     210     213      30     204     207      10     192     195       3     192
     198       3     186     189      17     180     183      20     288     291
      36     288     294      36     279     282      36     279     285      36
     270     273      36     261     264      38     261     267      38     252
     255      40     252     258      40     243     246      40     243     249
      40     237     240      17     231     234      20     333     375      20
     330     369      43     330     372      43     327     366      46     324
     363      46     321     357      43     321     360      43     318     351
      43     318     354      43     315     345      43     315     348      43
     312     336      43     312     339      43     312     342      43     390
     393       3     390     396       3     390     399       3     384     387
      17     378     381      20     414     417      17     414     420      17
     408     411      20     468     471       3     468     474       3     468
     477       3     456     459       3     456     462       3     456     465
       3     450     453      22     441     444      51     441     447      51
     435     438      17     429     432      20     504     528      20     501
     522      43     501     525      43     498     516      43     498     519
      43     495     507      43     495     510      43     495     513      43
     552     555      25     543     546      54     543     549      54     537
     540      17     531     534      20     621     624      36     621     627
      36     612     615      36     612     618      36     603     606      36
     594     597      38     594     600      38     585     588      40     585
     591      40     576     579      40     576     582      40     570     573
      17     564     567      20     657     660      25     648     651      54
     648     654      54     642     645      17     636     639      20     675
     678      17     675     681      17     669     672      20     696     699
      17     696     702      17     690     693      20     741     744       3
     741     747       3     741     750       3     729     732       3     729
     735       3     729     738       3     723     726      22     717     720
      17     711     714      20     789     792       3     789     795       3
     789     798       3     777     780       3     777     783       3     777
     786       3     771     774      22     765     768      17     759     762
      20     855     858      56     855     861      56     855     864      56
     846     849      57     846     852      57     837     840      40     837
     843      40     828     831      40     828     834      40     819     822
      40     819     825      40     813     816      17     807     810      20
     900     903      20     900     906      20     885     888      51     885
     891      51     879     882      17     873     876      20     942     945
      20     942     948      20     927     930      51     927     933      51
     921     924      17     915     918      20    1005    1008       5     999
    1002       5     993     996       5     987     990       5     981     984
       5     969     972       3     969     975       3     963     966      17
     957     960      20    1047    1050       3    1047    1053       3    1047
    1056       3    1035    1038       3    1035    1041       3    1035    1044
       3    1029    1032      22    1023    1026      17    1017    1020      20
    1095    1098      17    1086    1089       3    1086    1092       3    1077
    1080       3    1077    1083       3    1068    1071      62    1068    1074
      62    1137    1140      25    1125    1128       3    1125    1131       3
    1125    1134       3    1119    1122      26    1113    1116      17    1107
    1110      20    1161    1164      51    1161    1167      51    1155    1158
      17    1149    1152      20    1215    1218       3    1215    1221       3
    1215    1224       3    1203    1206       3    1203    1209       3    1203
    1212       3    1197    1200      22    1191    1194      17    1185    1188
      20    1239    1242      17    1239    1245      17    1233    1236      20
    1284    1287      17    1275    1278       3    1275    1281       3    1266
    1269       3    1266    1272       3    1257    1260      62    1257    1263
      62    1344    1347       5    1338    1341       5    1332    1335       5
    1326    1329       5    1320    1323       5    1308    1311       3    1308
    1314       3    1302    1305      17    1296    1299      20    1368    1371
       3    1368    1374       3    1368    1377       3    1362    1365      17
    1356    1359      20    1434    1437       5    1428    1431       5    1422
    1425       5    1416    1419       5    1410    1413       5    1398    1401
       3    1398    1404       3    1392    1395      17    1386    1389      20
    1446    1449      20    1446    1452      20    1590    1587      66    1593
    1587      66    1593    1590      67    1602    1599      66    1605    1599
      66    1605    1602      67    1614    1611      66    1617    1611      66
    1617    1614      67    1626    1623      66    1629    1623      66    1629
    1626      67    1638    1635      66    1641    1635      66    1641    1638
      67    1650    1647      66    1653    1647      66    1653    1650      67
    1662    1659      66    1665    1659      66    1665    1662      67    1674
    1671      66    1677    1671      66    1677    1674      67    1686    1683
      66    1689    1683      66    1689    1686      67    1698    1695      66
    1701    1695      66    1701    1698      67    1710    1707      66    1713
    1707      66    1713    1710      67    1722    1719      66    1725    1719
      66    1725    1722      67    1734    1731      66    1737    1731      66
    1737    1734      67    1746    1743      66    1749    1743      66    1749
    1746      67    1758    1755      66    1761    1755      66    1761    1758
      67    1770    1767      66    1773    1767      66    1773    1770      67
    1782    1779      66    1785    1779      66    1785    1782      67    1794
    1791      66    1797    1791      66    1797    1794      67    1806    1803
      66    1809    1803      66    1809    1806      67    1818    1815      66
    1821    1815      66    1821    1818      67    1830    1827      66    1833
    1827      66    1833    1830      67    1842    1839      66    1845    1839
      66    1845    1842      67    1854    1851      66    1857    1851      66
    1857    1854      67    1866    1863      66    1869    1863      66    1869
    1866      67    1878    1875      66    1881    1875      66    1881    1878
      67    1890    1887      66    1893    1887      66    1893    1890      67
    1902    1899      66    1905    1899      66    1905    1902      67    1914
    1911      66    1917    1911      66    1917    1914      67    1926    1923
      66    1929    1923      66    1929    1926      67    1938    1935      66
    1941    1935      66    1941    1938      67    1950    1947      66    1953
    1947      66    1953    1950      67    1962    1959      66    1965    1959
      66    1965    1962      67    1974    1971      66    1977    1971      66
    1977    1974      67    1986    1983      66    1989    1983      66    1989
    1986      67    1998    1995      66    2001    1995      66    2001    1998
      67    2010    2007      66    2013    2007      66    2013    2010      67
    2022    2019      66    2025    2019      66    2025    2022      67    2034
    2031      66    2037    2031      66    2037    2034      67    2046    2043
      66    2049    2043      66    2049    2046      67    2058    2055      66
    2061    2055      66    2061    2058      67    2070    2067      66    2073
    2067      66    2073    2070      67    2082    2079      66    2085    2079
      66    2085    2082      67    2094    2091      66    2097    2091      66
    2097    2094      67    2106    2103      66    2109    2103      66    2109
    2106      67    2118    2115      66    2121    2115      66    2121    2118
      67    2130    2127      66    2133    2127      66    2133    2130      67
    2142    2139      66    2145    2139      66    2145    2142      67    2154
    2151      66    2157    2151      66    2157    2154      67    2166    2163
      66    2169    2163      66    2169    2166      67    2178    2175      66
    2181    2175      66    2181    2178      67    2190    2187      66    2193
    2187      66    2193    2190      67    2202    2199      66    2205    2199
      66    2205    2202      67    2214    2211      66    2217    2211      66
    2217    2214      67    2226    2223      66    2229    2223      66    2229
    2226      67    2238    2235      66    2241    2235      66    2241    2238
      67    2250    2247      66    2253    2247      66    2253    2250      67
    2262    2259      66    2265    2259      66    2265    2262      67    2274
    2271      66    2277    2271      66    2277    2274      67    2286    2283
      66    2289    2283      66    2289    2286      67    2298    2295      66
    2301    2295      66    2301    2298      67    2310    2307      66    2313
    2307      66    2313    2310      67    2322    2319      66    2325    2319
      66    2325    2322      67    2334    2331      66    2337    2331      66
    2337    2334      67    2346    2343      66    2349    2343      66    2349
    2346      67    2358    2355      66    2361    2355      66    2361    2358
      67    2370    2367      66    2373    2367      66    2373    2370      67
    2382    2379      66    2385    2379      66    2385    2382      67    2394
    2391      66    2397    2391      66    2397    2394      67    2406    2403
      66    2409    2403      66    2409    2406      67    2418    2415      66
    2421    2415      66    2421    2418      67    2430    2427      66    2433
    2427      66    2433    2430      67    2442    2439      66    2445    2439
      66    2445    2442      67    2454    2451      66    2457    2451      66
    2457    2454      67    2466    2463      66    2469    2463      66    2469
    2466      67    2478    2475      66    2481    2475      66    2481    2478
      67    2490    2487      66    2493    2487      66    2493    2490      67
    2502    2499      66    2505    2499      66    2505    2502      67    2514
    2511      66    2517    2511      66    2517    2514      67    2526    2523
      66    2529    2523      66    2529    2526      67    2538    2535      66
    2541    2535      66    2541    2538      67    2550    2547      66    2553
    2547      66    2553    2550      67    2562    2559      66    2565    2559
      66    2565    2562      67    2574    2571      66    2577    2571      66
    2577    2574      67    2586    2583      66    2589    2583      66    2589
    2586      67    2598    2595      66    2601    2595      66    2601    2598
      67    2610    2607      66    2613    2607      66    2613    2610      67
    2622    2619      66    2625    2619      66    2625    2622      67    2634
    2631      66    2637    2631      66    2637    2634      67    2646    2643
      66    2649    2643      66    2649    2646      67    2658    2655      66
    2661    2655      66    2661    2658      67    2670    2667      66    2673
    2667      66    2673    2670      67    2682    2679      66    2685    2679
      66    2685    2682      67    2694    2691      66    2697    2691      66
    2697    2694      67    2706    2703      66    2709    2703      66    2709
    2706      67    2718    2715      66    2721    2715      66    2721    2718
      67    2730    2727      66    2733    2727      66    2733    2730      67
    2742    2739      66    2745    2739      66    2745    2742      67    2754
    2751      66    2757    2751      66    2757    2754      67    2766    2763
      66    2769    2763      66    2769    2766      67    2778    2775      66
    2781    2775      66    2781    2778      67    2790    2787      66    2793
    2787      66    2793    2790      67    2802    2799      66    2805    2799
      66    2805    2802      67    2814    2811      66    2817    2811      66
    2817    2814      67    2826    2823      66    2829    2823      66    2829
    2826      67    2838    2835      66    2841    2835      66    2841    2838
      67    2850    2847      66    2853    2847      66    2853    2850      67
    2862    2859      66    2865    2859      66    2865    2862      67    2874
    2871      66    2877    2871      66    2877    2874      67    2886    2883
      66    2889    2883      66    2889    2886      67    2898    2895      66
    2901    2895      66    2901    2898      67    2910    2907      66    2913
    2907      66    2913    2910      67    2922    2919      66    2925    2919
      66    2925    2922      67    2934    2931      66    2937    2931      66
    2937    2934      67    2946    2943      66    2949    2943      66    2949
    2946      67    2958    2955      66    2961    2955      66    2961    2958
      67    2970    2967      66    2973    2967      66    2973    2970      67
    2982    2979      66    2985    2979      66    2985    2982      67    2994
    2991      66    2997    2991      66    2997    2994      67    3006    3003
      66    3009    3003      66    3009    3006      67    3018    3015      66
    3021    3015      66    3021    3018      67    3030    3027      66    3033
    3027      66    3033    3030      67    3042    3039      66    3045    3039
      66    3045    3042      67    3054    3051      66    3057    3051      66
    3057    3054      67    3066    3063      66    3069    3063      66    3069
    3066      67    3078    3075      66    3081    3075      66    3081    3078
      67    3090    3087      66    3093    3087      66    3093    3090      67
    3102    3099      66    3105    3099      66    3105    3102      67    3114
    3111      66    3117    3111      66    3117    3114      67    3126    3123
      66    3129    3123      66    3129    3126      67    3138    3135      66
    3141    3135      66    3141    3138      67    3150    3147      66    3153
    3147      66    3153    3150      67    3162    3159      66    3165    3159
      66    3165    3162      67    3174    3171      66    3177    3171      66
    3177    3174      67    3186    3183      66    3189    3183      66    3189
    3186      67    3198    3195      66    3201    3195      66    3201    3198
      67    3210    3207      66    3213    3207      66    3213    3210      67
    3222    3219      66    3225    3219      66    3225    3222      67    3234
    3231      66    3237    3231      66    3237    3234      67    3246    3243
      66    3249    3243      66    3249    3246      67    3258    3255      66
    3261    3255      66    3261    3258      67    3270    3267      66    3273
    3267      66    3273    3270      67    3282    3279      66    3285    3279
      66    3285    3282      67    3294    3291      66    3297    3291      66
    3297    3294      67    3306    3303      66    3309    3303      66    3309
    3306      67    3318    3315      66    3321    3315      66    3321    3318
      67    3330    3327      66    3333    3327      66    3333    3330      67
    3342    3339      66    3345    3339      66    3345    3342      67    3354
    3351      66    3357    3351      66    3357    3354      67    3366    3363
      66    3369    3363      66    3369    3366      67    3378    3375      66
    3381    3375      66    3381    3378      67    3390    3387      66    3393
    3387      66    3393    3390      67    3402    3399      66    3405    3399
      66    3405    3402      67    3414    3411      66    3417    3411      66
    3417    3414      67    3426    3423      66    3429    3423      66    3429
    3426      67    3438    3435      66    3441    3435      66    3441    3438
      67    3450    3447      66    3453    3447      66    3453    3450      67
    3462    3459      66    3465    3459      66    3465    3462      67    3474
    3471      66    3477    3471      66    3477    3474      67    3486    3483
      66    3489    3483      66    3489    3486      67    3498    3495      66
    3501    3495      66    3501    3498      67    3510    3507      66    3513
    3507      66    3513    3510      67    3522    3519      66    3525    3519
      66    3525    3522      67    3534    3531      66    3537    3531      66
    3537    3534      67    3546    3543      66    3549    3543      66    3549
    3546      67    3558    3555      66    3561    3555      66    3561    3558
      67    3570    3567      66    3573    3567      66    3573    3570      67
    3582    3579      66    3585    3579      66    3585    3582      67    3594
    3591      66    3597    3591      66    3597    3594      67    3606    3603
      66    3609    3603      66    3609    3606      67    3618    3615      66
    3621    3615      66    3621    3618      67    3630    3627      66    3633
    3627      66    3633    3630      67    3642    3639      66    3645    3639
      66    3645    3642      67    3654    3651      66    3657    3651      66
    3657    3654      67    3666    3663      66    3669    3663      66    3669
    3666      67    3678    3675      66    3681    3675      66    3681    3678
      67    3690    3687      66    3693    3687      66    3693    3690      67
    3702    3699      66    3705    3699      66    3705    3702      67    3714
    3711      66    3717    3711      66    3717    3714      67    3726    3723
      66    3729    3723      66    3729    3726      67    3738    3735      66
    3741    3735      66    3741    3738      67    3750    3747      66    3753
    3747      66    3753    3750      67    3762    3759      66    3765    3759
      66    3765    3762      67    3774    3771      66    3777    3771      66
    3777    3774      67    3786    3783      66    3789    3783      66    3789
    3786      67    3798    3795      66    3801    3795      66    3801    3798
      67    3810    3807      66    3813    3807      66    3813    3810      67
    3822    3819      66    3825    3819      66    3825    3822      67    3834
    3831      66    3837    3831      66    3837    3834      67    3846    3843
      66    3849    3843      66    3849    3846      67    3858    3855      66
    3861    3855      66    3861    3858      67    3870    3867      66    3873
    3867      66    3873    3870      67    3882    3879      66    3885    3879
      66    3885    3882      67    3894    3891      66    3897    3891      66
    3897    3894      67    3906    3903      66    3909    3903      66    3909
    3906      67    3918    3915      66    3921    3915      66    3921    3918
      67    3930    3927      66    3933    3927      66    3933    3930      67
    3942    3939      66    3945    3939      66    3945    3942      67    3954
    3951      66    3957    3951      66    3957    3954      67    3966    3963
      66    3969    3963      66    3969    3966      67    3978    3975      66
    3981    3975      66    3981    3978      67    3990    3987      66    3993
    3987      66    3993    3990      67    4002    3999      66    4005    3999
      66    4005    4002      67    4014    4011      66    4017    4011      66
    4017    4014      67    4026    4023      66    4029    4023      66    4029
    4026      67    4038    4035      66    4041    4035      66    4041    4038
      67    4050    4047      66    4053    4047      66    4053    4050      67
    4062    4059      66    4065    4059      66    4065    4062      67    4074
    4071      66    4077    4071      66    4077    4074      67    4086    4083
      66    4089    4083      66    4089    4086      67    4098    4095      66
    4101    4095      66    4101    4098      67    4110    4107      66    4113
    4107      66    4113    4110      67    4122    4119      66    4125    4119
      66    4125    4122      67    4134    4131      66    4137    4131      66
    4137    4134      67    4146    4143      66    4149    4143      66    4149
    4146      67    4158    4155      66    4161    4155      66    4161    4158
      67    4170    4167      66    4173    4167      66    4173    4170      67
    4182    4179      66    4185    4179      66    4185    4182      67    4194
    4191      66    4197    4191      66    4197    4194      67    4206    4203
      66    4209    4203      66    4209    4206      67    4218    4215      66
    4221    4215      66    4221    4218      67    4230    4227      66    4233
    4227      66    4233    4230      67    4242    4239      66    4245    4239
      66    4245    4242      67    4254    4251      66    4257    4251      66
    4257    4254      67    4266    4263      66    4269    4263      66    4269
    4266      67    4278    4275      66    4281    4275      66    4281    4278
      67    4290    4287      66    4293    4287      66    4293    4290      67
    4302    4299      66    4305    4299      66    4305    4302      67    4314
    4311      66    4317    4311      66    4317    4314      67    4326    4323
      66    4329    4323      66    4329    4326      67    4338    4335      66
    4341    4335      66    4341    4338      67    4350    4347      66    4353
    4347      66    4353    4350      67    4362    4359      66    4365    4359
      66    4365    4362      67    4374    4371      66    4377    4371      66
    4377    4374      67    4386    4383      66    4389    4383      66    4389
    4386      67    4398    4395      66    4401    4395      66    4401    4398
      67    4410    4407      66    4413    4407      66    4413    4410      67
    4422    4419      66    4425    4419      66    4425    4422      67    4434
    4431      66    4437    4431      66    4437    4434      67    4446    4443
      66    4449    4443      66    4449    4446      67    4458    4455      66
    4461    4455      66    4461    4458      67    4470    4467      66    4473
    4467      66    4473    4470      67    4482    4479      66    4485    4479
      66    4485    4482      67    4494    4491      66    4497    4491      66
    4497    4494      67    4506    4503      66    4509    4503      66    4509
    4506      67    4518    4515      66    4521    4515      66    4521    4518
      67    4530    4527      66    4533    4527      66    4533    4530      67
    4542    4539      66    4545    4539      66    4545    4542      67    4554
    4551      66    4557    4551      66    4557    4554      67    4566    4563
      66    4569    4563      66    4569    4566      67    4578    4575      66
    4581    4575      66    4581    4578      67    4590    4587      66    4593
    4587      66    4593    4590      67    4602    4599      66    4605    4599
      66    4605    4602      67    4614    4611      66    4617    4611      66
    4617    4614      67    4626    4623      66    4629    4623      66    4629
    4626      67    4638    4635      66    4641    4635      66    4641    4638
      67    4650    4647      66    4653    4647      66    4653    4650      67
    4662    4659      66    4665    4659      66    4665    4662      67    4674
    4671      66    4677    4671      66    4677    4674      67    4686    4683
      66    4689    4683      66    4689    4686      67    4698    4695      66
    4701    4695      66    4701    4698      67    4710    4707      66    4713
    4707      66    4713    4710      67    4722    4719      66    4725    4719
      66    4725    4722      67    4734    4731      66    4737    4731      66
    4737    4734      67    4746    4743      66    4749    4743      66    4749
    4746      67    4758    4755      66    4761    4755      66    4761    4758
      67    4770    4767      66    4773    4767      66    4773    4770      67
    4782    4779      66    4785    4779      66    4785    4782      67    4794
    4791      66    4797    4791      66    4797    4794      67    4806    4803
      66    4809    4803      66    4809    4806      67    4818    4815      66
    4821    4815      66    4821    4818      67    4830    4827      66    4833
    4827      66    4833    4830      67    4842    4839      66    4845    4839
      66    4845    4842      67    4854    4851      66    4857    4851      66
    4857    4854      67    4866    4863      66    4869    4863      66    4869
    4866      67    4878    4875      66    4881    4875      66    4881    4878
      67    4890    4887      66    4893    4887      66    4893    4890      67
    4902    4899      66    4905    4899      66    4905    4902      67    4914
    4911      66    4917    4911      66    4917    4914      67    4926    4923
      66    4929    4923      66    4929    4926      67    4938    4935      66
    4941    4935      66    4941    4938      67    4950    4947      66    4953
    4947      66    4953    4950      67    4962    4959      66    4965    4959
      66    4965    4962      67    4974    4971      66    4977    4971      66
    4977    4974      67    4986    4983      66    4989    4983      66    4989
    4986      67    4998    4995      66    5001    4995      66    5001    4998
      67    5010    5007      66    5013    5007      66    5013    5010      67
    5022    5019      66    5025    5019      66    5025    5022      67    5034
    5031      66    5037    5031      66    5037    5034      67    5046    5043
      66    5049    5043      66    5049    5046      67    5058    5055      66
    5061    5055      66    5061    5058      67    5070    5067      66    5073
    5067      66    5073    5070      67    5082    5079      66    5085    5079
      66    5085    5082      67    5094    5091      66    5097    5091      66
    5097    5094      67    5106    5103      66    5109    5103      66    5109
    5106      67    5118    5115      66    5121    5115      66    5121    5118
      67    5130    5127      66    5133    5127      66    5133    5130      67
    5142    5139      66    5145    5139      66    5145    5142      67    5154
    5151      66    5157    5151      66    5157    5154      67    5166    5163
      66    5169    5163      66    5169    5166      67    5178    5175      66
    5181    5175      66    5181    5178      67    5190    5187      66    5193
    5187      66    5193    5190      67    5202    5199      66    5205    5199
      66    5205    5202      67    5214    5211      66    5217    5211      66
    5217    5214      67    5226    5223      66    5229    5223      66    5229
    5226      67    5238    5235      66    5241    5235      66    5241    5238
      67    5250    5247      66    5253    5247      66    5253    5250      67
    5262    5259      66    5265    5259      66    5265    5262      67    5274
    5271      66    5277    5271      66    5277    5274      67    5286    5283
      66    5289    5283      66    5289    5286      67    5298    5295      66
    5301    5295      66    5301    5298      67    5310    5307      66    5313
    5307      66    5313    5310      67    5322    5319      66    5325    5319
      66    5325    5322      67    5334    5331      66    5337    5331      66
    5337    5334      67    5346    5343      66    5349    5343      66    5349
    5346      67    5358    5355      66    5361    5355      66    5361    5358
      67    5370    5367      66    5373    5367      66    5373    5370      67
    5382    5379      66    5385    5379      66    5385    5382      67    5394
    5391      66    5397    5391      66    5397    5394      67    5406    5403
      66    5409    5403      66    5409    5406      67    5418    5415      66
    5421    5415      66    5421    5418      67    5430    5427      66    5433
    5427      66    5433    5430      67    5442    5439      66    5445    5439
      66    5445    5442      67    5454    5451      66    5457    5451      66
    5457    5454      67    5466    5463      66    5469    5463      66    5469
    5466      67    5478    5475      66    5481    5475      66    5481    5478
      67    5490    5487      66    5493    5487      66    5493    5490      67
    5502    5499      66    5505    5499      66    5505    5502      67    5514
    5511      66    5517    5511      66    5517    5514      67    5526    5523
      66    5529    5523      66    5529    5526      67    5538    5535      66
    5541    5535      66    5541    5538      67    5550    5547      66    5553
    5547      66    5553    5550      67    5562    5559      66    5565    5559
      66    5565    5562      67    5574    5571      66    5577    5571      66
    5577    5574      67    5586    5583      66    5589    5583      66    5589
    5586      67    5598    5595      66    5601    5595      66    5601    5598
      67    5610    5607      66    5613    5607      66    5613    5610      67
    5622    5619      66    5625    5619      66    5625    5622      67    5634
    5631      66    5637    5631      66    5637    5634      67    5646    5643
      66    5649    5643      66    5649    5646      67    5658    5655      66
    5661    5655      66    5661    5658      67    5670    5667      66    5673
    5667      66    5673    5670      67    5682    5679      66    5685    5679
      66    5685    5682      67    5694    5691      66    5697    5691      66
    5697    5694      67    5706    5703      66    5709    5703      66    5709
    5706      67    5718    5715      66    5721    5715      66    5721    5718
      67    5730    5727      66    5733    5727      66    5733    5730      67
    5742    5739      66    5745    5739      66    5745    5742      67    5754
    5751      66    5757    5751      66    5757    5754      67    5766    5763
      66    5769    5763      66    5769    5766      67    5778    5775      66
    5781    5775      66    5781    5778      67    5790    5787      66    5793
    5787      66    5793    5790      67    5802    5799      66    5805    5799
      66    5805    5802      67    5814    5811      66    5817    5811      66
    5817    5814      67    5826    5823      66    5829    5823      66    5829
    5826      67    5838    5835      66    5841    5835      66    5841    5838
      67    5850    5847      66    5853    5847      66    5853    5850      67
    5862    5859      66    5865    5859      66    5865    5862      67    5874
    5871      66    5877    5871      66    5877    5874      67    5886    5883
      66    5889    5883      66    5889    5886      67    5898    5895      66
    5901    5895      66    5901    5898      67    5910    5907      66    5913
    5907      66    5913    5910      67    5922    5919      66    5925    5919
      66    5925    5922      67    5934    5931      66    5937    5931      66
    5937    5934      67    5946    5943      66    5949    5943      66    5949
    5946      67    5958    5955      66    5961    5955      66    5961    5958
      67    5970    5967      66    5973    5967      66    5973    5970      67
    5982    5979      66    5985    5979      66    5985    5982      67    5994
    5991      66    5997    5991      66    5997    5994      67    6006    6003
      66    6009    6003      66    6009    6006      67    6018    6015      66
    6021    6015      66    6021    6018      67    6030    6027      66    6033
    6027      66    6033    6030      67    6042    6039      66    6045    6039
      66    6045    6042      67    6054    6051      66    6057    6051      66
    6057    6054      67    6066    6063      66    6069    6063      66    6069
    6066      67    6078    6075      66    6081    6075      66    6081    6078
      67    6090    6087      66    6093    6087      66    6093    6090      67
    6102    6099      66    6105    6099      66    6105    6102      67    6114
    6111      66    6117    6111      66    6117    6114      67    6126    6123
      66    6129    6123      66    6129    6126      67    6138    6135      66
    6141    6135      66    6141    6138      67    6150    6147      66    6153
    6147      66    6153    6150      67    6162    6159      66    6165    6159
      66    6165    6162      67    6174    6171      66    6177    6171      66
    6177    6174      67    6186    6183      66    6189    6183      66    6189
    6186      67    6198    6195      66    6201    6195      66    6201    6198
      67    6210    6207      66    6213    6207      66    6213    6210      67
    6222    6219      66    6225    6219      66    6225    6222      67    6234
    6231      66    6237    6231      66    6237    6234      67    6246    6243
      66    6249    6243      66    6249    6246      67    6258    6255      66
    6261    6255      66    6261    6258      67    6270    6267      66    6273
    6267      66    6273    6270      67    6282    6279      66    6285    6279
      66    6285    6282      67    6294    6291      66    6297    6291      66
    6297    6294      67    6306    6303      66    6309    6303      66    6309
    6306      67    6318    6315      66    6321    6315      66    6321    6318
      67    6330    6327      66    6333    6327      66    6333    6330      67
    6342    6339      66    6345    6339      66    6345    6342      67    6354
    6351      66    6357    6351      66    6357    6354      67    6366    6363
      66    6369    6363      66    6369    6366      67    6378    6375      66
    6381    6375      66    6381    6378      67    6390    6387      66    6393
    6387      66    6393    6390      67    6402    6399      66    6405    6399
      66    6405    6402      67    6414    6411      66    6417    6411      66
    6417    6414      67    6426    6423      66    6429    6423      66    6429
    6426      67    6438    6435      66    6441    6435      66    6441    6438
      67    6450    6447      66    6453    6447      66    6453    6450      67
    6462    6459      66    6465    6459      66    6465    6462      67    6474
    6471      66    6477    6471      66    6477    6474      67    6486    6483
      66    6489    6483      66    6489    6486      67    6498    6495      66
    6501    6495      66    6501    6498      67    6510    6507      66    6513
    6507      66    6513    6510      67    6522    6519      66    6525    6519
      66    6525    6522      67    6534    6531      66    6537    6531      66
    6537    6534      67    6546    6543      66    6549    6543      66    6549
    6546      67    6558    6555      66    6561    6555      66    6561    6558
      67    6570    6567      66    6573    6567      66    6573    6570      67
    6582    6579      66    6585    6579      66    6585    6582      67    6594
    6591      66    6597    6591      66    6597    6594      67    6606    6603
      66    6609    6603      66    6609    6606      67    6618    6615      66
    6621    6615      66    6621    6618      67    6630    6627      66    6633
    6627      66    6633    6630      67    6642    6639      66    6645    6639
      66    6645    6642      67    6654    6651      66    6657    6651      66
    6657    6654      67    6666    6663      66    6669    6663      66    6669
    6666      67    6678    6675      66    6681    6675      66    6681    6678
      67    6690    6687      66    6693    6687      66    6693    6690      67
    6702    6699      66    6705    6699      66    6705    6702      67    6714
    6711      66    6717    6711      66    6717    6714      67    6726    6723
      66    6729    6723      66    6729    6726      67    6738    6735      66
    6741    6735      66    6741    6738      67    6750    6747      66    6753
    6747      66    6753    6750      67    6762    6759      66    6765    6759
      66    6765    6762      67    6774    6771      66    6777    6771      66
    6777    6774      67    6786    6783      66    6789    6783      66    6789
    6786      67    6798    6795      66    6801    6795      66    6801    6798
      67    6810    6807      66    6813    6807      66    6813    6810      67
    6822    6819      66    6825    6819      66    6825    6822      67    6834
    6831      66    6837    6831      66    6837    6834      67    6846    6843
      66    6849    6843      66    6849    6846      67    6858    6855      66
    6861    6855      66    6861    6858      67    6870    6867      66    6873
    6867      66    6873    6870      67    6882    6879      66    6885    6879
      66    6885    6882      67    6894    6891      66    6897    6891      66
    6897    6894      67    6906    6903      66    6909    6903      66    6909
    6906      67    6918    6915      66    6921    6915      66    6921    6918
      67    6930    6927      66    6933    6927      66    6933    6930      67
    6942    6939      66    6945    6939      66    6945    6942      67    6954
    6951      66    6957    6951      66    6957    6954      67    6966    6963
      66    6969    6963      66    6969    6966      67    6978    6975      66
    6981    6975      66    6981    6978      67    6990    6987      66    6993
    6987      66    6993    6990      67    7002    6999      66    7005    6999
      66    7005    7002      67    7014    7011      66    7017    7011      66
    7017    7014      67    7026    7023      66    7029    7023      66    7029
    7026      67    7038    7035      66    7041    7035      66    7041    7038
      67    7050    7047      66    7053    7047      66    7053    7050      67
    7062    7059      66    7065    7059      66    7065    7062      67    7074
    7071      66    7077    7071      66    7077    7074      67    7086    7083
      66    7089    7083      66    7089    7086      67    7098    7095      66
    7101    7095      66    7101    7098      67    7110    7107      66    7113
    7107      66    7113    7110      67    7122    7119      66    7125    7119
      66    7125    7122      67    7134    7131      66    7137    7131      66
    7137    7134      67    7146    7143      66    7149    7143      66    7149
    7146      67    7158    7155      66    7161    7155      66    7161    7158
      67    7170    7167      66    7173    7167      66    7173    7170      67
    7182    7179      66    7185    7179      66    7185    7182      67    7194
    7191      66    7197    7191      66    7197    7194      67    7206    7203
      66    7209    7203      66    7209    7206      67    7218    7215      66
    7221    7215      66    7221    7218      67    7230    7227      66    7233
    7227      66    7233    7230      67    7242    7239      66    7245    7239
      66    7245    7242      67    7254    7251      66    7257    7251      66
    7257    7254      67    7266    7263      66    7269    7263      66    7269
    7266      67    7278    7275      66    7281    7275      66    7281    7278
      67    7290    7287      66    7293    7287      66    7293    7290      67
    7302    7299      66    7305    7299      66    7305    7302      67    7314
    7311      66    7317    7311      66    7317    7314      67    7326    7323
      66    7329    7323      66    7329    7326      67    7338    7335      66
    7341    7335      66    7341    7338      67    7350    7347      66    7353
    7347      66    7353    7350      67    7362    7359      66    7365    7359
      66    7365    7362      67    7374    7371      66    7377    7371      66
    7377    7374      67    7386    7383      66    7389    7383      66    7389
    7386      67    7398    7395      66    7401    7395      66    7401    7398
      67    7410    7407      66    7413    7407      66    7413    7410      67
    7422    7419      66    7425    7419      66    7425    7422      67    7434
    7431      66    7437    7431      66    7437    7434      67    7446    7443
      66    7449    7443      66    7449    7446      67    7458    7455      66
    7461    7455      66    7461    7458      67    7470    7467      66    7473
    7467      66    7473    7470      67    7482    7479      66    7485    7479
      66    7485    7482      67    7494    7491      66    7497    7491      66
    7497    7494      67    7506    7503      66    7509    7503      66    7509
    7506      67    7518    7515      66    7521    7515      66    7521    7518
      67    7530    7527      66    7533    7527      66    7533    7530      67
    7542    7539      66    7545    7539      66    7545    7542      67    7554
    7551      66    7557    7551      66    7557    7554      67    7566    7563
      66    7569    7563      66    7569    7566      67    7578    7575      66
    7581    7575      66    7581    7578      67    7590    7587      66    7593
    7587      66    7593    7590      67    7602    7599      66    7605    7599
      66    7605    7602      67    7614    7611      66    7617    7611      66
    7617    7614      67    7626    7623      66    7629    7623      66    7629
    7626      67    7638    7635      66    7641    7635      66    7641    7638
      67    7650    7647      66    7653    7647      66    7653    7650      67
    7662    7659      66    7665    7659      66    7665    7662      67    7674
    7671      66    7677    7671      66    7677    7674      67    7686    7683
      66    7689    7683      66    7689    7686      67    7698    7695      66
    7701    7695      66    7701    7698      67    7710    7707      66    7713
    7707      66    7713    7710      67    7722    7719      66    7725    7719
      66    7725    7722      67    7734    7731      66    7737    7731      66
    7737    7734      67    7746    7743      66    7749    7743      66    7749
    7746      67    7758    7755      66    7761    7755      66    7761    7758
      67    7770    7767      66    7773    7767      66    7773    7770      67
    7782    7779      66    7785    7779      66    7785    7782      67    7794
    7791      66    7797    7791      66    7797    7794      67    7806    7803
      66    7809    7803      66    7809    7806      67    7818    7815      66
    7821    7815      66    7821    7818      67    7830    7827      66    7833
    7827      66    7833    7830      67    7842    7839      66    7845    7839
      66    7845    7842      67    7854    7851      66    7857    7851      66
    7857    7854      67    7866    7863      66    7869    7863      66    7869
    7866      67    7878    7875      66    7881    7875      66    7881    7878
      67    7890    7887      66    7893    7887      66    7893    7890      67
    7902    7899      66    7905    7899      66    7905    7902      67    7914
    7911      66    7917    7911      66    7917    7914      67    7926    7923
      66    7929    7923      66    7929    7926      67    7938    7935      66
    7941    7935      66    7941    7938      67    7950    7947      66    7953
    7947      66    7953    7950      67    7962    7959      66    7965    7959
      66    7965    7962      67    7974    7971      66    7977    7971      66
    7977    7974      67    7986    7983      66    7989    7983      66    7989
    7986      67    7998    7995      66    8001    7995      66    8001    7998
      67    8010    8007      66    8013    8007      66    8013    8010      67
    8022    8019      66    8025    8019      66    8025    8022      67    8034
    8031      66    8037    8031      66    8037    8034      67    8046    8043
      66    8049    8043      66    8049    8046      67    8058    8055      66
    8061    8055      66    8061    8058      67    8070    8067      66    8073
    8067      66    8073    8070      67    8082    8079      66    8085    8079
      66    8085    8082      67    8094    8091      66    8097    8091      66
    8097    8094      67    8106    8103      66    8109    8103      66    8109
    8106      67    8118    8115      66    8121    8115      66    8121    8118
      67    8130    8127      66    8133    8127      66    8133    8130      67
    8142    8139      66    8145    8139      66    8145    8142      67    8154
    8151      66    8157    8151      66    8157    8154      67    8166    8163
      66    8169    8163      66    8169    8166      67    8178    8175      66
    8181    8175      66    8181    8178      67    8190    8187      66    8193
    8187      66    8193    8190      67    8202    8199      66    8205    8199
      66    8205    8202      67    8214    8211      66    8217    8211      66
    8217    8214      67    8226    8223      66    8229    8223      66    8229
    8226      67    8238    8235      66    8241    8235      66    8241    8238
      67    8250    8247      66    8253    8247      66    8253    8250      67
    8262    8259      66    8265    8259      66    8265    8262      67    8274
    8271      66    8277    8271      66    8277    8274      67    8286    8283
      66    8289    8283      66    8289    8286      67    8298    8295      66
    8301    8295      66    8301    8298      67    8310    8307      66    8313
    8307      66    8313    8310      67    8322    8319      66    8325    8319
      66    8325    8322      67    8334    8331      66    8337    8331      66
    8337    8334      67    8346    8343      66    8349    8343      66    8349
    8346      67    8358    8355      66    8361    8355      66    8361    8358
      67    8370    8367      66    8373    8367      66    8373    8370      67
    8382    8379      66    8385    8379      66    8385    8382      67    8394
    8391      66    8397    8391      66    8397    8394      67    8406    8403
      66    8409    8403      66    8409    8406      67    8418    8415      66
    8421    8415      66    8421    8418      67    8430    8427      66    8433
    8427      66    8433    8430      67    8442    8439      66    8445    8439
      66    8445    8442      67    8454    8451      66    8457    8451      66
    8457    8454      67    8466    8463      66    8469    8463      66    8469
    8466      67    8478    8475      66    8481    8475      66    8481    8478
      67    8490    8487      66    8493    8487      66    8493    8490      67
    8502    8499      66    8505    8499      66    8505    8502      67    8514
    8511      66    8517    8511      66    8517    8514      67    8526    8523
      66    8529    8523      66    8529    8526      67    8538    8535      66
    8541    8535      66    8541    8538      67    8550    8547      66    8553
    8547      66    8553    8550      67    8562    8559      66    8565    8559
      66    8565    8562      67    8574    8571      66    8577    8571      66
    8577    8574      67    8586    8583      66    8589    8583      66    8589
    8586      67    8598    8595      66    8601    8595      66    8601    8598
      67    8610    8607      66    8613    8607      66    8613    8610      67
    8622    8619      66    8625    8619      66    8625    8622      67    8634
    8631      66    8637    8631      66    8637    8634      67    8646    8643
      66    8649    8643      66    8649    8646      67    8658    8655      66
    8661    8655      66    8661    8658      67    8670    8667      66    8673
    8667      66    8673    8670      67    8682    8679      66    8685    8679
      66    8685    8682      67    8694    8691      66    8697    8691      66
    8697    8694      67    8706    8703      66    8709    8703      66    8709
    8706      67    8718    8715      66    8721    8715      66    8721    8718
      67    8730    8727      66    8733    8727      66    8733    8730      67
    8742    8739      66    8745    8739      66    8745    8742      67    8754
    8751      66    8757    8751      66    8757    8754      67    8766    8763
      66    8769    8763      66    8769    8766      67    8778    8775      66
    8781    8775      66    8781    8778      67    8790    8787      66    8793
    8787      66    8793    8790      67    8802    8799      66    8805    8799
      66    8805    8802      67    8814    8811      66    8817    8811      66
    8817    8814      67    8826    8823      66    8829    8823      66    8829
    8826      67    8838    8835      66    8841    8835      66    8841    8838
      67    8850    8847      66    8853    8847      66    8853    8850      67
    8862    8859      66    8865    8859      66    8865    8862      67    8874
    8871      66    8877    8871      66    8877    8874      67    8886    8883
      66    8889    8883      66    8889    8886      67    8898    8895      66
    8901    8895      66    8901    8898      67    8910    8907      66    8913
    8907      66    8913    8910      67    8922    8919      66    8925    8919
      66    8925    8922      67    8934    8931      66    8937    8931      66
    8937    8934      67    8946    8943      66    8949    8943      66    8949
    8946      67    8958    8955      66    8961    8955      66    8961    8958
      67    8970    8967      66    8973    8967      66    8973    8970      67
    8982    8979      66    8985    8979      66    8985    8982      67    8994
    8991      66    8997    8991      66    8997    8994      67    9006    9003
      66    9009    9003      66    9009    9006      67    9018    9015      66
    9021    9015      66    9021    9018      67    9030    9027      66    9033
    9027      66    9033    9030      67    9042    9039      66    9045    9039
      66    9045    9042      67    9054    9051      66    9057    9051      66
    9057    9054      67    9066    9063      66    9069    9063      66    9069
    9066      67    9078    9075      66    9081    9075      66    9081    9078
      67    9090    9087      66    9093    9087      66    9093    9090      67
    9102    9099      66    9105    9099      66    9105    9102      67    9114
    9111      66    9117    9111      66    9117    9114      67    9126    9123
      66    9129    9123      66    9129    9126      67    9138    9135      66
    9141    9135      66    9141    9138      67    9150    9147      66    9153
    9147      66    9153    9150      67    9162    9159      66    9165    9159
      66    9165    9162      67    9174    9171      66    9177    9171      66
    9177    9174      67    9186    9183      66    9189    9183      66    9189
    9186      67    9198    9195      66    9201    9195      66    9201    9198
      67    9210    9207      66    9213    9207      66    9213    9210      67
    9222    9219      66    9225    9219      66    9225    9222      67    9234
    9231      66    9237    9231      66    9237    9234      67    9246    9243
      66    9249    9243      66    9249    9246      67    9258    9255      66
    9261    9255      66    9261    9258      67    9270    9267      66    9273
    9267      66    9273    9270      67    9282    9279      66    9285    9279
      66    9285    9282      67    9294    9291      66    9297    9291      66
    9297    9294      67    9306    9303      66    9309    9303      66    9309
    9306      67    9318    9315      66    9321    9315      66    9321    9318
      67    9330    9327      66    9333    9327      66    9333    9330      67
    9342    9339      66    9345    9339      66    9345    9342      67    9354
    9351      66    9357    9351      66    9357    9354      67    9366    9363
      66    9369    9363      66    9369    9366      67    9378    9375      66
    9381    9375      66    9381    9378      67    9390    9387      66    9393
    9387      66    9393    9390      67    9402    9399      66    9405    9399
      66    9405    9402      67    9414    9411      66    9417    9411      66
    9417    9414      67    9426    9423      66    9429    9423      66    9429
    9426      67    9438    9435      66    9441    9435      66    9441    9438
      67    9450    9447      66    9453    9447      66    9453    9450      67
    9462    9459      66    9465    9459      66    9465    9462      67    9474
    9471      66    9477    9471      66    9477    9474      67    9486    9483
      66    9489    9483      66    9489    9486      67    9498    9495      66
    9501    9495      66    9501    9498      67    9510    9507      66    9513
    9507      66    9513    9510      67    9522    9519      66    9525    9519
      66    9525    9522      67    9534    9531      66    9537    9531      66
    9537    9534      67    9546    9543      66    9549    9543      66    9549
    9546      67    9558    9555      66    9561    9555      66    9561    9558
      67    9570    9567      66    9573    9567      66    9573    9570      67
    9582    9579      66    9585    9579      66    9585    9582      67    9594
    9591      66    9597    9591      66    9597    9594      67    9606    9603
      66    9609    9603      66    9609    9606      67    9618    9615      66
    9621    9615      66    9621    9618      67    9630    9627      66    9633
    9627      66    9633    9630      67    9642    9639      66    9645    9639
      66    9645    9642      67    9654    9651      66    9657    9651      66
    9657    9654      67    9666    9663      66    9669    9663      66    9669
    9666      67    9678    9675      66    9681    9675      66    9681    9678
      67    9690    9687      66    9693    9687      66    9693    9690      67
    9702    9699      66    9705    9699      66    9705    9702      67    9714
    9711      66    9717    9711      66    9717    9714      67    9726    9723
      66    9729    9723      66    9729    9726      67    9738    9735      66
    9741    9735      66    9741    9738      67    9750    9747      66    9753
    9747      66    9753    9750      67    9762    9759      66    9765    9759
      66    9765    9762      67    9774    9771      66    9777    9771      66
    9777    9774      67    9786    9783      66    9789    9783      66    9789
    9786      67    9798    9795      66    9801    9795      66    9801    9798
      67    9810    9807      66    9813    9807      66    9813    9810      67
    9822    9819      66    9825    9819      66    9825    9822      67    9834
    9831      66    9837    9831      66    9837    9834      67    9846    9843
      66    9849    9843      66    9849    9846      67    9858    9855      66
    9861    9855      66    9861    9858      67    9870    9867      66    9873
    9867      66    9873    9870      67    9882    9879      66    9885    9879
      66    9885    9882      67    9894    9891      66    9897    9891      66
    9897    9894      67    9906    9903      66    9909    9903      66    9909
    9906      67    9918    9915      66    9921    9915      66    9921    9918
      67    9930    9927      66    9933    9927      66    9933    9930      67
    9942    9939      66    9945    9939      66    9945    9942      67    9954
    9951      66    9957    9951      66    9957    9954      67    9966    9963
      66    9969    9963      66    9969    9966      67    9978    9975      66
    9981    9975      66    9981    9978      67    9990    9987      66    9993
    9987      66    9993    9990      67   10002    9999      66   10005    9999
      66   10005   10002      67   10014   10011      66   10017   10011      66
   10017   10014      67   10026   10023      66   10029   10023      66   10029
   10026      67   10038   10035      66   10041   10035      66   10041   10038
      67   10050   10047      66   10053   10047      66   10053   10050      67
   10062   10059      66   10065   10059      66   10065   10062      67   10074
   10071      66   10077   10071      66   10077   10074      67   10086   10083
      66   10089   10083      66   10089   10086      67   10098   10095      66
   10101   10095      66   10101   10098      67   10110   10107      66   10113
   10107      66   10113   10110      67   10122   10119      66   10125   10119
      66   10125   10122      67   10134   10131      66   10137   10131      66
   10137   10134      67   10146   10143      66   10149   10143      66   10149
   10146      67   10158   10155      66   10161   10155      66   10161   10158
      67   10170   10167      66   10173   10167      66   10173   10170      67
   10182   10179      66   10185   10179      66   10185   10182      67   10194
   10191      66   10197   10191      66   10197   10194      67   10206   10203
      66   10209   10203      66   10209   10206      67   10218   10215      66
   10221   10215      66   10221   10218      67   10230   10227      66   10233
   10227      66   10233   10230      67   10242   10239      66   10245   10239
      66   10245   10242      67   10254   10251      66   10257   10251      66
   10257   10254      67   10266   10263      66   10269   10263      66   10269
   10266      67   10278   10275      66   10281   10275      66   10281   10278
      67   10290   10287      66   10293   10287      66   10293   10290      67
   10302   10299      66   10305   10299      66   10305   10302      67   10314
   10311      66   10317   10311      66   10317   10314      67   10326   10323
      66   10329   10323      66   10329   10326      67   10338   10335      66
   10341   10335      66   10341   10338      67   10350   10347      66   10353
   10347      66   10353   10350      67   10362   10359      66   10365   10359
      66   10365   10362      67   10374   10371      66   10377   10371      66
   10377   10374      67   10386   10383      66   10389   10383      66   10389
   10386      67   10398   10395      66   10401   10395      66   10401   10398
      67   10410   10407      66   10413   10407      66   10413   10410      67
   10422   10419      66   10425   10419      66   10425   10422      67   10434
   10431      66   10437   10431      66   10437   10434      67   10446   10443
      66   10449   10443      66   10449   10446      67   10458   10455      66
   10461   10455      66   10461   10458      67   10470   10467      66   10473
   10467      66   10473   10470      67   10482   10479      66   10485   10479
      66   10485   10482      67   10494   10491      66   10497   10491      66
   10497   10494      67   10506   10503      66   10509   10503      66   10509
   10506      67   10518   10515      66   10521   10515      66   10521   10518
      67   10530   10527      66   10533   10527      66   10533   10530      67
   10542   10539      66   10545   10539      66   10545   10542      67   10554
   10551      66   10557   10551      66   10557   10554      67   10566   10563
      66   10569   10563      66   10569   10566      67   10578   10575      66
   10581   10575      66   10581   10578      67   10590   10587      66   10593
   10587      66   10593   10590      67   10602   10599      66   10605   10599
      66   10605   10602      67   10614   10611      66   10617   10611      66
   10617   10614      67   10626   10623      66   10629   10623      66   10629
   10626      67   10638   10635      66   10641   10635      66   10641   10638
      67   10650   10647      66   10653   10647      66   10653   10650      67
   10662   10659      66   10665   10659      66   10665   10662      67   10674
   10671      66   10677   10671      66   10677   10674      67   10686   10683
      66   10689   10683      66   10689   10686      67   10698   10695      66
   10701   10695      66   10701   10698      67   10710   10707      66   10713
   10707      66   10713   10710      67   10722   10719      66   10725   10719
      66   10725   10722      67   10734   10731      66   10737   10731      66
   10737   10734      67   10746   10743      66   10749   10743      66   10749
   10746      67   10758   10755      66   10761   10755      66   10761   10758
      67   10770   10767      66   10773   10767      66   10773   10770      67
   10782   10779      66   10785   10779      66   10785   10782      67   10794
   10791      66   10797   10791      66   10797   10794      67   10806   10803
      66   10809   10803      66   10809   10806      67   10818   10815      66
   10821   10815      66   10821   10818      67   10830   10827      66   10833
   10827      66   10833   10830      67   10842   10839      66   10845   10839
      66   10845   10842      67   10854   10851      66   10857   10851      66
   10857   10854      67   10866   10863      66   10869   10863      66   10869
   10866      67   10878   10875      66   10881   10875      66   10881   10878
      67   10890   10887      66   10893   10887      66   10893   10890      67
   10902   10899      66   10905   10899      66   10905   10902      67   10914
   10911      66   10917   10911      66   10917   10914      67   10926   10923
      66   10929   10923      66   10929   10926      67   10938   10935      66
   10941   10935      66   10941   10938      67   10950   10947      66   10953
   10947      66   10953   10950      67   10962   10959      66   10965   10959
      66   10965   10962      67   10974   10971      66   10977   10971      66
   10977   10974      67   10986   10983      66   10989   10983      66   10989
   10986      67   10998   10995      66   11001   10995      66   11001   10998
      67   11010   11007      66   11013   11007      66   11013   11010      67
   11022   11019      66   11025   11019      66   11025   11022      67   11034
   11031      66   11037   11031      66   11037   11034      67   11046   11043
      66   11049   11043      66   11049   11046      67   11058   11055      66
   11061   11055      66   11061   11058      67   11070   11067      66   11073
   11067      66   11073   11070      67   11082   11079      66   11085   11079
      66   11085   11082      67   11094   11091      66   11097   11091      66
   11097   11094      67   11106   11103      66   11109   11103      66   11109
   11106      67   11118   11115      66   11121   11115      66   11121   11118
      67   11130   11127      66   11133   11127      66   11133   11130      67
   11142   11139      66   11145   11139      66   11145   11142      67   11154
   11151      66   11157   11151      66   11157   11154      67   11166   11163
      66   11169   11163      66   11169   11166      67   11178   11175      66
   11181   11175      66   11181   11178      67   11190   11187      66   11193
   11187      66   11193   11190      67   11202   11199      66   11205   11199
      66   11205   11202      67   11214   11211      66   11217   11211      66
   11217   11214      67   11226   11223      66   11229   11223      66   11229
   11226      67   11238   11235      66   11241   11235      66   11241   11238
      67   11250   11247      66   11253   11247      66   11253   11250      67
   11262   11259      66   11265   11259      66   11265   11262      67   11274
   11271      66   11277   11271      66   11277   11274      67   11286   11283
      66   11289   11283      66   11289   11286      67   11298   11295      66
   11301   11295      66   11301   11298      67   11310   11307      66   11313
   11307      66   11313   11310      67   11322   11319      66   11325   11319
      66   11325   11322      67   11334   11331      66   11337   11331      66
   11337   11334      67   11346   11343      66   11349   11343      66   11349
   11346      67   11358   11355      66   11361   11355      66   11361   11358
      67   11370   11367      66   11373   11367      66   11373   11370      67
   11382   11379      66   11385   11379      66   11385   11382      67   11394
   11391      66   11397   11391      66   11397   11394      67   11406   11403
      66   11409   11403      66   11409   11406      67   11418   11415      66
   11421   11415      66   11421   11418      67   11430   11427      66   11433
   11427      66   11433   11430      67   11442   11439      66   11445   11439
      66   11445   11442      67   11454   11451      66   11457   11451      66
   11457   11454      67   11466   11463      66   11469   11463      66   11469
   11466      67   11478   11475      66   11481   11475      66   11481   11478
      67   11490   11487      66   11493   11487      66   11493   11490      67
   11502   11499      66   11505   11499      66   11505   11502      67   11514
   11511      66   11517   11511      66   11517   11514      67   11526   11523
      66   11529   11523      66   11529   11526      67   11538   11535      66
   11541   11535      66   11541   11538      67   11550   11547      66   11553
   11547      66   11553   11550      67   11562   11559      66   11565   11559
      66   11565   11562      67   11574   11571      66   11577   11571      66
   11577   11574      67   11586   11583      66   11589   11583      66   11589
   11586      67   11598   11595      66   11601   11595      66   11601   11598
      67   11610   11607      66   11613   11607      66   11613   11610      67
   11622   11619      66   11625   11619      66   11625   11622      67   11634
   11631      66   11637   11631      66   11637   11634      67   11646   11643
      66   11649   11643      66   11649   11646      67   11658   11655      66
   11661   11655      66   11661   11658      67   11670   11667      66   11673
   11667      66   11673   11670      67   11682   11679      66   11685   11679
      66   11685   11682      67   11694   11691      66   11697   11691      66
   11697   11694      67   11706   11703      66   11709   11703      66   11709
   11706      67   11718   11715      66   11721   11715      66   11721   11718
      67   11730   11727      66   11733   11727      66   11733   11730      67
   11742   11739      66   11745   11739      66   11745   11742      67   11754
   11751      66   11757   11751      66   11757   11754      67   11766   11763
      66   11769   11763      66   11769   11766      67   11778   11775      66
   11781   11775      66   11781   11778      67   11790   11787      66   11793
   11787      66   11793   11790      67   11802   11799      66   11805   11799
      66   11805   11802      67   11814   11811      66   11817   11811      66
   11817   11814      67   11826   11823      66   11829   11823      66   11829
   11826      67   11838   11835      66   11841   11835      66   11841   11838
      67   11850   11847      66   11853   11847      66   11853   11850      67
   11862   11859      66   11865   11859      66   11865   11862      67   11874
   11871      66   11877   11871      66   11877   11874      67   11886   11883
      66   11889   11883      66   11889   11886      67   11898   11895      66
   11901   11895      66   11901   11898      67   11910   11907      66   11913
   11907      66   11913   11910      67   11922   11919      66   11925   11919
      66   11925   11922      67   11934   11931      66   11937   11931      66
   11937   11934      67   11946   11943      66   11949   11943      66   11949
   11946      67   11958   11955      66   11961   11955      66   11961   11958
      67   11970   11967      66   11973   11967      66   11973   11970      67
   11982   11979      66   11985   11979      66   11985   11982      67   11994
   11991      66   11997   11991      66   11997   11994      67   12006   12003
      66   12009   12003      66   12009   12006      67   12018   12015      66
   12021   12015      66   12021   12018      67   12030   12027      66   12033
   12027      66   12033   12030      67   12042   12039      66   12045   12039
      66   12045   12042      67   12054   12051      66   12057   12051      66
   12057   12054      67   12066   12063      66   12069   12063      66   12069
   12066      67   12078   12075      66   12081   12075      66   12081   12078
      67   12090   12087      66   12093   12087      66   12093   12090      67
   12102   12099      66   12105   12099      66   12105   12102      67   12114
   12111      66   12117   12111      66   12117   12114      67   12126   12123
      66   12129   12123      66   12129   12126      67   12138   12135      66
   12141   12135      66   12141   12138      67   12150   12147      66   12153
   12147      66   12153   12150      67   12162   12159      66   12165   12159
      66   12165   12162      67   12174   12171      66   12177   12171      66
   12177   12174      67   12186   12183      66   12189   12183      66   12189
   12186      67   12198   12195      66   12201   12195      66   12201   12198
      67   12210   12207      66   12213   12207      66   12213   12210      67
   12222   12219      66   12225   12219      66   12225   12222      67   12234
   12231      66   12237   12231      66   12237   12234      67   12246   12243
      66   12249   12243      66   12249   12246      67   12258   12255      66
   12261   12255      66   12261   12258      67   12270   12267      66   12273
   12267      66   12273   12270      67   12282   12279      66   12285   12279
      66   12285   12282      67   12294   12291      66   12297   12291      66
   12297   12294      67   12306   12303      66   12309   12303      66   12309
   12306      67   12318   12315      66   12321   12315      66   12321   12318
      67   12330   12327      66   12333   12327      66   12333   12330      67
   12342   12339      66   12345   12339      66   12345   12342      67   12354
   12351      66   12357   12351      66   12357   12354      67   12366   12363
      66   12369   12363      66   12369   12366      67   12378   12375      66
   12381   12375      66   12381   12378      67   12390   12387      66   12393
   12387      66   12393   12390      67   12402   12399      66   12405   12399
      66   12405   12402      67   12414   12411      66   12417   12411      66
   12417   12414      67   12426   12423      66   12429   12423      66   12429
   12426      67   12438   12435      66   12441   12435      66   12441   12438
      67   12450   12447      66   12453   12447      66   12453   12450      67
   12462   12459      66   12465   12459      66   12465   12462      67   12474
   12471      66   12477   12471      66   12477   12474      67   12486   12483
      66   12489   12483      66   12489   12486      67   12498   12495      66
   12501   12495      66   12501   12498      67   12510   12507      66   12513
   12507      66   12513   12510      67   12522   12519      66   12525   12519
      66   12525   12522      67   12534   12531      66   12537   12531      66
   12537   12534      67   12546   12543      66   12549   12543      66   12549
   12546      67   12558   12555      66   12561   12555      66   12561   12558
      67   12570   12567      66   12573   12567      66   12573   12570      67
   12582   12579      66   12585   12579      66   12585   12582      67   12594
   12591      66   12597   12591      66   12597   12594      67   12606   12603
      66   12609   12603      66   12609   12606      67   12618   12615      66
   12621   12615      66   12621   12618      67   12630   12627      66   12633
   12627      66   12633   12630      67   12642   12639      66   12645   12639
      66   12645   12642      67   12654   12651      66   12657   12651      66
   12657   12654      67   12666   12663      66   12669   12663      66   12669
   12666      67   12678   12675      66   12681   12675      66   12681   12678
      67   12690   12687      66   12693   12687      66   12693   12690      67
   12702   12699      66   12705   12699      66   12705   12702      67   12714
   12711      66   12717   12711      66   12717   12714      67   12726   12723
      66   12729   12723      66   12729   12726      67   12738   12735      66
   12741   12735      66   12741   12738      67   12750   12747      66   12753
   12747      66   12753   12750      67   12762   12759      66   12765   12759
      66   12765   12762      67   12774   12771      66   12777   12771      66
   12777   12774      67   12786   12783      66   12789   12783      66   12789
   12786      67   12798   12795      66   12801   12795      66   12801   12798
      67   12810   12807      66   12813   12807      66   12813   12810      67
   12822   12819      66   12825   12819      66   12825   12822      67   12834
   12831      66   12837   12831      66   12837   12834      67   12846   12843
      66   12849   12843      66   12849   12846      67   12858   12855      66
   12861   12855      66   12861   12858      67   12870   12867      66   12873
   12867      66   12873   12870      67   12882   12879      66   12885   12879
      66   12885   12882      67   12894   12891      66   12897   12891      66
   12897   12894      67   12906   12903      66   12909   12903      66   12909
   12906      67   12918   12915      66   12921   12915      66   12921   12918
      67   12930   12927      66   12933   12927      66   12933   12930      67
   12942   12939      66   12945   12939      66   12945   12942      67   12954
   12951      66   12957   12951      66   12957   12954      67   12966   12963
      66   12969   12963      66   12969   12966      67   12978   12975      66
   12981   12975      66   12981   12978      67   12990   12987      66   12993
   12987      66   12993   12990      67   13002   12999      66   13005   12999
      66   13005   13002      67   13014   13011      66   13017   13011      66
   13017   13014      67   13026   13023      66   13029   13023      66   13029
   13026      67   13038   13035      66   13041   13035      66   13041   13038
      67   13050   13047      66   13053   13047      66   13053   13050      67
   13062   13059      66   13065   13059      66   13065   13062      67   13074
   13071      66   13077   13071      66   13077   13074      67   13086   13083
      66   13089   13083      66   13089   13086      67   13098   13095      66
   13101   13095      66   13101   13098      67   13110   13107      66   13113
   13107      66   13113   13110      67   13122   13119      66   13125   13119
      66   13125   13122      67   13134   13131      66   13137   13131      66
   13137   13134      67   13146   13143      66   13149   13143      66   13149
   13146      67   13158   13155      66   13161   13155      66   13161   13158
      67   13170   13167      66   13173   13167      66   13173   13170      67
   13182   13179      66   13185   13179      66   13185   13182      67   13194
   13191      66   13197   13191      66   13197   13194      67   13206   13203
      66   13209   13203      66   13209   13206      67   13218   13215      66
   13221   13215      66   13221   13218      67   13230   13227      66   13233
   13227      66   13233   13230      67   13242   13239      66   13245   13239
      66   13245   13242      67   13254   13251      66   13257   13251      66
   13257   13254      67   13266   13263      66   13269   13263      66   13269
   13266      67   13278   13275      66   13281   13275      66   13281   13278
      67   13290   13287      66   13293   13287      66   13293   13290      67
   13302   13299      66   13305   13299      66   13305   13302      67   13314
   13311      66   13317   13311      66   13317   13314      67   13326   13323
      66   13329   13323      66   13329   13326      67   13338   13335      66
   13341   13335      66   13341   13338      67   13350   13347      66   13353
   13347      66   13353   13350      67   13362   13359      66   13365   13359
      66   13365   13362      67   13374   13371      66   13377   13371      66
   13377   13374      67   13386   13383      66   13389   13383      66   13389
   13386      67   13398   13395      66   13401   13395      66   13401   13398
      67   13410   13407      66   13413   13407      66   13413   13410      67
   13422   13419      66   13425   13419      66   13425   13422      67   13434
   13431      66   13437   13431      66   13437   13434      67   13446   13443
      66   13449   13443      66   13449   13446      67   13458   13455      66
   13461   13455      66   13461   13458      67   13470   13467      66   13473
   13467      66   13473   13470      67   13482   13479      66   13485   13479
      66   13485   13482      67   13494   13491      66   13497   13491      66
   13497   13494      67   13506   13503      66   13509   13503      66   13509
   13506      67   13518   13515      66   13521   13515      66   13521   13518
      67   13530   13527      66   13533   13527      66   13533   13530      67
   13542   13539      66   13545   13539      66   13545   13542      67   13554
   13551      66   13557   13551      66   13557   13554      67   13566   13563
      66   13569   13563      66   13569   13566      67   13578   13575      66
   13581   13575      66   13581   13578      67   13590   13587      66   13593
   13587      66   13593   13590      67   13602   13599      66   13605   13599
      66   13605   13602      67   13614   13611      66   13617   13611      66
   13617   13614      67   13626   13623      66   13629   13623      66   13629
   13626      67   13638   13635      66   13641   13635      66   13641   13638
      67   13650   13647      66   13653   13647      66   13653   13650      67
   13662   13659      66   13665   13659      66   13665   13662      67   13674
   13671      66   13677   13671      66   13677   13674      67   13686   13683
      66   13689   13683      66   13689   13686      67   13698   13695      66
   13701   13695      66   13701   13698      67   13710   13707      66   13713
   13707      66   13713   13710      67   13722   13719      66   13725   13719
      66   13725   13722      67   13734   13731      66   13737   13731      66
   13737   13734      67   13746   13743      66   13749   13743      66   13749
   13746      67   13758   13755      66   13761   13755      66   13761   13758
      67   13770   13767      66   13773   13767      66   13773   13770      67
   13782   13779      66   13785   13779      66   13785   13782      67   13794
   13791      66   13797   13791      66   13797   13794      67   13806   13803
      66   13809   13803      66   13809   13806      67   13818   13815      66
   13821   13815      66   13821   13818      67   13830   13827      66   13833
   13827      66   13833   13830      67   13842   13839      66   13845   13839
      66   13845   13842      67   13854   13851      66   13857   13851      66
   13857   13854      67   13866   13863      66   13869   13863      66   13869
   13866      67   13878   13875      66   13881   13875      66   13881   13878
      67   13890   13887      66   13893   13887      66   13893   13890      67
   13902   13899      66   13905   13899      66   13905   13902      67   13914
   13911      66   13917   13911      66   13917   13914      67   13926   13923
      66   13929   13923      66   13929   13926      67   13938   13935      66
   13941   13935      66   13941   13938      67   13950   13947      66   13953
   13947      66   13953   13950      67   13962   13959      66   13965   13959
      66   13965   13962      67   13974   13971      66   13977   13971      66
   13977   13974      67   13986   13983      66   13989   13983      66   13989
   13986      67   13998   13995      66   14001   13995      66   14001   13998
      67   14010   14007      66   14013   14007      66   14013   14010      67
   14022   14019      66   14025   14019      66   14025   14022      67   14034
   14031      66   14037   14031      66   14037   14034      67   14046   14043
      66   14049   14043      66   14049   14046      67   14058   14055      66
   14061   14055      66   14061   14058      67   14070   14067      66   14073
   14067      66   14073   14070      67   14082   14079      66   14085   14079
      66   14085   14082      67   14094   14091      66   14097   14091      66
   14097   14094      67   14106   14103      66   14109   14103      66   14109
   14106      67   14118   14115      66   14121   14115      66   14121   14118
      67   14130   14127      66   14133   14127      66   14133   14130      67
   14142   14139      66   14145   14139      66   14145   14142      67   14154
   14151      66   14157   14151      66   14157   14154      67   14166   14163
      66   14169   14163      66   14169   14166      67   14178   14175      66
   14181   14175      66   14181   14178      67   14190   14187      66   14193
   14187      66   14193   14190      67   14202   14199      66   14205   14199
      66   14205   14202      67   14214   14211      66   14217   14211      66
   14217   14214      67   14226   14223      66   14229   14223      66   14229
   14226      67   14238   14235      66   14241   14235      66   14241   14238
      67   14250   14247      66   14253   14247      66   14253   14250      67
   14262   14259      66   14265   14259      66   14265   14262      67   14274
   14271      66   14277   14271      66   14277   14274      67   14286   14283
      66   14289   14283      66   14289   14286      67   14298   14295      66
   14301   14295      66   14301   14298      67   14310   14307      66   14313
   14307      66   14313   14310      67   14322   14319      66   14325   14319
      66   14325   14322      67   14334   14331      66   14337   14331      66
   14337   14334      67   14346   14343      66   14349   14343      66   14349
   14346      67   14358   14355      66   14361   14355      66   14361   14358
      67   14370   14367      66   14373   14367      66   14373   14370      67
   14382   14379      66   14385   14379      66   14385   14382      67   14394
   14391      66   14397   14391      66   14397   14394      67   14406   14403
      66   14409   14403      66   14409   14406      67   14418   14415      66
   14421   14415      66   14421   14418      67   14430   14427      66   14433
   14427      66   14433   14430      67   14442   14439      66   14445   14439
      66   14445   14442      67   14454   14451      66   14457   14451      66
   14457   14454      67   14466   14463      66   14469   14463      66   14469
   14466      67   14478   14475      66   14481   14475      66   14481   14478
      67   14490   14487      66   14493   14487      66   14493   14490      67
   14502   14499      66   14505   14499      66   14505   14502      67   14514
   14511      66   14517   14511      66   14517   14514      67   14526   14523
      66   14529   14523      66   14529   14526      67   14538   14535      66
   14541   14535      66   14541   14538      67   14550   14547      66   14553
   14547      66   14553   14550      67   14562   14559      66   14565   14559
      66   14565   14562      67   14574   14571      66   14577   14571      66
   14577   14574      67   14586   14583      66   14589   14583      66   14589
   14586      67   14598   14595      66   14601   14595      66   14601   14598
      67   14610   14607      66   14613   14607      66   14613   14610      67
   14622   14619      66   14625   14619      66   14625   14622      67   14634
   14631      66   14637   14631      66   14637   14634      67   14646   14643
      66   14649   14643      66   14649   14646      67   14658   14655      66
   14661   14655      66   14661   14658      67   14670   14667      66   14673
   14667      66   14673   14670      67   14682   14679      66   14685   14679
      66   14685   14682      67   14694   14691      66   14697   14691      66
   14697   14694      67   14706   14703      66   14709   14703      66   14709
   14706      67   14718   14715      66   14721   14715      66   14721   14718
      67   14730   14727      66   14733   14727      66   14733   14730      67
   14742   14739      66   14745   14739      66   14745   14742      67   14754
   14751      66   14757   14751      66   14757   14754      67   14766   14763
      66   14769   14763      66   14769   14766      67   14778   14775      66
   14781   14775      66   14781   14778      67   14790   14787      66   14793
   14787      66   14793   14790      67   14802   14799      66   14805   14799
      66   14805   14802      67   14814   14811      66   14817   14811      66
   14817   14814      67   14826   14823      66   14829   14823      66   14829
   14826      67   14838   14835      66   14841   14835      66   14841   14838
      67   14850   14847      66   14853   14847      66   14853   14850      67
   14862   14859      66   14865   14859      66   14865   14862      67   14874
   14871      66   14877   14871      66   14877   14874      67   14886   14883
      66   14889   14883      66   14889   14886      67   14898   14895      66
   14901   14895      66   14901   14898      67   14910   14907      66   14913
   14907      66   14913   14910      67   14922   14919      66   14925   14919
      66   14925   14922      67   14934   14931      66   14937   14931      66
   14937   14934      67   14946   14943      66   14949   14943      66   14949
   14946      67   14958   14955      66   14961   14955      66   14961   14958
      67   14970   14967      66   14973   14967      66   14973   14970      67
   14982   14979      66   14985   14979      66   14985   14982      67   14994
   14991      66   14997   14991      66   14997   14994      67   15006   15003
      66   15009   15003      66   15009   15006      67   15018   15015      66
   15021   15015      66   15021   15018      67   15030   15027      66   15033
   15027      66   15033   15030      67   15042   15039      66   15045   15039
      66   15045   15042      67   15054   15051      66   15057   15051      66
   15057   15054      67   15066   15063      66   15069   15063      66   15069
   15066      67   15078   15075      66   15081   15075      66   15081   15078
      67   15090   15087      66   15093   15087      66   15093   15090      67
   15102   15099      66   15105   15099      66   15105   15102      67   15114
   15111      66   15117   15111      66   15117   15114      67   15126   15123
      66   15129   15123      66   15129   15126      67   15138   15135      66
   15141   15135      66   15141   15138      67   15150   15147      66   15153
   15147      66   15153   15150      67   15162   15159      66   15165   15159
      66   15165   15162      67   15174   15171      66   15177   15171      66
   15177   15174      67   15186   15183      66   15189   15183      66   15189
   15186      67   15198   15195      66   15201   15195      66   15201   15198
      67   15210   15207      66   15213   15207      66   15213   15210      67
   15222   15219      66   15225   15219      66   15225   15222      67   15234
   15231      66   15237   15231      66   15237   15234      67   15246   15243
      66   15249   15243      66   15249   15246      67   15258   15255      66
   15261   15255      66   15261   15258      67   15270   15267      66   15273
   15267      66   15273   15270      67   15282   15279      66   15285   15279
      66   15285   15282      67   15294   15291      66   15297   15291      66
   15297   15294      67   15306   15303      66   15309   15303      66   15309
   15306      67   15318   15315      66   15321   15315      66   15321   15318
      67   15330   15327      66   15333   15327      66   15333   15330      67
   15342   15339      66   15345   15339      66   15345   15342      67   15354
   15351      66   15357   15351      66   15357   15354      67   15366   15363
      66   15369   15363      66   15369   15366      67   15378   15375      66
   15381   15375      66   15381   15378      67   15390   15387      66   15393
   15387      66   15393   15390      67   15402   15399      66   15405   15399
      66   15405   15402      67   15414   15411      66   15417   15411      66
   15417   15414      67   15426   15423      66   15429   15423      66   15429
   15426      67   15438   15435      66   15441   15435      66   15441   15438
      67   15450   15447      66   15453   15447      66   15453   15450      67
   15462   15459      66   15465   15459      66   15465   15462      67   15474
   15471      66   15477   15471      66   15477   15474      67   15486   15483
      66   15489   15483      66   15489   15486      67   15498   15495      66
   15501   15495      66   15501   15498      67   15510   15507      66   15513
   15507      66   15513   15510      67   15522   15519      66   15525   15519
      66   15525   15522      67   15534   15531      66   15537   15531      66
   15537   15534      67   15546   15543      66   15549   15543      66   15549
   15546      67   15558   15555      66   15561   15555      66   15561   15558
      67   15570   15567      66   15573   15567      66   15573   15570      67
   15582   15579      66   15585   15579      66   15585   15582      67   15594
   15591      66   15597   15591      66   15597   15594      67   15606   15603
      66   15609   15603      66   15609   15606      67   15618   15615      66
   15621   15615      66   15621   15618      67   15630   15627      66   15633
   15627      66   15633   15630      67   15642   15639      66   15645   15639
      66   15645   15642      67   15654   15651      66   15657   15651      66
   15657   15654      67   15666   15663      66   15669   15663      66   15669
   15666      67   15678   15675      66   15681   15675      66   15681   15678
      67   15690   15687      66   15693   15687      66   15693   15690      67
   15702   15699      66   15705   15699      66   15705   15702      67   15714
   15711      66   15717   15711      66   15717   15714      67   15726   15723
      66   15729   15723      66   15729   15726      67   15738   15735      66
   15741   15735      66   15741   15738      67   15750   15747      66   15753
   15747      66   15753   15750      67   15762   15759      66   15765   15759
      66   15765   15762      67   15774   15771      66   15777   15771      66
   15777   15774      67   15786   15783      66   15789   15783      66   15789
   15786      67   15798   15795      66   15801   15795      66   15801   15798
      67   15810   15807      66   15813   15807      66   15813   15810      67
   15822   15819      66   15825   15819      66   15825   15822      67   15834
   15831      66   15837   15831      66   15837   15834      67   15846   15843
      66   15849   15843      66   15849   15846      67   15858   15855      66
   15861   15855      66   15861   15858      67   15870   15867      66   15873
   15867      66   15873   15870      67   15882   15879      66   15885   15879
      66   15885   15882      67   15894   15891      66   15897   15891      66
   15897   15894      67   15906   15903      66   15909   15903      66   15909
   15906      67   15918   15915      66   15921   15915      66   15921   15918
      67   15930   15927      66   15933   15927      66   15933   15930      67
   15942   15939      66   15945   15939      66   15945   15942      67   15954
   15951      66   15957   15951      66   15957   15954      67   15966   15963
      66   15969   15963      66   15969   15966      67   15978   15975      66
   15981   15975      66   15981   15978      67   15990   15987      66   15993
   15987      66   15993   15990      67   16002   15999      66   16005   15999
      66   16005   16002      67   16014   16011      66   16017   16011      66
   16017   16014      67   16026   16023      66   16029   16023      66   16029
   16026      67   16038   16035      66   16041   16035      66   16041   16038
      67   16050   16047      66   16053   16047      66   16053   16050      67
   16062   16059      66   16065   16059      66   16065   16062      67   16074
   16071      66   16077   16071      66   16077   16074      67   16086   16083
      66   16089   16083      66   16089   16086      67   16098   16095      66
   16101   16095      66   16101   16098      67   16110   16107      66   16113
   16107      66   16113   16110      67   16122   16119      66   16125   16119
      66   16125   16122      67   16134   16131      66   16137   16131      66
   16137   16134      67   16146   16143      66   16149   16143      66   16149
   16146      67   16158   16155      66   16161   16155      66   16161   16158
      67   16170   16167      66   16173   16167      66   16173   16170      67
   16182   16179      66   16185   16179      66   16185   16182      67   16194
   16191      66   16197   16191      66   16197   16194      67   16206   16203
      66   16209   16203      66   16209   16206      67   16218   16215      66
   16221   16215      66   16221   16218      67   16230   16227      66   16233
   16227      66   16233   16230      67   16242   16239      66   16245   16239
      66   16245   16242      67   16254   16251      66   16257   16251      66
   16257   16254      67   16266   16263      66   16269   16263      66   16269
   16266      67   16278   16275      66   16281   16275      66   16281   16278
      67   16290   16287      66   16293   16287      66   16293   16290      67
   16302   16299      66   16305   16299      66   16305   16302      67   16314
   16311      66   16317   16311      66   16317   16314      67   16326   16323
      66   16329   16323      66   16329   16326      67   16338   16335      66
   16341   16335      66   16341   16338      67   16350   16347      66   16353
   16347      66   16353   16350      67   16362   16359      66   16365   16359
      66   16365   16362      67   16374   16371      66   16377   16371      66
   16377   16374      67   16386   16383      66   16389   16383      66   16389
   16386      67   16398   16395      66   16401   16395      66   16401   16398
      67   16410   16407      66   16413   16407      66   16413   16410      67
   16422   16419      66   16425   16419      66   16425   16422      67   16434
   16431      66   16437   16431      66   16437   16434      67   16446   16443
      66   16449   16443      66   16449   16446      67   16458   16455      66
   16461   16455      66   16461   16458      67   16470   16467      66   16473
   16467      66   16473   16470      67   16482   16479      66   16485   16479
      66   16485   16482      67   16494   16491      66   16497   16491      66
   16497   16494      67   16506   16503      66   16509   16503      66   16509
   16506      67   16518   16515      66   16521   16515      66   16521   16518
      67   16530   16527      66   16533   16527      66   16533   16530      67
   16542   16539      66   16545   16539      66   16545   16542      67   16554
   16551      66   16557   16551      66   16557   16554      67   16566   16563
      66   16569   16563      66   16569   16566      67   16578   16575      66
   16581   16575      66   16581   16578      67   16590   16587      66   16593
   16587      66   16593   16590      67   16602   16599      66   16605   16599
      66   16605   16602      67   16614   16611      66   16617   16611      66
   16617   16614      67   16626   16623      66   16629   16623      66   16629
   16626      67   16638   16635      66   16641   16635      66   16641   16638
      67   16650   16647      66   16653   16647      66   16653   16650      67
   16662   16659      66   16665   16659      66   16665   16662      67   16674
   16671      66   16677   16671      66   16677   16674      67   16686   16683
      66   16689   16683      66   16689   16686      67   16698   16695      66
   16701   16695      66   16701   16698      67   16710   16707      66   16713
   16707      66   16713   16710      67   16722   16719      66   16725   16719
      66   16725   16722      67   16734   16731      66   16737   16731      66
   16737   16734      67   16746   16743      66   16749   16743      66   16749
   16746      67   16758   16755      66   16761   16755      66   16761   16758
      67   16770   16767      66   16773   16767      66   16773   16770      67
   16782   16779      66   16785   16779      66   16785   16782      67   16794
   16791      66   16797   16791      66   16797   16794      67   16806   16803
      66   16809   16803      66   16809   16806      67   16818   16815      66
   16821   16815      66   16821   16818      67   16830   16827      66   16833
   16827      66   16833   16830      67   16842   16839      66   16845   16839
      66   16845   16842      67   16854   16851      66   16857   16851      66
   16857   16854      67   16866   16863      66   16869   16863      66   16869
   16866      67   16878   16875      66   16881   16875      66   16881   16878
      67   16890   16887      66   16893   16887      66   16893   16890      67
   16902   16899      66   16905   16899      66   16905   16902      67   16914
   16911      66   16917   16911      66   16917   16914      67   16926   16923
      66   16929   16923      66   16929   16926      67   16938   16935      66
   16941   16935      66   16941   16938      67   16950   16947      66   16953
   16947      66   16953   16950      67   16962   16959      66   16965   16959
      66   16965   16962      67   16974   16971      66   16977   16971      66
   16977   16974      67   16986   16983      66   16989   16983      66   16989
   16986      67   16998   16995      66   17001   16995      66   17001   16998
      67   17010   17007      66   17013   17007      66   17013   17010      67
   17022   17019      66   17025   17019      66   17025   17022      67   17034
   17031      66   17037   17031      66   17037   17034      67   17046   17043
      66   17049   17043      66   17049   17046      67   17058   17055      66
   17061   17055      66   17061   17058      67   17070   17067      66   17073
   17067      66   17073   17070      67   17082   17079      66   17085   17079
      66   17085   17082      67   17094   17091      66   17097   17091      66
   17097   17094      67   17106   17103      66   17109   17103      66   17109
   17106      67   17118   17115      66   17121   17115      66   17121   17118
      67   17130   17127      66   17133   17127      66   17133   17130      67
   17142   17139      66   17145   17139      66   17145   17142      67   17154
   17151      66   17157   17151      66   17157   17154      67   17166   17163
      66   17169   17163      66   17169   17166      67   17178   17175      66
   17181   17175      66   17181   17178      67   17190   17187      66   17193
   17187      66   17193   17190      67   17202   17199      66   17205   17199
      66   17205   17202      67   17214   17211      66   17217   17211      66
   17217   17214      67   17226   17223      66   17229   17223      66   17229
   17226      67   17238   17235      66   17241   17235      66   17241   17238
      67   17250   17247      66   17253   17247      66   17253   17250      67
   17262   17259      66   17265   17259      66   17265   17262      67   17274
   17271      66   17277   17271      66   17277   17274      67   17286   17283
      66   17289   17283      66   17289   17286      67   17298   17295      66
   17301   17295      66   17301   17298      67   17310   17307      66   17313
   17307      66   17313   17310      67   17322   17319      66   17325   17319
      66   17325   17322      67   17334   17331      66   17337   17331      66
   17337   17334      67   17346   17343      66   17349   17343      66   17349
   17346      67   17358   17355      66   17361   17355      66   17361   17358
      67   17370   17367      66   17373   17367      66   17373   17370      67
   17382   17379      66   17385   17379      66   17385   17382      67   17394
   17391      66   17397   17391      66   17397   17394      67   17406   17403
      66   17409   17403      66   17409   17406      67   17418   17415      66
   17421   17415      66   17421   17418      67   17430   17427      66   17433
   17427      66   17433   17430      67   17442   17439      66   17445   17439
      66   17445   17442      67   17454   17451      66   17457   17451      66
   17457   17454      67   17466   17463      66   17469   17463      66   17469
   17466      67   17478   17475      66   17481   17475      66   17481   17478
      67   17490   17487      66   17493   17487      66   17493   17490      67
   17502   17499      66   17505   17499      66   17505   17502      67   17514
   17511      66   17517   17511      66   17517   17514      67   17526   17523
      66   17529   17523      66   17529   17526      67   17538   17535      66
   17541   17535      66   17541   17538      67   17550   17547      66   17553
   17547      66   17553   17550      67   17562   17559      66   17565   17559
      66   17565   17562      67   17574   17571      66   17577   17571      66
   17577   17574      67   17586   17583      66   17589   17583      66   17589
   17586      67   17598   17595      66   17601   17595      66   17601   17598
      67   17610   17607      66   17613   17607      66   17613   17610      67
   17622   17619      66   17625   17619      66   17625   17622      67   17634
   17631      66   17637   17631      66   17637   17634      67   17646   17643
      66   17649   17643      66   17649   17646      67   17658   17655      66
   17661   17655      66   17661   17658      67   17670   17667      66   17673
   17667      66   17673   17670      67   17682   17679      66   17685   17679
      66   17685   17682      67   17694   17691      66   17697   17691      66
   17697   17694      67   17706   17703      66   17709   17703      66   17709
   17706      67   17718   17715      66   17721   17715      66   17721   17718
      67   17730   17727      66   17733   17727      66   17733   17730      67
   17742   17739      66   17745   17739      66   17745   17742      67   17754
   17751      66   17757   17751      66   17757   17754      67   17766   17763
      66   17769   17763      66   17769   17766      67   17778   17775      66
   17781   17775      66   17781   17778      67   17790   17787      66   17793
   17787      66   17793   17790      67   17802   17799      66   17805   17799
      66   17805   17802      67   17814   17811      66   17817   17811      66
   17817   17814      67   17826   17823      66   17829   17823      66   17829
   17826      67   17838   17835      66   17841   17835      66   17841   17838
      67   17850   17847      66   17853   17847      66   17853   17850      67
   17862   17859      66   17865   17859      66   17865   17862      67   17874
   17871      66   17877   17871      66   17877   17874      67   17886   17883
      66   17889   17883      66   17889   17886      67   17898   17895      66
   17901   17895      66   17901   17898      67   17910   17907      66   17913
   17907      66   17913   17910      67   17922   17919      66   17925   17919
      66   17925   17922      67   17934   17931      66   17937   17931      66
   17937   17934      67   17946   17943      66   17949   17943      66   17949
   17946      67   17958   17955      66   17961   17955      66   17961   17958
      67   17970   17967      66   17973   17967      66   17973   17970      67
   17982   17979      66   17985   17979      66   17985   17982      67   17994
   17991      66   17997   17991      66   17997   17994      67   18006   18003
      66   18009   18003      66   18009   18006      67   18018   18015      66
   18021   18015      66   18021   18018      67   18030   18027      66   18033
   18027      66   18033   18030      67   18042   18039      66   18045   18039
      66   18045   18042      67   18054   18051      66   18057   18051      66
   18057   18054      67   18066   18063      66   18069   18063      66   18069
   18066      67   18078   18075      66   18081   18075      66   18081   18078
      67   18090   18087      66   18093   18087      66   18093   18090      67
   18102   18099      66   18105   18099      66   18105   18102      67   18114
   18111      66   18117   18111      66   18117   18114      67   18126   18123
      66   18129   18123      66   18129   18126      67   18138   18135      66
   18141   18135      66   18141   18138      67   18150   18147      66   18153
   18147      66   18153   18150      67   18162   18159      66   18165   18159
      66   18165   18162      67   18174   18171      66   18177   18171      66
   18177   18174      67   18186   18183      66   18189   18183      66   18189
   18186      67   18198   18195      66   18201   18195      66   18201   18198
      67   18210   18207      66   18213   18207      66   18213   18210      67
   18222   18219      66   18225   18219      66   18225   18222      67   18234
   18231      66   18237   18231      66   18237   18234      67   18246   18243
      66   18249   18243      66   18249   18246      67   18258   18255      66
   18261   18255      66   18261   18258      67   18270   18267      66   18273
   18267      66   18273   18270      67   18282   18279      66   18285   18279
      66   18285   18282      67   18294   18291      66   18297   18291      66
   18297   18294      67   18306   18303      66   18309   18303      66   18309
   18306      67   18318   18315      66   18321   18315      66   18321   18318
      67   18330   18327      66   18333   18327      66   18333   18330      67
   18342   18339      66   18345   18339      66   18345   18342      67   18354
   18351      66   18357   18351      66   18357   18354      67   18366   18363
      66   18369   18363      66   18369   18366      67   18378   18375      66
   18381   18375      66   18381   18378      67   18390   18387      66   18393
   18387      66   18393   18390      67   18402   18399      66   18405   18399
      66   18405   18402      67   18414   18411      66   18417   18411      66
   18417   18414      67   18426   18423      66   18429   18423      66   18429
   18426      67   18438   18435      66   18441   18435      66   18441   18438
      67   18450   18447      66   18453   18447      66   18453   18450      67
   18462   18459      66   18465   18459      66   18465   18462      67   18474
   18471      66   18477   18471      66   18477   18474      67   18486   18483
      66   18489   18483      66   18489   18486      67   18498   18495      66
   18501   18495      66   18501   18498      67   18510   18507      66   18513
   18507      66   18513   18510      67   18522   18519      66   18525   18519
      66   18525   18522      67   18534   18531      66   18537   18531      66
   18537   18534      67   18546   18543      66   18549   18543      66   18549
   18546      67   18558   18555      66   18561   18555      66   18561   18558
      67   18570   18567      66   18573   18567      66   18573   18570      67
   18582   18579      66   18585   18579      66   18585   18582      67   18594
   18591      66   18597   18591      66   18597   18594      67   18606   18603
      66   18609   18603      66   18609   18606      67   18618   18615      66
   18621   18615      66   18621   18618      67   18630   18627      66   18633
   18627      66   18633   18630      67   18642   18639      66   18645   18639
      66   18645   18642      67   18654   18651      66   18657   18651      66
   18657   18654      67   18666   18663      66   18669   18663      66   18669
   18666      67   18678   18675      66   18681   18675      66   18681   18678
      67   18690   18687      66   18693   18687      66   18693   18690      67
   18702   18699      66   18705   18699      66   18705   18702      67   18714
   18711      66   18717   18711      66   18717   18714      67   18726   18723
      66   18729   18723      66   18729   18726      67   18738   18735      66
   18741   18735      66   18741   18738      67   18750   18747      66   18753
   18747      66   18753   18750      67   18762   18759      66   18765   18759
      66   18765   18762      67   18774   18771      66   18777   18771      66
   18777   18774      67   18786   18783      66   18789   18783      66   18789
   18786      67   18798   18795      66   18801   18795      66   18801   18798
      67   18810   18807      66   18813   18807      66   18813   18810      67
   18822   18819      66   18825   18819      66   18825   18822      67   18834
   18831      66   18837   18831      66   18837   18834      67   18846   18843
      66   18849   18843      66   18849   18846      67   18858   18855      66
   18861   18855      66   18861   18858      67   18870   18867      66   18873
   18867      66   18873   18870      67   18882   18879      66   18885   18879
      66   18885   18882      67   18894   18891      66   18897   18891      66
   18897   18894      67   18906   18903      66   18909   18903      66   18909
   18906      67   18918   18915      66   18921   18915      66   18921   18918
      67   18930   18927      66   18933   18927      66   18933   18930      67
   18942   18939      66   18945   18939      66   18945   18942      67   18954
   18951      66   18957   18951      66   18957   18954      67   18966   18963
      66   18969   18963      66   18969   18966      67   18978   18975      66
   18981   18975      66   18981   18978      67   18990   18987      66   18993
   18987      66   18993   18990      67   19002   18999      66   19005   18999
      66   19005   19002      67   19014   19011      66   19017   19011      66
   19017   19014      67   19026   19023      66   19029   19023      66   19029
   19026      67   19038   19035      66   19041   19035      66   19041   19038
      67   19050   19047      66   19053   19047      66   19053   19050      67
   19062   19059      66   19065   19059      66   19065   19062      67   19074
   19071      66   19077   19071      66   19077   19074      67   19086   19083
      66   19089   19083      66   19089   19086      67   19098   19095      66
   19101   19095      66   19101   19098      67   19110   19107      66   19113
   19107      66   19113   19110      67   19122   19119      66   19125   19119
      66   19125   19122      67   19134   19131      66   19137   19131      66
   19137   19134      67   19146   19143      66   19149   19143      66   19149
   19146      67   19158   19155      66   19161   19155      66   19161   19158
      67   19170   19167      66   19173   19167      66   19173   19170      67
   19182   19179      66   19185   19179      66   19185   19182      67   19194
   19191      66   19197   19191      66   19197   19194      67   19206   19203
      66   19209   19203      66   19209   19206      67   19218   19215      66
   19221   19215      66   19221   19218      67   19230   19227      66   19233
   19227      66   19233   19230      67   19242   19239      66   19245   19239
      66   19245   19242      67   19254   19251      66   19257   19251      66
   19257   19254      67   19266   19263      66   19269   19263      66   19269
   19266      67   19278   19275      66   19281   19275      66   19281   19278
      67   19290   19287      66   19293   19287      66   19293   19290      67
   19302   19299      66   19305   19299      66   19305   19302      67   19314
   19311      66   19317   19311      66   19317   19314      67   19326   19323
      66   19329   19323      66   19329   19326      67   19338   19335      66
   19341   19335      66   19341   19338      67   19350   19347      66   19353
   19347      66   19353   19350      67   19362   19359      66   19365   19359
      66   19365   19362      67   19374   19371      66   19377   19371      66
   19377   19374      67   19386   19383      66   19389   19383      66   19389
   19386      67   19398   19395      66   19401   19395      66   19401   19398
      67   19410   19407      66   19413   19407      66   19413   19410      67
   19422   19419      66   19425   19419      66   19425   19422      67   19434
   19431      66   19437   19431      66   19437   19434      67   19446   19443
      66   19449   19443      66   19449   19446      67   19458   19455      66
   19461   19455      66   19461   19458      67   19470   19467      66   19473
   19467      66   19473   19470      67   19482   19479      66   19485   19479
      66   19485   19482      67   19494   19491      66   19497   19491      66
   19497   19494      67   19506   19503      66   19509   19503      66   19509
   19506      67   19518   19515      66   19521   19515      66   19521   19518
      67   19530   19527      66   19533   19527      66   19533   19530      67
   19542   19539      66   19545   19539      66   19545   19542      67   19554
   19551      66   19557   19551      66   19557   19554      67   19566   19563
      66   19569   19563      66   19569   19566      67   19578   19575      66
   19581   19575      66   19581   19578      67   19590   19587      66   19593
   19587      66   19593   19590      67   19602   19599      66   19605   19599
      66   19605   19602      67   19614   19611      66   19617   19611      66
   19617   19614      67   19626   19623      66   19629   19623      66   19629
   19626      67   19638   19635      66   19641   19635      66   19641   19638
      67   19650   19647      66   19653   19647      66   19653   19650      67
   19662   19659      66   19665   19659      66   19665   19662      67   19674
   19671      66   19677   19671      66   19677   19674      67   19686   19683
      66   19689   19683      66   19689   19686      67   19698   19695      66
   19701   19695      66   19701   19698      67   19710   19707      66   19713
   19707      66   19713   19710      67   19722   19719      66   19725   19719
      66   19725   19722      67   19734   19731      66   19737   19731      66
   19737   19734      67   19746   19743      66   19749   19743      66   19749
   19746      67   19758   19755      66   19761   19755      66   19761   19758
      67   19770   19767      66   19773   19767      66   19773   19770      67
   19782   19779      66   19785   19779      66   19785   19782      67   19794
   19791      66   19797   19791      66   19797   19794      67   19806   19803
      66   19809   19803      66   19809   19806      67   19818   19815      66
   19821   19815      66   19821   19818      67   19830   19827      66   19833
   19827      66   19833   19830      67   19842   19839      66   19845   19839
      66   19845   19842      67   19854   19851      66   19857   19851      66
   19857   19854      67   19866   19863      66   19869   19863      66   19869
   19866      67   19878   19875      66   19881   19875      66   19881   19878
      67   19890   19887      66   19893   19887      66   19893   19890      67
   19902   19899      66   19905   19899      66   19905   19902      67   19914
   19911      66   19917   19911      66   19917   19914      67   19926   19923
      66   19929   19923      66   19929   19926      67   19938   19935      66
   19941   19935      66   19941   19938      67   19950   19947      66   19953
   19947      66   19953   19950      67   19962   19959      66   19965   19959
      66   19965   19962      67   19974   19971      66   19977   19971      66
   19977   19974      67   19986   19983      66   19989   19983      66   19989
   19986      67   19998   19995      66   20001   19995      66   20001   19998
      67   20010   20007      66   20013   20007      66   20013   20010      67
   20022   20019      66   20025   20019      66   20025   20022      67   20034
   20031      66   20037   20031      66   20037   20034      67   20046   20043
      66   20049   20043      66   20049   20046      67   20058   20055      66
   20061   20055      66   20061   20058      67   20070   20067      66   20073
   20067      66   20073   20070      67   20082   20079      66   20085   20079
      66   20085   20082      67   20094   20091      66   20097   20091      66
   20097   20094      67   20106   20103      66   20109   20103      66   20109
   20106      67   20118   20115      66   20121   20115      66   20121   20118
      67   20130   20127      66   20133   20127      66   20133   20130      67
   20142   20139      66   20145   20139      66   20145   20142      67   20154
   20151      66   20157   20151      66   20157   20154      67   20166   20163
      66   20169   20163      66   20169   20166      67   20178   20175      66
   20181   20175      66   20181   20178      67   20190   20187      66   20193
   20187      66   20193   20190      67   20202   20199      66   20205   20199
      66   20205   20202      67   20214   20211      66   20217   20211      66
   20217   20214      67   20226   20223      66   20229   20223      66   20229
   20226      67   20238   20235      66   20241   20235      66   20241   20238
      67   20250   20247      66   20253   20247      66   20253   20250      67
   20262   20259      66   20265   20259      66   20265   20262      67   20274
   20271      66   20277   20271      66   20277   20274      67   20286   20283
      66   20289   20283      66   20289   20286      67   20298   20295      66
   20301   20295      66   20301   20298      67   20310   20307      66   20313
   20307      66   20313   20310      67   20322   20319      66   20325   20319
      66   20325   20322      67   20334   20331      66   20337   20331      66
   20337   20334      67   20346   20343      66   20349   20343      66   20349
   20346      67   20358   20355      66   20361   20355      66   20361   20358
      67   20370   20367      66   20373   20367      66   20373   20370      67
   20382   20379      66   20385   20379      66   20385   20382      67   20394
   20391      66   20397   20391      66   20397   20394      67   20406   20403
      66   20409   20403      66   20409   20406      67   20418   20415      66
   20421   20415      66   20421   20418      67   20430   20427      66   20433
   20427      66   20433   20430      67   20442   20439      66   20445   20439
      66   20445   20442      67   20454   20451      66   20457   20451      66
   20457   20454      67   20466   20463      66   20469   20463      66   20469
   20466      67   20478   20475      66   20481   20475      66   20481   20478
      67   20490   20487      66   20493   20487      66   20493   20490      67
   20502   20499      66   20505   20499      66   20505   20502      67   20514
   20511      66   20517   20511      66   20517   20514      67   20526   20523
      66   20529   20523      66   20529   20526      67   20538   20535      66
   20541   20535      66   20541   20538      67   20550   20547      66   20553
   20547      66   20553   20550      67   20562   20559      66   20565   20559
      66   20565   20562      67   20574   20571      66   20577   20571      66
   20577   20574      67   20586   20583      66   20589   20583      66   20589
   20586      67   20598   20595      66   20601   20595      66   20601   20598
      67   20610   20607      66   20613   20607      66   20613   20610      67
   20622   20619      66   20625   20619      66   20625   20622      67   20634
   20631      66   20637   20631      66   20637   20634      67   20646   20643
      66   20649   20643      66   20649   20646      67   20658   20655      66
   20661   20655      66   20661   20658      67   20670   20667      66   20673
   20667      66   20673   20670      67   20682   20679      66   20685   20679
      66   20685   20682      67   20694   20691      66   20697   20691      66
   20697   20694      67   20706   20703      66   20709   20703      66   20709
   20706      67   20718   20715      66   20721   20715      66   20721   20718
      67   20730   20727      66   20733   20727      66   20733   20730      67
   20742   20739      66   20745   20739      66   20745   20742      67   20754
   20751      66   20757   20751      66   20757   20754      67   20766   20763
      66   20769   20763      66   20769   20766      67   20778   20775      66
   20781   20775      66   20781   20778      67   20790   20787      66   20793
   20787      66   20793   20790      67   20802   20799      66   20805   20799
      66   20805   20802      67   20814   20811      66   20817   20811      66
   20817   20814      67   20826   20823      66   20829   20823      66   20829
   20826      67   20838   20835      66   20841   20835      66   20841   20838
      67   20850   20847      66   20853   20847      66   20853   20850      67
   20862   20859      66   20865   20859      66   20865   20862      67   20874
   20871      66   20877   20871      66   20877   20874      67   20886   20883
      66   20889   20883      66   20889   20886      67   20898   20895      66
   20901   20895      66   20901   20898      67   20910   20907      66   20913
   20907      66   20913   20910      67   20922   20919      66   20925   20919
      66   20925   20922      67   20934   20931      66   20937   20931      66
   20937   20934      67   20946   20943      66   20949   20943      66   20949
   20946      67   20958   20955      66   20961   20955      66   20961   20958
      67   20970   20967      66   20973   20967      66   20973   20970      67
   20982   20979      66   20985   20979      66   20985   20982      67   20994
   20991      66   20997   20991      66   20997   20994      67   21006   21003
      66   21009   21003      66   21009   21006      67   21018   21015      66
   21021   21015      66   21021   21018      67   21030   21027      66   21033
   21027      66   21033   21030      67   21042   21039      66   21045   21039
      66   21045   21042      67   21054   21051      66   21057   21051      66
   21057   21054      67   21066   21063      66   21069   21063      66   21069
   21066      67   21078   21075      66   21081   21075      66   21081   21078
      67   21090   21087      66   21093   21087      66   21093   21090      67
   21102   21099      66   21105   21099      66   21105   21102      67   21114
   21111      66   21117   21111      66   21117   21114      67   21126   21123
      66   21129   21123      66   21129   21126      67   21138   21135      66
   21141   21135      66   21141   21138      67   21150   21147      66   21153
   21147      66   21153   21150      67   21162   21159      66   21165   21159
      66   21165   21162      67   21174   21171      66   21177   21171      66
   21177   21174      67   21186   21183      66   21189   21183      66   21189
   21186      67   21198   21195      66   21201   21195      66   21201   21198
      67   21210   21207      66   21213   21207      66   21213   21210      67
   21222   21219      66   21225   21219      66   21225   21222      67   21234
   21231      66   21237   21231      66   21237   21234      67   21246   21243
      66   21249   21243      66   21249   21246      67   21258   21255      66
   21261   21255      66   21261   21258      67   21270   21267      66   21273
   21267      66   21273   21270      67   21282   21279      66   21285   21279
      66   21285   21282      67   21294   21291      66   21297   21291      66
   21297   21294      67   21306   21303      66   21309   21303      66   21309
   21306      67   21318   21315      66   21321   21315      66   21321   21318
      67   21330   21327      66   21333   21327      66   21333   21330      67
   21342   21339      66   21345   21339      66   21345   21342      67   21354
   21351      66   21357   21351      66   21357   21354      67   21366   21363
      66   21369   21363      66   21369   21366      67   21378   21375      66
   21381   21375      66   21381   21378      67   21390   21387      66   21393
   21387      66   21393   21390      67   21402   21399      66   21405   21399
      66   21405   21402      67   21414   21411      66   21417   21411      66
   21417   21414      67   21426   21423      66   21429   21423      66   21429
   21426      67   21438   21435      66   21441   21435      66   21441   21438
      67   21450   21447      66   21453   21447      66   21453   21450      67
   21462   21459      66   21465   21459      66   21465   21462      67   21474
   21471      66   21477   21471      66   21477   21474      67   21486   21483
      66   21489   21483      66   21489   21486      67   21498   21495      66
   21501   21495      66   21501   21498      67   21510   21507      66   21513
   21507      66   21513   21510      67   21522   21519      66   21525   21519
      66   21525   21522      67   21534   21531      66   21537   21531      66
   21537   21534      67   21546   21543      66   21549   21543      66   21549
   21546      67   21558   21555      66   21561   21555      66   21561   21558
      67   21570   21567      66   21573   21567      66   21573   21570      67
   21582   21579      66   21585   21579      66   21585   21582      67   21594
   21591      66   21597   21591      66   21597   21594      67   21606   21603
      66   21609   21603      66   21609   21606      67   21618   21615      66
   21621   21615      66   21621   21618      67   21630   21627      66   21633
   21627      66   21633   21630      67   21642   21639      66   21645   21639
      66   21645   21642      67   21654   21651      66   21657   21651      66
   21657   21654      67   21666   21663      66   21669   21663      66   21669
   21666      67   21678   21675      66   21681   21675      66   21681   21678
      67   21690   21687      66   21693   21687      66   21693   21690      67
   21702   21699      66   21705   21699      66   21705   21702      67   21714
   21711      66   21717   21711      66   21717   21714      67   21726   21723
      66   21729   21723      66   21729   21726      67   21738   21735      66
   21741   21735      66   21741   21738      67   21750   21747      66   21753
   21747      66   21753   21750      67   21762   21759      66   21765   21759
      66   21765   21762      67   21774   21771      66   21777   21771      66
   21777   21774      67   21786   21783      66   21789   21783      66   21789
   21786      67   21798   21795      66   21801   21795      66   21801   21798
      67   21810   21807      66   21813   21807      66   21813   21810      67
   21822   21819      66   21825   21819      66   21825   21822      67   21834
   21831      66   21837   21831      66   21837   21834      67   21846   21843
      66   21849   21843      66   21849   21846      67   21858   21855      66
   21861   21855      66   21861   21858      67   21870   21867      66   21873
   21867      66   21873   21870      67   21882   21879      66   21885   21879
      66   21885   21882      67   21894   21891      66   21897   21891      66
   21897   21894      67   21906   21903      66   21909   21903      66   21909
   21906      67   21918   21915      66   21921   21915      66   21921   21918
      67   21930   21927      66   21933   21927      66   21933   21930      67
   21942   21939      66   21945   21939      66   21945   21942      67   21954
   21951      66   21957   21951      66   21957   21954      67   21966   21963
      66   21969   21963      66   21969   21966      67   21978   21975      66
   21981   21975      66   21981   21978      67   21990   21987      66   21993
   21987      66   21993   21990      67   22002   21999      66   22005   21999
      66   22005   22002      67   22014   22011      66   22017   22011      66
   22017   22014      67   22026   22023      66   22029   22023      66   22029
   22026      67   22038   22035      66   22041   22035      66   22041   22038
      67   22050   22047      66   22053   22047      66   22053   22050      67
   22062   22059      66   22065   22059      66   22065   22062      67   22074
   22071      66   22077   22071      66   22077   22074      67   22086   22083
      66   22089   22083      66   22089   22086      67   22098   22095      66
   22101   22095      66   22101   22098      67   22110   22107      66   22113
   22107      66   22113   22110      67   22122   22119      66   22125   22119
      66   22125   22122      67   22134   22131      66   22137   22131      66
   22137   22134      67   22146   22143      66   22149   22143      66   22149
   22146      67   22158   22155      66   22161   22155      66   22161   22158
      67   22170   22167      66   22173   22167      66   22173   22170      67
   22182   22179      66   22185   22179      66   22185   22182      67   22194
   22191      66   22197   22191      66   22197   22194      67   22206   22203
      66   22209   22203      66   22209   22206      67   22218   22215      66
   22221   22215      66   22221   22218      67   22230   22227      66   22233
   22227      66   22233   22230      67   22242   22239      66   22245   22239
      66   22245   22242      67   22254   22251      66   22257   22251      66
   22257   22254      67   22266   22263      66   22269   22263      66   22269
   22266      67   22278   22275      66   22281   22275      66   22281   22278
      67   22290   22287      66   22293   22287      66   22293   22290      67
   22302   22299      66   22305   22299      66   22305   22302      67   22314
   22311      66   22317   22311      66   22317   22314      67   22326   22323
      66   22329   22323      66   22329   22326      67   22338   22335      66
   22341   22335      66   22341   22338      67   22350   22347      66   22353
   22347      66   22353   22350      67   22362   22359      66   22365   22359
      66   22365   22362      67   22374   22371      66   22377   22371      66
   22377   22374      67   22386   22383      66   22389   22383      66   22389
   22386      67   22398   22395      66   22401   22395      66   22401   22398
      67   22410   22407      66   22413   22407      66   22413   22410      67
   22422   22419      66   22425   22419      66   22425   22422      67   22434
   22431      66   22437   22431      66   22437   22434      67   22446   22443
      66   22449   22443      66   22449   22446      67   22458   22455      66
   22461   22455      66   22461   22458      67   22470   22467      66   22473
   22467      66   22473   22470      67   22482   22479      66   22485   22479
      66   22485   22482      67   22494   22491      66   22497   22491      66
   22497   22494      67   22506   22503      66   22509   22503      66   22509
   22506      67   22518   22515      66   22521   22515      66   22521   22518
      67   22530   22527      66   22533   22527      66   22533   22530      67
   22542   22539      66   22545   22539      66   22545   22542      67   22554
   22551      66   22557   22551      66   22557   22554      67   22566   22563
      66   22569   22563      66   22569   22566      67   22578   22575      66
   22581   22575      66   22581   22578      67   22590   22587      66   22593
   22587      66   22593   22590      67   22602   22599      66   22605   22599
      66   22605   22602      67   22614   22611      66   22617   22611      66
   22617   22614      67   22626   22623      66   22629   22623      66   22629
   22626      67   22638   22635      66   22641   22635      66   22641   22638
      67   22650   22647      66   22653   22647      66   22653   22650      67
   22662   22659      66   22665   22659      66   22665   22662      67   22674
   22671      66   22677   22671      66   22677   22674      67   22686   22683
      66   22689   22683      66   22689   22686      67   22698   22695      66
   22701   22695      66   22701   22698      67   22710   22707      66   22713
   22707      66   22713   22710      67   22722   22719      66   22725   22719
      66   22725   22722      67   22734   22731      66   22737   22731      66
   22737   22734      67   22746   22743      66   22749   22743      66   22749
   22746      67   22758   22755      66   22761   22755      66   22761   22758
      67   22770   22767      66   22773   22767      66   22773   22770      67
   22782   22779      66   22785   22779      66   22785   22782      67   22794
   22791      66   22797   22791      66   22797   22794      67   22806   22803
      66   22809   22803      66   22809   22806      67   22818   22815      66
   22821   22815      66   22821   22818      67   22830   22827      66   22833
   22827      66   22833   22830      67   22842   22839      66   22845   22839
      66   22845   22842      67   22854   22851      66   22857   22851      66
   22857   22854      67   22866   22863      66   22869   22863      66   22869
   22866      67   22878   22875      66   22881   22875      66   22881   22878
      67   22890   22887      66   22893   22887      66   22893   22890      67
   22902   22899      66   22905   22899      66   22905   22902      67   22914
   22911      66   22917   22911      66   22917   22914      67   22926   22923
      66   22929   22923      66   22929   22926      67   22938   22935      66
   22941   22935      66   22941   22938      67   22950   22947      66   22953
   22947      66   22953   22950      67   22962   22959      66   22965   22959
      66   22965   22962      67   22974   22971      66   22977   22971      66
   22977   22974      67   22986   22983      66   22989   22983      66   22989
   22986      67   22998   22995      66   23001   22995      66   23001   22998
      67   23010   23007      66   23013   23007      66   23013   23010      67
   23022   23019      66   23025   23019      66   23025   23022      67   23034
   23031      66   23037   23031      66   23037   23034      67   23046   23043
      66   23049   23043      66   23049   23046      67   23058   23055      66
   23061   23055      66   23061   23058      67   23070   23067      66   23073
   23067      66   23073   23070      67   23082   23079      66   23085   23079
      66   23085   23082      67   23094   23091      66   23097   23091      66
   23097   23094      67   23106   23103      66   23109   23103      66   23109
   23106      67   23118   23115      66   23121   23115      66   23121   23118
      67   23130   23127      66   23133   23127      66   23133   23130      67
   23142   23139      66   23145   23139      66   23145   23142      67   23154
   23151      66   23157   23151      66   23157   23154      67   23166   23163
      66   23169   23163      66   23169   23166      67   23178   23175      66
   23181   23175      66   23181   23178      67   23190   23187      66   23193
   23187      66   23193   23190      67   23202   23199      66   23205   23199
      66   23205   23202      67   23214   23211      66   23217   23211      66
   23217   23214      67   23226   23223      66   23229   23223      66   23229
   23226      67   23238   23235      66   23241   23235      66   23241   23238
      67   23250   23247      66   23253   23247      66   23253   23250      67
   23262   23259      66   23265   23259      66   23265   23262      67   23274
   23271      66   23277   23271      66   23277   23274      67   23286   23283
      66   23289   23283      66   23289   23286      67   23298   23295      66
   23301   23295      66   23301   23298      67   23310   23307      66   23313
   23307      66   23313   23310      67   23322   23319      66   23325   23319
      66   23325   23322      67   23334   23331      66   23337   23331      66
   23337   23334      67   23346   23343      66   23349   23343      66   23349
   23346      67   23358   23355      66   23361   23355      66   23361   23358
      67   23370   23367      66   23373   23367      66   23373   23370      67
   23382   23379      66   23385   23379      66   23385   23382      67   23394
   23391      66   23397   23391      66   23397   23394      67   23406   23403
      66   23409   23403      66   23409   23406      67   23418   23415      66
   23421   23415      66   23421   23418      67   23430   23427      66   23433
   23427      66   23433   23430      67   23442   23439      66   23445   23439
      66   23445   23442      67   23454   23451      66   23457   23451      66
   23457   23454      67   23466   23463      66   23469   23463      66   23469
   23466      67   23478   23475      66   23481   23475      66   23481   23478
      67   23490   23487      66   23493   23487      66   23493   23490      67
   23502   23499      66   23505   23499      66   23505   23502      67   23514
   23511      66   23517   23511      66   23517   23514      67   23526   23523
      66   23529   23523      66   23529   23526      67   23538   23535      66
   23541   23535      66   23541   23538      67   23550   23547      66   23553
   23547      66   23553   23550      67   23562   23559      66   23565   23559
      66   23565   23562      67   23574   23571      66   23577   23571      66
   23577   23574      67   23586   23583      66   23589   23583      66   23589
   23586      67   23598   23595      66   23601   23595      66   23601   23598
      67   23610   23607      66   23613   23607      66   23613   23610      67
   23622   23619      66   23625   23619      66   23625   23622      67   23634
   23631      66   23637   23631      66   23637   23634      67   23646   23643
      66   23649   23643      66   23649   23646      67   23658   23655      66
   23661   23655      66   23661   23658      67   23670   23667      66   23673
   23667      66   23673   23670      67   23682   23679      66   23685   23679
      66   23685   23682      67   23694   23691      66   23697   23691      66
   23697   23694      67   23706   23703      66   23709   23703      66   23709
   23706      67   23718   23715      66   23721   23715      66   23721   23718
      67   23730   23727      66   23733   23727      66   23733   23730      67
   23742   23739      66   23745   23739      66   23745   23742      67   23754
   23751      66   23757   23751      66   23757   23754      67   23766   23763
      66   23769   23763      66   23769   23766      67   23778   23775      66
   23781   23775      66   23781   23778      67   23790   23787      66   23793
   23787      66   23793   23790      67   23802   23799      66   23805   23799
      66   23805   23802      67   23814   23811      66   23817   23811      66
   23817   23814      67   23826   23823      66   23829   23823      66   23829
   23826      67   23838   23835      66   23841   23835      66   23841   23838
      67   23850   23847      66   23853   23847      66   23853   23850      67
   23862   23859      66   23865   23859      66   23865   23862      67   23874
   23871      66   23877   23871      66   23877   23874      67   23886   23883
      66   23889   23883      66   23889   23886      67   23898   23895      66
   23901   23895      66   23901   23898      67   23910   23907      66   23913
   23907      66   23913   23910      67   23922   23919      66   23925   23919
      66   23925   23922      67   23934   23931      66   23937   23931      66
   23937   23934      67   23946   23943      66   23949   23943      66   23949
   23946      67   23958   23955      66   23961   23955      66   23961   23958
      67   23970   23967      66   23973   23967      66   23973   23970      67
   23982   23979      66   23985   23979      66   23985   23982      67   23994
   23991      66   23997   23991      66   23997   23994      67   24006   24003
      66   24009   24003      66   24009   24006      67   24018   24015      66
   24021   24015      66   24021   24018      67   24030   24027      66   24033
   24027      66   24033   24030      67   24042   24039      66   24045   24039
      66   24045   24042      67   24054   24051      66   24057   24051      66
   24057   24054      67   24066   24063      66   24069   24063      66   24069
   24066      67   24078   24075      66   24081   24075      66   24081   24078
      67   24090   24087      66   24093   24087      66   24093   24090      67
   24102   24099      66   24105   24099      66   24105   24102      67   24114
   24111      66   24117   24111      66   24117   24114      67   24126   24123
      66   24129   24123      66   24129   24126      67   24138   24135      66
   24141   24135      66   24141   24138      67   24150   24147      66   24153
   24147      66   24153   24150      67   24162   24159      66   24165   24159
      66   24165   24162      67   24174   24171      66   24177   24171      66
   24177   24174      67   24186   24183      66   24189   24183      66   24189
   24186      67   24198   24195      66   24201   24195      66   24201   24198
      67   24210   24207      66   24213   24207      66   24213   24210      67
   24222   24219      66   24225   24219      66   24225   24222      67   24234
   24231      66   24237   24231      66   24237   24234      67   24246   24243
      66   24249   24243      66   24249   24246      67   24258   24255      66
   24261   24255      66   24261   24258      67   24270   24267      66   24273
   24267      66   24273   24270      67   24282   24279      66   24285   24279
      66   24285   24282      67   24294   24291      66   24297   24291      66
   24297   24294      67   24306   24303      66   24309   24303      66   24309
   24306      67   24318   24315      66   24321   24315      66   24321   24318
      67   24330   24327      66   24333   24327      66   24333   24330      67
   24342   24339      66   24345   24339      66   24345   24342      67   24354
   24351      66   24357   24351      66   24357   24354      67   24366   24363
      66   24369   24363      66   24369   24366      67   24378   24375      66
   24381   24375      66   24381   24378      67   24390   24387      66   24393
   24387      66   24393   24390      67   24402   24399      66   24405   24399
      66   24405   24402      67   24414   24411      66   24417   24411      66
   24417   24414      67   24426   24423      66   24429   24423      66   24429
   24426      67   24438   24435      66   24441   24435      66   24441   24438
      67   24450   24447      66   24453   24447      66   24453   24450      67
   24462   24459      66   24465   24459      66   24465   24462      67   24474
   24471      66   24477   24471      66   24477   24474      67   24486   24483
      66   24489   24483      66   24489   24486      67   24498   24495      66
   24501   24495      66   24501   24498      67   24510   24507      66   24513
   24507      66   24513   24510      67   24522   24519      66   24525   24519
      66   24525   24522      67   24534   24531      66   24537   24531      66
   24537   24534      67   24546   24543      66   24549   24543      66   24549
   24546      67   24558   24555      66   24561   24555      66   24561   24558
      67   24570   24567      66   24573   24567      66   24573   24570      67
   24582   24579      66   24585   24579      66   24585   24582      67   24594
   24591      66   24597   24591      66   24597   24594      67   24606   24603
      66   24609   24603      66   24609   24606      67   24618   24615      66
   24621   24615      66   24621   24618      67   24630   24627      66   24633
   24627      66   24633   24630      67   24642   24639      66   24645   24639
      66   24645   24642      67   24654   24651      66   24657   24651      66
   24657   24654      67   24666   24663      66   24669   24663      66   24669
   24666      67   24678   24675      66   24681   24675      66   24681   24678
      67   24690   24687      66   24693   24687      66   24693   24690      67
   24702   24699      66   24705   24699      66   24705   24702      67   24714
   24711      66   24717   24711      66   24717   24714      67   24726   24723
      66   24729   24723      66   24729   24726      67   24738   24735      66
   24741   24735      66   24741   24738      67   24750   24747      66   24753
   24747      66   24753   24750      67   24762   24759      66   24765   24759
      66   24765   24762      67   24774   24771      66   24777   24771      66
   24777   24774      67   24786   24783      66   24789   24783      66   24789
   24786      67   24798   24795      66   24801   24795      66   24801   24798
      67   24810   24807      66   24813   24807      66   24813   24810      67
   24822   24819      66   24825   24819      66   24825   24822      67   24834
   24831      66   24837   24831      66   24837   24834      67   24846   24843
      66   24849   24843      66   24849   24846      67   24858   24855      66
   24861   24855      66   24861   24858      67   24870   24867      66   24873
   24867      66   24873   24870      67   24882   24879      66   24885   24879
      66   24885   24882      67   24894   24891      66   24897   24891      66
   24897   24894      67   24906   24903      66   24909   24903      66   24909
   24906      67   24918   24915      66   24921   24915      66   24921   24918
      67   24930   24927      66   24933   24927      66   24933   24930      67
   24942   24939      66   24945   24939      66   24945   24942      67   24954
   24951      66   24957   24951      66   24957   24954      67   24966   24963
      66   24969   24963      66   24969   24966      67   24978   24975      66
   24981   24975      66   24981   24978      67   24990   24987      66   24993
   24987      66   24993   24990      67   25002   24999      66   25005   24999
      66   25005   25002      67   25014   25011      66   25017   25011      66
   25017   25014      67   25026   25023      66   25029   25023      66   25029
   25026      67   25038   25035      66   25041   25035      66   25041   25038
      67   25050   25047      66   25053   25047      66   25053   25050      67
   25062   25059      66   25065   25059      66   25065   25062      67   25074
   25071      66   25077   25071      66   25077   25074      67   25086   25083
      66   25089   25083      66   25089   25086      67   25098   25095      66
   25101   25095      66   25101   25098      67   25110   25107      66   25113
   25107      66   25113   25110      67   25122   25119      66   25125   25119
      66   25125   25122      67   25134   25131      66   25137   25131      66
   25137   25134      67   25146   25143      66   25149   25143      66   25149
   25146      67   25158   25155      66   25161   25155      66   25161   25158
      67   25170   25167      66   25173   25167      66   25173   25170      67
   25182   25179      66   25185   25179      66   25185   25182      67   25194
   25191      66   25197   25191      66   25197   25194      67   25206   25203
      66   25209   25203      66   25209   25206      67   25218   25215      66
   25221   25215      66   25221   25218      67   25230   25227      66   25233
   25227      66   25233   25230      67   25242   25239      66   25245   25239
      66   25245   25242      67   25254   25251      66   25257   25251      66
   25257   25254      67   25266   25263      66   25269   25263      66   25269
   25266      67   25278   25275      66   25281   25275      66   25281   25278
      67   25290   25287      66   25293   25287      66   25293   25290      67
   25302   25299      66   25305   25299      66   25305   25302      67   25314
   25311      66   25317   25311      66   25317   25314      67   25326   25323
      66   25329   25323      66   25329   25326      67   25338   25335      66
   25341   25335      66   25341   25338      67   25350   25347      66   25353
   25347      66   25353   25350      67   25362   25359      66   25365   25359
      66   25365   25362      67   25374   25371      66   25377   25371      66
   25377   25374      67   25386   25383      66   25389   25383      66   25389
   25386      67   25398   25395      66   25401   25395      66   25401   25398
      67   25410   25407      66   25413   25407      66   25413   25410      67
   25422   25419      66   25425   25419      66   25425   25422      67   25434
   25431      66   25437   25431      66   25437   25434      67   25446   25443
      66   25449   25443      66   25449   25446      67   25458   25455      66
   25461   25455      66   25461   25458      67   25470   25467      66   25473
   25467      66   25473   25470      67   25482   25479      66   25485   25479
      66   25485   25482      67   25494   25491      66   25497   25491      66
   25497   25494      67   25506   25503      66   25509   25503      66   25509
   25506      67   25518   25515      66   25521   25515      66   25521   25518
      67   25530   25527      66   25533   25527      66   25533   25530      67
   25542   25539      66   25545   25539      66   25545   25542      67   25554
   25551      66   25557   25551      66   25557   25554      67   25566   25563
      66   25569   25563      66   25569   25566      67   25578   25575      66
   25581   25575      66   25581   25578      67   25590   25587      66   25593
   25587      66   25593   25590      67   25602   25599      66   25605   25599
      66   25605   25602      67   25614   25611      66   25617   25611      66
   25617   25614      67   25626   25623      66   25629   25623      66   25629
   25626      67   25638   25635      66   25641   25635      66   25641   25638
      67   25650   25647      66   25653   25647      66   25653   25650      67
   25662   25659      66   25665   25659      66   25665   25662      67   25674
   25671      66   25677   25671      66   25677   25674      67   25686   25683
      66   25689   25683      66   25689   25686      67   25698   25695      66
   25701   25695      66   25701   25698      67   25710   25707      66   25713
   25707      66   25713   25710      67   25722   25719      66   25725   25719
      66   25725   25722      67   25734   25731      66   25737   25731      66
   25737   25734      67   25746   25743      66   25749   25743      66   25749
   25746      67   25758   25755      66   25761   25755      66   25761   25758
      67   25770   25767      66   25773   25767      66   25773   25770      67
   25782   25779      66   25785   25779      66   25785   25782      67   25794
   25791      66   25797   25791      66   25797   25794      67   25806   25803
      66   25809   25803      66   25809   25806      67   25818   25815      66
   25821   25815      66   25821   25818      67   25830   25827      66   25833
   25827      66   25833   25830      67   25842   25839      66   25845   25839
      66   25845   25842      67   25854   25851      66   25857   25851      66
   25857   25854      67   25866   25863      66   25869   25863      66   25869
   25866      67   25878   25875      66   25881   25875      66   25881   25878
      67   25890   25887      66   25893   25887      66   25893   25890      67
   25902   25899      66   25905   25899      66   25905   25902      67   25914
   25911      66   25917   25911      66   25917   25914      67   25926   25923
      66   25929   25923      66   25929   25926      67   25938   25935      66
   25941   25935      66   25941   25938      67   25950   25947      66   25953
   25947      66   25953   25950      67   25962   25959      66   25965   25959
      66   25965   25962      67   25974   25971      66   25977   25971      66
   25977   25974      67   25986   25983      66   25989   25983      66   25989
   25986      67   25998   25995      66   26001   25995      66   26001   25998
      67   26010   26007      66   26013   26007      66   26013   26010      67
   26022   26019      66   26025   26019      66   26025   26022      67   26034
   26031      66   26037   26031      66   26037   26034      67   26046   26043
      66   26049   26043      66   26049   26046      67   26058   26055      66
   26061   26055      66   26061   26058      67   26070   26067      66   26073
   26067      66   26073   26070      67   26082   26079      66   26085   26079
      66   26085   26082      67   26094   26091      66   26097   26091      66
   26097   26094      67   26106   26103      66   26109   26103      66   26109
   26106      67   26118   26115      66   26121   26115      66   26121   26118
      67   26130   26127      66   26133   26127      66   26133   26130      67
   26142   26139      66   26145   26139      66   26145   26142      67   26154
   26151      66   26157   26151      66   26157   26154      67   26166   26163
      66   26169   26163      66   26169   26166      67   26178   26175      66
   26181   26175      66   26181   26178      67   26190   26187      66   26193
   26187      66   26193   26190      67   26202   26199      66   26205   26199
      66   26205   26202      67   26214   26211      66   26217   26211      66
   26217   26214      67   26226   26223      66   26229   26223      66   26229
   26226      67   26238   26235      66   26241   26235      66   26241   26238
      67   26250   26247      66   26253   26247      66   26253   26250      67
   26262   26259      66   26265   26259      66   26265   26262      67   26274
   26271      66   26277   26271      66   26277   26274      67   26286   26283
      66   26289   26283      66   26289   26286      67   26298   26295      66
   26301   26295      66   26301   26298      67   26310   26307      66   26313
   26307      66   26313   26310      67   26322   26319      66   26325   26319
      66   26325   26322      67   26334   26331      66   26337   26331      66
   26337   26334      67   26346   26343      66   26349   26343      66   26349
   26346      67   26358   26355      66   26361   26355      66   26361   26358
      67   26370   26367      66   26373   26367      66   26373   26370      67
   26382   26379      66   26385   26379      66   26385   26382      67   26394
   26391      66   26397   26391      66   26397   26394      67   26406   26403
      66   26409   26403      66   26409   26406      67   26418   26415      66
   26421   26415      66   26421   26418      67   26430   26427      66   26433
   26427      66   26433   26430      67   26442   26439      66   26445   26439
      66   26445   26442      67   26454   26451      66   26457   26451      66
   26457   26454      67   26466   26463      66   26469   26463      66   26469
   26466      67   26478   26475      66   26481   26475      66   26481   26478
      67   26490   26487      66   26493   26487      66   26493   26490      67
   26502   26499      66   26505   26499      66   26505   26502      67   26514
   26511      66   26517   26511      66   26517   26514      67   26526   26523
      66   26529   26523      66   26529   26526      67   26538   26535      66
   26541   26535      66   26541   26538      67   26550   26547      66   26553
   26547      66   26553   26550      67   26562   26559      66   26565   26559
      66   26565   26562      67   26574   26571      66   26577   26571      66
   26577   26574      67   26586   26583      66   26589   26583      66   26589
   26586      67   26598   26595      66   26601   26595      66   26601   26598
      67   26610   26607      66   26613   26607      66   26613   26610      67
   26622   26619      66   26625   26619      66   26625   26622      67   26634
   26631      66   26637   26631      66   26637   26634      67   26646   26643
      66   26649   26643      66   26649   26646      67   26658   26655      66
   26661   26655      66   26661   26658      67   26670   26667      66   26673
   26667      66   26673   26670      67   26682   26679      66   26685   26679
      66   26685   26682      67   26694   26691      66   26697   26691      66
   26697   26694      67   26706   26703      66   26709   26703      66   26709
   26706      67   26718   26715      66   26721   26715      66   26721   26718
      67   26730   26727      66   26733   26727      66   26733   26730      67
   26742   26739      66   26745   26739      66   26745   26742      67   26754
   26751      66   26757   26751      66   26757   26754      67   26766   26763
      66   26769   26763      66   26769   26766      67   26778   26775      66
   26781   26775      66   26781   26778      67   26790   26787      66   26793
   26787      66   26793   26790      67   26802   26799      66   26805   26799
      66   26805   26802      67   26814   26811      66   26817   26811      66
   26817   26814      67   26826   26823      66   26829   26823      66   26829
   26826      67   26838   26835      66   26841   26835      66   26841   26838
      67   26850   26847      66   26853   26847      66   26853   26850      67
   26862   26859      66   26865   26859      66   26865   26862      67   26874
   26871      66   26877   26871      66   26877   26874      67   26886   26883
      66   26889   26883      66   26889   26886      67   26898   26895      66
   26901   26895      66   26901   26898      67   26910   26907      66   26913
   26907      66   26913   26910      67   26922   26919      66   26925   26919
      66   26925   26922      67   26934   26931      66   26937   26931      66
   26937   26934      67   26946   26943      66   26949   26943      66   26949
   26946      67   26958   26955      66   26961   26955      66   26961   26958
      67   26970   26967      66   26973   26967      66   26973   26970      67
   26982   26979      66   26985   26979      66   26985   26982      67   26994
   26991      66   26997   26991      66   26997   26994      67   27006   27003
      66   27009   27003      66   27009   27006      67   27018   27015      66
   27021   27015      66   27021   27018      67   27030   27027      66   27033
   27027      66   27033   27030      67   27042   27039      66   27045   27039
      66   27045   27042      67   27054   27051      66   27057   27051      66
   27057   27054      67   27066   27063      66   27069   27063      66   27069
   27066      67   27078   27075      66   27081   27075      66   27081   27078
      67   27090   27087      66   27093   27087      66   27093   27090      67
   27102   27099      66   27105   27099      66   27105   27102      67   27114
   27111      66   27117   27111      66   27117   27114      67   27126   27123
      66   27129   27123      66   27129   27126      67   27138   27135      66
   27141   27135      66   27141   27138      67   27150   27147      66   27153
   27147      66   27153   27150      67   27162   27159      66   27165   27159
      66   27165   27162      67   27174   27171      66   27177   27171      66
   27177   27174      67   27186   27183      66   27189   27183      66   27189
   27186      67   27198   27195      66   27201   27195      66   27201   27198
      67   27210   27207      66   27213   27207      66   27213   27210      67
   27222   27219      66   27225   27219      66   27225   27222      67   27234
   27231      66   27237   27231      66   27237   27234      67   27246   27243
      66   27249   27243      66   27249   27246      67   27258   27255      66
   27261   27255      66   27261   27258      67   27270   27267      66   27273
   27267      66   27273   27270      67   27282   27279      66   27285   27279
      66   27285   27282      67   27294   27291      66   27297   27291      66
   27297   27294      67   27306   27303      66   27309   27303      66   27309
   27306      67   27318   27315      66   27321   27315      66   27321   27318
      67   27330   27327      66   27333   27327      66   27333   27330      67
   27342   27339      66   27345   27339      66   27345   27342      67   27354
   27351      66   27357   27351      66   27357   27354      67   27366   27363
      66   27369   27363      66   27369   27366      67   27378   27375      66
   27381   27375      66   27381   27378      67   27390   27387      66   27393
   27387      66   27393   27390      67   27402   27399      66   27405   27399
      66   27405   27402      67   27414   27411      66   27417   27411      66
   27417   27414      67   27426   27423      66   27429   27423      66   27429
   27426      67   27438   27435      66   27441   27435      66   27441   27438
      67   27450   27447      66   27453   27447      66   27453   27450      67
   27462   27459      66   27465   27459      66   27465   27462      67   27474
   27471      66   27477   27471      66   27477   27474      67   27486   27483
      66   27489   27483      66   27489   27486      67   27498   27495      66
   27501   27495      66   27501   27498      67   27510   27507      66   27513
   27507      66   27513   27510      67   27522   27519      66   27525   27519
      66   27525   27522      67   27534   27531      66   27537   27531      66
   27537   27534      67   27546   27543      66   27549   27543      66   27549
   27546      67   27558   27555      66   27561   27555      66   27561   27558
      67   27570   27567      66   27573   27567      66   27573   27570      67
   27582   27579      66   27585   27579      66   27585   27582      67   27594
   27591      66   27597   27591      66   27597   27594      67   27606   27603
      66   27609   27603      66   27609   27606      67   27618   27615      66
   27621   27615      66   27621   27618      67   27630   27627      66   27633
   27627      66   27633   27630      67   27642   27639      66   27645   27639
      66   27645   27642      67   27654   27651      66   27657   27651      66
   27657   27654      67   27666   27663      66   27669   27663      66   27669
   27666      67   27678   27675      66   27681   27675      66   27681   27678
      67   27690   27687      66   27693   27687      66   27693   27690      67
   27702   27699      66   27705   27699      66   27705   27702      67   27714
   27711      66   27717   27711      66   27717   27714      67   27726   27723
      66   27729   27723      66   27729   27726      67   27738   27735      66
   27741   27735      66   27741   27738      67   27750   27747      66   27753
   27747      66   27753   27750      67   27762   27759      66   27765   27759
      66   27765   27762      67   27774   27771      66   27777   27771      66
   27777   27774      67   27786   27783      66   27789   27783      66   27789
   27786      67   27798   27795      66   27801   27795      66   27801   27798
      67   27810   27807      66   27813   27807      66   27813   27810      67
   27822   27819      66   27825   27819      66   27825   27822      67   27834
   27831      66   27837   27831      66   27837   27834      67   27846   27843
      66   27849   27843      66   27849   27846      67   27858   27855      66
   27861   27855      66   27861   27858      67   27870   27867      66   27873
   27867      66   27873   27870      67   27882   27879      66   27885   27879
      66   27885   27882      67   27894   27891      66   27897   27891      66
   27897   27894      67   27906   27903      66   27909   27903      66   27909
   27906      67   27918   27915      66   27921   27915      66   27921   27918
      67   27930   27927      66   27933   27927      66   27933   27930      67
   27942   27939      66   27945   27939      66   27945   27942      67   27954
   27951      66   27957   27951      66   27957   27954      67   27966   27963
      66   27969   27963      66   27969   27966      67   27978   27975      66
   27981   27975      66   27981   27978      67   27990   27987      66   27993
   27987      66   27993   27990      67   28002   27999      66   28005   27999
      66   28005   28002      67   28014   28011      66   28017   28011      66
   28017   28014      67   28026   28023      66   28029   28023      66   28029
   28026      67   28038   28035      66   28041   28035      66   28041   28038
      67   28050   28047      66   28053   28047      66   28053   28050      67
   28062   28059      66   28065   28059      66   28065   28062      67   28074
   28071      66   28077   28071      66   28077   28074      67   28086   28083
      66   28089   28083      66   28089   28086      67   28098   28095      66
   28101   28095      66   28101   28098      67   28110   28107      66   28113
   28107      66   28113   28110      67   28122   28119      66   28125   28119
      66   28125   28122      67   28134   28131      66   28137   28131      66
   28137   28134      67   28146   28143      66   28149   28143      66   28149
   28146      67   28158   28155      66   28161   28155      66   28161   28158
      67   28170   28167      66   28173   28167      66   28173   28170      67
   28182   28179      66   28185   28179      66   28185   28182      67   28194
   28191      66   28197   28191      66   28197   28194      67   28206   28203
      66   28209   28203      66   28209   28206      67   28218   28215      66
   28221   28215      66   28221   28218      67   28230   28227      66   28233
   28227      66   28233   28230      67   28242   28239      66   28245   28239
      66   28245   28242      67   28254   28251      66   28257   28251      66
   28257   28254      67   28266   28263      66   28269   28263      66   28269
   28266      67   28278   28275      66   28281   28275      66   28281   28278
      67   28290   28287      66   28293   28287      66   28293   28290      67
   28302   28299      66   28305   28299      66   28305   28302      67   28314
   28311      66   28317   28311      66   28317   28314      67   28326   28323
      66   28329   28323      66   28329   28326      67   28338   28335      66
   28341   28335      66   28341   28338      67   28350   28347      66   28353
   28347      66   28353   28350      67   28362   28359      66   28365   28359
      66   28365   28362      67   28374   28371      66   28377   28371      66
   28377   28374      67   28386   28383      66   28389   28383      66   28389
   28386      67   28398   28395      66   28401   28395      66   28401   28398
      67   28410   28407      66   28413   28407      66   28413   28410      67
   28422   28419      66   28425   28419      66   28425   28422      67   28434
   28431      66   28437   28431      66   28437   28434      67   28446   28443
      66   28449   28443      66   28449   28446      67   28458   28455      66
   28461   28455      66   28461   28458      67   28470   28467      66   28473
   28467      66   28473   28470      67   28482   28479      66   28485   28479
      66   28485   28482      67   28494   28491      66   28497   28491      66
   28497   28494      67   28506   28503      66   28509   28503      66   28509
   28506      67   28518   28515      66   28521   28515      66   28521   28518
      67   28530   28527      66   28533   28527      66   28533   28530      67
   28542   28539      66   28545   28539      66   28545   28542      67   28554
   28551      66   28557   28551      66   28557   28554      67   28566   28563
      66   28569   28563      66   28569   28566      67   28578   28575      66
   28581   28575      66   28581   28578      67   28590   28587      66   28593
   28587      66   28593   28590      67   28602   28599      66   28605   28599
      66   28605   28602      67   28614   28611      66   28617   28611      66
   28617   28614      67   28626   28623      66   28629   28623      66   28629
   28626      67   28638   28635      66   28641   28635      66   28641   28638
      67   28650   28647      66   28653   28647      66   28653   28650      67
   28662   28659      66   28665   28659      66   28665   28662      67   28674
   28671      66   28677   28671      66   28677   28674      67   28686   28683
      66   28689   28683      66   28689   28686      67   28698   28695      66
   28701   28695      66   28701   28698      67   28710   28707      66   28713
   28707      66   28713   28710      67   28722   28719      66   28725   28719
      66   28725   28722      67   28734   28731      66   28737   28731      66
   28737   28734      67   28746   28743      66   28749   28743      66   28749
   28746      67   28758   28755      66   28761   28755      66   28761   28758
      67   28770   28767      66   28773   28767      66   28773   28770      67
   28782   28779      66   28785   28779      66   28785   28782      67   28794
   28791      66   28797   28791      66   28797   28794      67   28806   28803
      66   28809   28803      66   28809   28806      67   28818   28815      66
   28821   28815      66   28821   28818      67   28830   28827      66   28833
   28827      66   28833   28830      67   28842   28839      66   28845   28839
      66   28845   28842      67   28854   28851      66   28857   28851      66
   28857   28854      67   28866   28863      66   28869   28863      66   28869
   28866      67   28878   28875      66   28881   28875      66   28881   28878
      67   28890   28887      66   28893   28887      66   28893   28890      67
   28902   28899      66   28905   28899      66   28905   28902      67   28914
   28911      66   28917   28911      66   28917   28914      67   28926   28923
      66   28929   28923      66   28929   28926      67   28938   28935      66
   28941   28935      66   28941   28938      67   28950   28947      66   28953
   28947      66   28953   28950      67   28962   28959      66   28965   28959
      66   28965   28962      67   28974   28971      66   28977   28971      66
   28977   28974      67   28986   28983      66   28989   28983      66   28989
   28986      67   28998   28995      66   29001   28995      66   29001   28998
      67   29010   29007      66   29013   29007      66   29013   29010      67
   29022   29019      66   29025   29019      66   29025   29022      67   29034
   29031      66   29037   29031      66   29037   29034      67   29046   29043
      66   29049   29043      66   29049   29046      67   29058   29055      66
   29061   29055      66   29061   29058      67   29070   29067      66   29073
   29067      66   29073   29070      67   29082   29079      66   29085   29079
      66   29085   29082      67   29094   29091      66   29097   29091      66
   29097   29094      67   29106   29103      66   29109   29103      66   29109
   29106      67   29118   29115      66   29121   29115      66   29121   29118
      67   29130   29127      66   29133   29127      66   29133   29130      67
   29142   29139      66   29145   29139      66   29145   29142      67   29154
   29151      66   29157   29151      66   29157   29154      67   29166   29163
      66   29169   29163      66   29169   29166      67   29178   29175      66
   29181   29175      66   29181   29178      67   29190   29187      66   29193
   29187      66   29193   29190      67   29202   29199      66   29205   29199
      66   29205   29202      67   29214   29211      66   29217   29211      66
   29217   29214      67   29226   29223      66   29229   29223      66   29229
   29226      67   29238   29235      66   29241   29235      66   29241   29238
      67   29250   29247      66   29253   29247      66   29253   29250      67
   29262   29259      66   29265   29259      66   29265   29262      67   29274
   29271      66   29277   29271      66   29277   29274      67   29286   29283
      66   29289   29283      66   29289   29286      67   29298   29295      66
   29301   29295      66   29301   29298      67   29310   29307      66   29313
   29307      66   29313   29310      67   29322   29319      66   29325   29319
      66   29325   29322      67   29334   29331      66   29337   29331      66
   29337   29334      67   29346   29343      66   29349   29343      66   29349
   29346      67   29358   29355      66   29361   29355      66   29361   29358
      67   29370   29367      66   29373   29367      66   29373   29370      67
   29382   29379      66   29385   29379      66   29385   29382      67   29394
   29391      66   29397   29391      66   29397   29394      67   29406   29403
      66   29409   29403      66   29409   29406      67   29418   29415      66
   29421   29415      66   29421   29418      67   29430   29427      66   29433
   29427      66   29433   29430      67   29442   29439      66   29445   29439
      66   29445   29442      67   29454   29451      66   29457   29451      66
   29457   29454      67   29466   29463      66   29469   29463      66   29469
   29466      67   29478   29475      66   29481   29475      66   29481   29478
      67   29490   29487      66   29493   29487      66   29493   29490      67
   29502   29499      66   29505   29499      66   29505   29502      67   29514
   29511      66   29517   29511      66   29517   29514      67   29526   29523
      66   29529   29523      66   29529   29526      67   29538   29535      66
   29541   29535      66   29541   29538      67   29550   29547      66   29553
   29547      66   29553   29550      67   29562   29559      66   29565   29559
      66   29565   29562      67   29574   29571      66   29577   29571      66
   29577   29574      67   29586   29583      66   29589   29583      66   29589
   29586      67   29598   29595      66   29601   29595      66   29601   29598
      67   29610   29607      66   29613   29607      66   29613   29610      67
   29622   29619      66   29625   29619      66   29625   29622      67   29634
   29631      66   29637   29631      66   29637   29634      67   29646   29643
      66   29649   29643      66   29649   29646      67   29658   29655      66
   29661   29655      66   29661   29658      67   29670   29667      66   29673
   29667      66   29673   29670      67   29682   29679      66   29685   29679
      66   29685   29682      67   29694   29691      66   29697   29691      66
   29697   29694      67   29706   29703      66   29709   29703      66   29709
   29706      67   29718   29715      66   29721   29715      66   29721   29718
      67   29730   29727      66   29733   29727      66   29733   29730      67
   29742   29739      66   29745   29739      66   29745   29742      67   29754
   29751      66   29757   29751      66   29757   29754      67   29766   29763
      66   29769   29763      66   29769   29766      67   29778   29775      66
   29781   29775      66   29781   29778      67   29790   29787      66   29793
   29787      66   29793   29790      67   29802   29799      66   29805   29799
      66   29805   29802      67   29814   29811      66   29817   29811      66
   29817   29814      67   29826   29823      66   29829   29823      66   29829
   29826      67   29838   29835      66   29841   29835      66   29841   29838
      67   29850   29847      66   29853   29847      66   29853   29850      67
   29862   29859      66   29865   29859      66   29865   29862      67   29874
   29871      66   29877   29871      66   29877   29874      67   29886   29883
      66   29889   29883      66   29889   29886      67   29898   29895      66
   29901   29895      66   29901   29898      67   29910   29907      66   29913
   29907      66   29913   29910      67   29922   29919      66   29925   29919
      66   29925   29922      67   29934   29931      66   29937   29931      66
   29937   29934      67   29946   29943      66   29949   29943      66   29949
   29946      67   29958   29955      66   29961   29955      66   29961   29958
      67   29970   29967      66   29973   29967      66   29973   29970      67
   29982   29979      66   29985   29979      66   29985   29982      67   29994
   29991      66   29997   29991      66   29997   29994      67   30006   30003
      66   30009   30003      66   30009   30006      67   30018   30015      66
   30021   30015      66   30021   30018      67   30030   30027      66   30033
   30027      66   30033   30030      67   30042   30039      66   30045   30039
      66   30045   30042      67   30054   30051      66   30057   30051      66
   30057   30054      67   30066   30063      66   30069   30063      66   30069
   30066      67   30078   30075      66   30081   30075      66   30081   30078
      67   30090   30087      66   30093   30087      66   30093   30090      67
   30102   30099      66   30105   30099      66   30105   30102      67   30114
   30111      66   30117   30111      66   30117   30114      67   30126   30123
      66   30129   30123      66   30129   30126      67   30138   30135      66
   30141   30135      66   30141   30138      67   30150   30147      66   30153
   30147      66   30153   30150      67   30162   30159      66   30165   30159
      66   30165   30162      67   30174   30171      66   30177   30171      66
   30177   30174      67   30186   30183      66   30189   30183      66   30189
   30186      67   30198   30195      66   30201   30195      66   30201   30198
      67   30210   30207      66   30213   30207      66   30213   30210      67
   30222   30219      66   30225   30219      66   30225   30222      67   30234
   30231      66   30237   30231      66   30237   30234      67   30246   30243
      66   30249   30243      66   30249   30246      67   30258   30255      66
   30261   30255      66   30261   30258      67   30270   30267      66   30273
   30267      66   30273   30270      67   30282   30279      66   30285   30279
      66   30285   30282      67   30294   30291      66   30297   30291      66
   30297   30294      67   30306   30303      66   30309   30303      66   30309
   30306      67   30318   30315      66   30321   30315      66   30321   30318
      67   30330   30327      66   30333   30327      66   30333   30330      67
   30342   30339      66   30345   30339      66   30345   30342      67   30354
   30351      66   30357   30351      66   30357   30354      67   30366   30363
      66   30369   30363      66   30369   30366      67   30378   30375      66
   30381   30375      66   30381   30378      67   30390   30387      66   30393
   30387      66   30393   30390      67   30402   30399      66   30405   30399
      66   30405   30402      67   30414   30411      66   30417   30411      66
   30417   30414      67   30426   30423      66   30429   30423      66   30429
   30426      67   30438   30435      66   30441   30435      66   30441   30438
      67   30450   30447      66   30453   30447      66   30453   30450      67
   30462   30459      66   30465   30459      66   30465   30462      67   30474
   30471      66   30477   30471      66   30477   30474      67   30486   30483
      66   30489   30483      66   30489   30486      67   30498   30495      66
   30501   30495      66   30501   30498      67   30510   30507      66   30513
   30507      66   30513   30510      67   30522   30519      66   30525   30519
      66   30525   30522      67   30534   30531      66   30537   30531      66
   30537   30534      67   30546   30543      66   30549   30543      66   30549
   30546      67   30558   30555      66   30561   30555      66   30561   30558
      67   30570   30567      66   30573   30567      66   30573   30570      67
   30582   30579      66   30585   30579      66   30585   30582      67   30594
   30591      66   30597   30591      66   30597   30594      67   30606   30603
      66   30609   30603      66   30609   30606      67   30618   30615      66
   30621   30615      66   30621   30618      67   30630   30627      66   30633
   30627      66   30633   30630      67   30642   30639      66   30645   30639
      66   30645   30642      67   30654   30651      66   30657   30651      66
   30657   30654      67   30666   30663      66   30669   30663      66   30669
   30666      67   30678   30675      66   30681   30675      66   30681   30678
      67   30690   30687      66   30693   30687      66   30693   30690      67
   30702   30699      66   30705   30699      66   30705   30702      67   30714
   30711      66   30717   30711      66   30717   30714      67   30726   30723
      66   30729   30723      66   30729   30726      67   30738   30735      66
   30741   30735      66   30741   30738      67   30750   30747      66   30753
   30747      66   30753   30750      67   30762   30759      66   30765   30759
      66   30765   30762      67   30774   30771      66   30777   30771      66
   30777   30774      67   30786   30783      66   30789   30783      66   30789
   30786      67   30798   30795      66   30801   30795      66   30801   30798
      67   30810   30807      66   30813   30807      66   30813   30810      67
   30822   30819      66   30825   30819      66   30825   30822      67   30834
   30831      66   30837   30831      66   30837   30834      67   30846   30843
      66   30849   30843      66   30849   30846      67   30858   30855      66
   30861   30855      66   30861   30858      67   30870   30867      66   30873
   30867      66   30873   30870      67   30882   30879      66   30885   30879
      66   30885   30882      67   30894   30891      66   30897   30891      66
   30897   30894      67   30906   30903      66   30909   30903      66   30909
   30906      67   30918   30915      66   30921   30915      66   30921   30918
      67   30930   30927      66   30933   30927      66   30933   30930      67
   30942   30939      66   30945   30939      66   30945   30942      67   30954
   30951      66   30957   30951      66   30957   30954      67   30966   30963
      66   30969   30963      66   30969   30966      67   30978   30975      66
   30981   30975      66   30981   30978      67   30990   30987      66   30993
   30987      66   30993   30990      67   31002   30999      66   31005   30999
      66   31005   31002      67   31014   31011      66   31017   31011      66
   31017   31014      67   31026   31023      66   31029   31023      66   31029
   31026      67   31038   31035      66   31041   31035      66   31041   31038
      67   31050   31047      66   31053   31047      66   31053   31050      67
   31062   31059      66   31065   31059      66   31065   31062      67   31074
   31071      66   31077   31071      66   31077   31074      67   31086   31083
      66   31089   31083      66   31089   31086      67   31098   31095      66
   31101   31095      66   31101   31098      67   31110   31107      66   31113
   31107      66   31113   31110      67   31122   31119      66   31125   31119
      66   31125   31122      67   31134   31131      66   31137   31131      66
   31137   31134      67   31146   31143      66   31149   31143      66   31149
   31146      67   31158   31155      66   31161   31155      66   31161   31158
      67   31170   31167      66   31173   31167      66   31173   31170      67
   31182   31179      66   31185   31179      66   31185   31182      67   31194
   31191      66   31197   31191      66   31197   31194      67   31206   31203
      66   31209   31203      66   31209   31206      67   31218   31215      66
   31221   31215      66   31221   31218      67   31230   31227      66   31233
   31227      66   31233   31230      67   31242   31239      66   31245   31239
      66   31245   31242      67   31254   31251      66   31257   31251      66
   31257   31254      67   31266   31263      66   31269   31263      66   31269
   31266      67   31278   31275      66   31281   31275      66   31281   31278
      67   31290   31287      66   31293   31287      66   31293   31290      67
   31302   31299      66   31305   31299      66   31305   31302      67   31314
   31311      66   31317   31311      66   31317   31314      67   31326   31323
      66   31329   31323      66   31329   31326      67   31338   31335      66
   31341   31335      66   31341   31338      67   31350   31347      66   31353
   31347      66   31353   31350      67   31362   31359      66   31365   31359
      66   31365   31362      67   31374   31371      66   31377   31371      66
   31377   31374      67   31386   31383      66   31389   31383      66   31389
   31386      67   31398   31395      66   31401   31395      66   31401   31398
      67   31410   31407      66   31413   31407      66   31413   31410      67
   31422   31419      66   31425   31419      66   31425   31422      67   31434
   31431      66   31437   31431      66   31437   31434      67   31446   31443
      66   31449   31443      66   31449   31446      67   31458   31455      66
   31461   31455      66   31461   31458      67   31470   31467      66   31473
   31467      66   31473   31470      67   31482   31479      66   31485   31479
      66   31485   31482      67   31494   31491      66   31497   31491      66
   31497   31494      67   31506   31503      66   31509   31503      66   31509
   31506      67   31518   31515      66   31521   31515      66   31521   31518
      67   31530   31527      66   31533   31527      66   31533   31530      67
   31542   31539      66   31545   31539      66   31545   31542      67   31554
   31551      66   31557   31551      66   31557   31554      67   31566   31563
      66   31569   31563      66   31569   31566      67   31578   31575      66
   31581   31575      66   31581   31578      67   31590   31587      66   31593
   31587      66   31593   31590      67   31602   31599      66   31605   31599
      66   31605   31602      67   31614   31611      66   31617   31611      66
   31617   31614      67   31626   31623      66   31629   31623      66   31629
   31626      67   31638   31635      66   31641   31635      66   31641   31638
      67   31650   31647      66   31653   31647      66   31653   31650      67
   31662   31659      66   31665   31659      66   31665   31662      67   31674
   31671      66   31677   31671      66   31677   31674      67   31686   31683
      66   31689   31683      66   31689   31686      67   31698   31695      66
   31701   31695      66   31701   31698      67   31710   31707      66   31713
   31707      66   31713   31710      67   31722   31719      66   31725   31719
      66   31725   31722      67   31734   31731      66   31737   31731      66
   31737   31734      67   31746   31743      66   31749   31743      66   31749
   31746      67   31758   31755      66   31761   31755      66   31761   31758
      67   31770   31767      66   31773   31767      66   31773   31770      67
   31782   31779      66   31785   31779      66   31785   31782      67   31794
   31791      66   31797   31791      66   31797   31794      67   31806   31803
      66   31809   31803      66   31809   31806      67   31818   31815      66
   31821   31815      66   31821   31818      67   31830   31827      66   31833
   31827      66   31833   31830      67   31842   31839      66   31845   31839
      66   31845   31842      67   31854   31851      66   31857   31851      66
   31857   31854      67   31866   31863      66   31869   31863      66   31869
   31866      67   31878   31875      66   31881   31875      66   31881   31878
      67   31890   31887      66   31893   31887      66   31893   31890      67
   31902   31899      66   31905   31899      66   31905   31902      67   31914
   31911      66   31917   31911      66   31917   31914      67   31926   31923
      66   31929   31923      66   31929   31926      67   31938   31935      66
   31941   31935      66   31941   31938      67   31950   31947      66   31953
   31947      66   31953   31950      67   31962   31959      66   31965   31959
      66   31965   31962      67   31974   31971      66   31977   31971      66
   31977   31974      67   31986   31983      66   31989   31983      66   31989
   31986      67   31998   31995      66   32001   31995      66   32001   31998
      67   32010   32007      66   32013   32007      66   32013   32010      67
   32022   32019      66   32025   32019      66   32025   32022      67   32034
   32031      66   32037   32031      66   32037   32034      67   32046   32043
      66   32049   32043      66   32049   32046      67   32058   32055      66
   32061   32055      66   32061   32058      67   32070   32067      66   32073
   32067      66   32073   32070      67   32082   32079      66   32085   32079
      66   32085   32082      67   32094   32091      66   32097   32091      66
   32097   32094      67   32106   32103      66   32109   32103      66   32109
   32106      67   32118   32115      66   32121   32115      66   32121   32118
      67   32130   32127      66   32133   32127      66   32133   32130      67
   32142   32139      66   32145   32139      66   32145   32142      67   32154
   32151      66   32157   32151      66   32157   32154      67   32166   32163
      66   32169   32163      66   32169   32166      67   32178   32175      66
   32181   32175      66   32181   32178      67   32190   32187      66   32193
   32187      66   32193   32190      67   32202   32199      66   32205   32199
      66   32205   32202      67   32214   32211      66   32217   32211      66
   32217   32214      67   32226   32223      66   32229   32223      66   32229
   32226      67   32238   32235      66   32241   32235      66   32241   32238
      67   32250   32247      66   32253   32247      66   32253   32250      67
   32262   32259      66   32265   32259      66   32265   32262      67   32274
   32271      66   32277   32271      66   32277   32274      67   32286   32283
      66   32289   32283      66   32289   32286      67   32298   32295      66
   32301   32295      66   32301   32298      67   32310   32307      66   32313
   32307      66   32313   32310      67   32322   32319      66   32325   32319
      66   32325   32322      67   32334   32331      66   32337   32331      66
   32337   32334      67   32346   32343      66   32349   32343      66   32349
   32346      67   32358   32355      66   32361   32355      66   32361   32358
      67   32370   32367      66   32373   32367      66   32373   32370      67
   32382   32379      66   32385   32379      66   32385   32382      67   32394
   32391      66   32397   32391      66   32397   32394      67   32406   32403
      66   32409   32403      66   32409   32406      67   32418   32415      66
   32421   32415      66   32421   32418      67   32430   32427      66   32433
   32427      66   32433   32430      67   32442   32439      66   32445   32439
      66   32445   32442      67   32454   32451      66   32457   32451      66
   32457   32454      67   32466   32463      66   32469   32463      66   32469
   32466      67   32478   32475      66   32481   32475      66   32481   32478
      67   32490   32487      66   32493   32487      66   32493   32490      67
   32502   32499      66   32505   32499      66   32505   32502      67   32514
   32511      66   32517   32511      66   32517   32514      67   32526   32523
      66   32529   32523      66   32529   32526      67   32538   32535      66
   32541   32535      66   32541   32538      67   32550   32547      66   32553
   32547      66   32553   32550      67   32562   32559      66   32565   32559
      66   32565   32562      67   32574   32571      66   32577   32571      66
   32577   32574      67   32586   32583      66   32589   32583      66   32589
   32586      67   32598   32595      66   32601   32595      66   32601   32598
      67   32610   32607      66   32613   32607      66   32613   32610      67
   32622   32619      66   32625   32619      66   32625   32622      67   32634
   32631      66   32637   32631      66   32637   32634      67   32646   32643
      66   32649   32643      66   32649   32646      67   32658   32655      66
   32661   32655      66   32661   32658      67   32670   32667      66   32673
   32667      66   32673   32670      67   32682   32679      66   32685   32679
      66   32685   32682      67   32694   32691      66   32697   32691      66
   32697   32694      67   32706   32703      66   32709   32703      66   32709
   32706      67   32718   32715      66   32721   32715      66   32721   32718
      67   32730   32727      66   32733   32727      66   32733   32730      67
   32742   32739      66   32745   32739      66   32745   32742      67   32754
   32751      66   32757   32751      66   32757   32754      67   32766   32763
      66   32769   32763      66   32769   32766      67   32778   32775      66
   32781   32775      66   32781   32778      67   32790   32787      66   32793
   32787      66   32793   32790      67   32802   32799      66   32805   32799
      66   32805   32802      67   32814   32811      66   32817   32811      66
   32817   32814      67   32826   32823      66   32829   32823      66   32829
   32826      67   32838   32835      66   32841   32835      66   32841   32838
      67   32850   32847      66   32853   32847      66   32853   32850      67
   32862   32859      66   32865   32859      66   32865   32862      67   32874
   32871      66   32877   32871      66   32877   32874      67   32886   32883
      66   32889   32883      66   32889   32886      67   32898   32895      66
   32901   32895      66   32901   32898      67   32910   32907      66   32913
   32907      66   32913   32910      67   32922   32919      66   32925   32919
      66   32925   32922      67   32934   32931      66   32937   32931      66
   32937   32934      67   32946   32943      66   32949   32943      66   32949
   32946      67   32958   32955      66   32961   32955      66   32961   32958
      67   32970   32967      66   32973   32967      66   32973   32970      67
   32982   32979      66   32985   32979      66   32985   32982      67   32994
   32991      66   32997   32991      66   32997   32994      67   33006   33003
      66   33009   33003      66   33009   33006      67   33018   33015      66
   33021   33015      66   33021   33018      67   33030   33027      66   33033
   33027      66   33033   33030      67   33042   33039      66   33045   33039
      66   33045   33042      67   33054   33051      66   33057   33051      66
   33057   33054      67   33066   33063      66   33069   33063      66   33069
   33066      67   33078   33075      66   33081   33075      66   33081   33078
      67   33090   33087      66   33093   33087      66   33093   33090      67
   33102   33099      66   33105   33099      66   33105   33102      67   33114
   33111      66   33117   33111      66   33117   33114      67   33126   33123
      66   33129   33123      66   33129   33126      67   33138   33135      66
   33141   33135      66   33141   33138      67   33150   33147      66   33153
   33147      66   33153   33150      67   33162   33159      66   33165   33159
      66   33165   33162      67   33174   33171      66   33177   33171      66
   33177   33174      67   33186   33183      66   33189   33183      66   33189
   33186      67   33198   33195      66   33201   33195      66   33201   33198
      67   33210   33207      66   33213   33207      66   33213   33210      67
   33222   33219      66   33225   33219      66   33225   33222      67   33234
   33231      66   33237   33231      66   33237   33234      67   33246   33243
      66   33249   33243      66   33249   33246      67   33258   33255      66
   33261   33255      66   33261   33258      67   33270   33267      66   33273
   33267      66   33273   33270      67   33282   33279      66   33285   33279
      66   33285   33282      67   33294   33291      66   33297   33291      66
   33297   33294      67   33306   33303      66   33309   33303      66   33309
   33306      67   33318   33315      66   33321   33315      66   33321   33318
      67   33330   33327      66   33333   33327      66   33333   33330      67
   33342   33339      66   33345   33339      66   33345   33342      67   33354
   33351      66   33357   33351      66   33357   33354      67   33366   33363
      66   33369   33363      66   33369   33366      67   33378   33375      66
   33381   33375      66   33381   33378      67   33390   33387      66   33393
   33387      66   33393   33390      67   33402   33399      66   33405   33399
      66   33405   33402      67   33414   33411      66   33417   33411      66
   33417   33414      67   33426   33423      66   33429   33423      66   33429
   33426      67   33438   33435      66   33441   33435      66   33441   33438
      67   33450   33447      66   33453   33447      66   33453   33450      67
   33462   33459      66   33465   33459      66   33465   33462      67   33474
   33471      66   33477   33471      66   33477   33474      67   33486   33483
      66   33489   33483      66   33489   33486      67   33498   33495      66
   33501   33495      66   33501   33498      67   33510   33507      66   33513
   33507      66   33513   33510      67   33522   33519      66   33525   33519
      66   33525   33522      67   33534   33531      66   33537   33531      66
   33537   33534      67   33546   33543      66   33549   33543      66   33549
   33546      67   33558   33555      66   33561   33555      66   33561   33558
      67   33570   33567      66   33573   33567      66   33573   33570      67
   33582   33579      66   33585   33579      66   33585   33582      67   33594
   33591      66   33597   33591      66   33597   33594      67   33606   33603
      66   33609   33603      66   33609   33606      67   33618   33615      66
   33621   33615      66   33621   33618      67   33630   33627      66   33633
   33627      66   33633   33630      67   33642   33639      66   33645   33639
      66   33645   33642      67   33654   33651      66   33657   33651      66
   33657   33654      67   33666   33663      66   33669   33663      66   33669
   33666      67   33678   33675      66   33681   33675      66   33681   33678
      67   33690   33687      66   33693   33687      66   33693   33690      67
   33702   33699      66   33705   33699      66   33705   33702      67   33714
   33711      66   33717   33711      66   33717   33714      67   33726   33723
      66   33729   33723      66   33729   33726      67   33738   33735      66
   33741   33735      66   33741   33738      67   33750   33747      66   33753
   33747      66   33753   33750      67   33762   33759      66   33765   33759
      66   33765   33762      67   33774   33771      66   33777   33771      66
   33777   33774      67   33786   33783      66   33789   33783      66   33789
   33786      67   33798   33795      66   33801   33795      66   33801   33798
      67   33810   33807      66   33813   33807      66   33813   33810      67
   33822   33819      66   33825   33819      66   33825   33822      67   33834
   33831      66   33837   33831      66   33837   33834      67   33846   33843
      66   33849   33843      66   33849   33846      67   33858   33855      66
   33861   33855      66   33861   33858      67   33870   33867      66   33873
   33867      66   33873   33870      67   33882   33879      66   33885   33879
      66   33885   33882      67   33894   33891      66   33897   33891      66
   33897   33894      67   33906   33903      66   33909   33903      66   33909
   33906      67   33918   33915      66   33921   33915      66   33921   33918
      67   33930   33927      66   33933   33927      66   33933   33930      67
   33942   33939      66   33945   33939      66   33945   33942      67   33954
   33951      66   33957   33951      66   33957   33954      67   33966   33963
      66   33969   33963      66   33969   33966      67   33978   33975      66
   33981   33975      66   33981   33978      67   33990   33987      66   33993
   33987      66   33993   33990      67   34002   33999      66   34005   33999
      66   34005   34002      67   34014   34011      66   34017   34011      66
   34017   34014      67   34026   34023      66   34029   34023      66   34029
   34026      67   34038   34035      66   34041   34035      66   34041   34038
      67   34050   34047      66   34053   34047      66   34053   34050      67
   34062   34059      66   34065   34059      66   34065   34062      67   34074
   34071      66   34077   34071      66   34077   34074      67   34086   34083
      66   34089   34083      66   34089   34086      67   34098   34095      66
   34101   34095      66   34101   34098      67   34110   34107      66   34113
   34107      66   34113   34110      67   34122   34119      66   34125   34119
      66   34125   34122      67   34134   34131      66   34137   34131      66
   34137   34134      67   34146   34143      66   34149   34143      66   34149
   34146      67   34158   34155      66   34161   34155      66   34161   34158
      67   34170   34167      66   34173   34167      66   34173   34170      67
   34182   34179      66   34185   34179      66   34185   34182      67   34194
   34191      66   34197   34191      66   34197   34194      67   34206   34203
      66   34209   34203      66   34209   34206      67   34218   34215      66
   34221   34215      66   34221   34218      67   34230   34227      66   34233
   34227      66   34233   34230      67   34242   34239      66   34245   34239
      66   34245   34242      67   34254   34251      66   34257   34251      66
   34257   34254      67   34266   34263      66   34269   34263      66   34269
   34266      67   34278   34275      66   34281   34275      66   34281   34278
      67   34290   34287      66   34293   34287      66   34293   34290      67
   34302   34299      66   34305   34299      66   34305   34302      67   34314
   34311      66   34317   34311      66   34317   34314      67   34326   34323
      66   34329   34323      66   34329   34326      67   34338   34335      66
   34341   34335      66   34341   34338      67   34350   34347      66   34353
   34347      66   34353   34350      67   34362   34359      66   34365   34359
      66   34365   34362      67   34374   34371      66   34377   34371      66
   34377   34374      67   34386   34383      66   34389   34383      66   34389
   34386      67   34398   34395      66   34401   34395      66   34401   34398
      67   34410   34407      66   34413   34407      66   34413   34410      67
   34422   34419      66   34425   34419      66   34425   34422      67   34434
   34431      66   34437   34431      66   34437   34434      67   34446   34443
      66   34449   34443      66   34449   34446      67   34458   34455      66
   34461   34455      66   34461   34458      67   34470   34467      66   34473
   34467      66   34473   34470      67   34482   34479      66   34485   34479
      66   34485   34482      67   34494   34491      66   34497   34491      66
   34497   34494      67   34506   34503      66   34509   34503      66   34509
   34506      67   34518   34515      66   34521   34515      66   34521   34518
      67   34530   34527      66   34533   34527      66   34533   34530      67
   34542   34539      66   34545   34539      66   34545   34542      67   34554
   34551      66   34557   34551      66   34557   34554      67   34566   34563
      66   34569   34563      66   34569   34566      67   34578   34575      66
   34581   34575      66   34581   34578      67   34590   34587      66   34593
   34587      66   34593   34590      67   34602   34599      66   34605   34599
      66   34605   34602      67   34614   34611      66   34617   34611      66
   34617   34614      67   34626   34623      66   34629   34623      66   34629
   34626      67   34638   34635      66   34641   34635      66   34641   34638
      67   34650   34647      66   34653   34647      66   34653   34650      67
   34662   34659      66   34665   34659      66   34665   34662      67   34674
   34671      66   34677   34671      66   34677   34674      67   34686   34683
      66   34689   34683      66   34689   34686      67   34698   34695      66
   34701   34695      66   34701   34698      67   34710   34707      66   34713
   34707      66   34713   34710      67   34722   34719      66   34725   34719
      66   34725   34722      67   34734   34731      66   34737   34731      66
   34737   34734      67   34746   34743      66   34749   34743      66   34749
   34746      67   34758   34755      66   34761   34755      66   34761   34758
      67   34770   34767      66   34773   34767      66   34773   34770      67
   34782   34779      66   34785   34779      66   34785   34782      67   34794
   34791      66   34797   34791      66   34797   34794      67   34806   34803
      66   34809   34803      66   34809   34806      67   34818   34815      66
   34821   34815      66   34821   34818      67   34830   34827      66   34833
   34827      66   34833   34830      67   34842   34839      66   34845   34839
      66   34845   34842      67   34854   34851      66   34857   34851      66
   34857   34854      67   34866   34863      66   34869   34863      66   34869
   34866      67   34878   34875      66   34881   34875      66   34881   34878
      67   34890   34887      66   34893   34887      66   34893   34890      67
   34902   34899      66   34905   34899      66   34905   34902      67   34914
   34911      66   34917   34911      66   34917   34914      67   34926   34923
      66   34929   34923      66   34929   34926      67   34938   34935      66
   34941   34935      66   34941   34938      67   34950   34947      66   34953
   34947      66   34953   34950      67   34962   34959      66   34965   34959
      66   34965   34962      67   34974   34971      66   34977   34971      66
   34977   34974      67   34986   34983      66   34989   34983      66   34989
   34986      67   34998   34995      66   35001   34995      66   35001   34998
      67   35010   35007      66   35013   35007      66   35013   35010      67
   35022   35019      66   35025   35019      66   35025   35022      67   35034
   35031      66   35037   35031      66   35037   35034      67   35046   35043
      66   35049   35043      66   35049   35046      67   35058   35055      66
   35061   35055      66   35061   35058      67   35070   35067      66   35073
   35067      66   35073   35070      67   35082   35079      66   35085   35079
      66   35085   35082      67   35094   35091      66   35097   35091      66
   35097   35094      67   35106   35103      66   35109   35103      66   35109
   35106      67   35118   35115      66   35121   35115      66   35121   35118
      67   35130   35127      66   35133   35127      66   35133   35130      67
   35142   35139      66   35145   35139      66   35145   35142      67   35154
   35151      66   35157   35151      66   35157   35154      67   35166   35163
      66   35169   35163      66   35169   35166      67   35178   35175      66
   35181   35175      66   35181   35178      67   35190   35187      66   35193
   35187      66   35193   35190      67   35202   35199      66   35205   35199
      66   35205   35202      67   35214   35211      66   35217   35211      66
   35217   35214      67   35226   35223      66   35229   35223      66   35229
   35226      67   35238   35235      66   35241   35235      66   35241   35238
      67   35250   35247      66   35253   35247      66   35253   35250      67
   35262   35259      66   35265   35259      66   35265   35262      67   35274
   35271      66   35277   35271      66   35277   35274      67   35286   35283
      66   35289   35283      66   35289   35286      67   35298   35295      66
   35301   35295      66   35301   35298      67   35310   35307      66   35313
   35307      66   35313   35310      67   35322   35319      66   35325   35319
      66   35325   35322      67   35334   35331      66   35337   35331      66
   35337   35334      67   35346   35343      66   35349   35343      66   35349
   35346      67   35358   35355      66   35361   35355      66   35361   35358
      67   35370   35367      66   35373   35367      66   35373   35370      67
   35382   35379      66   35385   35379      66   35385   35382      67   35394
   35391      66   35397   35391      66   35397   35394      67   35406   35403
      66   35409   35403      66   35409   35406      67   35418   35415      66
   35421   35415      66   35421   35418      67   35430   35427      66   35433
   35427      66   35433   35430      67   35442   35439      66   35445   35439
      66   35445   35442      67   35454   35451      66   35457   35451      66
   35457   35454      67   35466   35463      66   35469   35463      66   35469
   35466      67   35478   35475      66   35481   35475      66   35481   35478
      67   35490   35487      66   35493   35487      66   35493   35490      67
   35502   35499      66   35505   35499      66   35505   35502      67   35514
   35511      66   35517   35511      66   35517   35514      67   35526   35523
      66   35529   35523      66   35529   35526      67   35538   35535      66
   35541   35535      66   35541   35538      67   35550   35547      66   35553
   35547      66   35553   35550      67   35562   35559      66   35565   35559
      66   35565   35562      67   35574   35571      66   35577   35571      66
   35577   35574      67   35586   35583      66   35589   35583      66   35589
   35586      67   35598   35595      66   35601   35595      66   35601   35598
      67   35610   35607      66   35613   35607      66   35613   35610      67
   35622   35619      66   35625   35619      66   35625   35622      67   35634
   35631      66   35637   35631      66   35637   35634      67   35646   35643
      66   35649   35643      66   35649   35646      67   35658   35655      66
   35661   35655      66   35661   35658      67   35670   35667      66   35673
   35667      66   35673   35670      67   35682   35679      66   35685   35679
      66   35685   35682      67   35694   35691      66   35697   35691      66
   35697   35694      67   35706   35703      66   35709   35703      66   35709
   35706      67   35718   35715      66   35721   35715      66   35721   35718
      67   35730   35727      66   35733   35727      66   35733   35730      67
   35742   35739      66   35745   35739      66   35745   35742      67   35754
   35751      66   35757   35751      66   35757   35754      67   35766   35763
      66   35769   35763      66   35769   35766      67   35778   35775      66
   35781   35775      66   35781   35778      67   35790   35787      66   35793
   35787      66   35793   35790      67   35802   35799      66   35805   35799
      66   35805   35802      67   35814   35811      66   35817   35811      66
   35817   35814      67   35826   35823      66   35829   35823      66   35829
   35826      67   35838   35835      66   35841   35835      66   35841   35838
      67   35850   35847      66   35853   35847      66   35853   35850      67
   35862   35859      66   35865   35859      66   35865   35862      67   35874
   35871      66   35877   35871      66   35877   35874      67   35886   35883
      66   35889   35883      66   35889   35886      67   35898   35895      66
   35901   35895      66   35901   35898      67   35910   35907      66   35913
   35907      66   35913   35910      67   35922   35919      66   35925   35919
      66   35925   35922      67   35934   35931      66   35937   35931      66
   35937   35934      67   35946   35943      66   35949   35943      66   35949
   35946      67   35958   35955      66   35961   35955      66   35961   35958
      67   35970   35967      66   35973   35967      66   35973   35970      67
   35982   35979      66   35985   35979      66   35985   35982      67   35994
   35991      66   35997   35991      66   35997   35994      67   36006   36003
      66   36009   36003      66   36009   36006      67   36018   36015      66
   36021   36015      66   36021   36018      67   36030   36027      66   36033
   36027      66   36033   36030      67   36042   36039      66   36045   36039
      66   36045   36042      67   36054   36051      66   36057   36051      66
   36057   36054      67   36066   36063      66   36069   36063      66   36069
   36066      67   36078   36075      66   36081   36075      66   36081   36078
      67   36090   36087      66   36093   36087      66   36093   36090      67
   36102   36099      66   36105   36099      66   36105   36102      67   36114
   36111      66   36117   36111      66   36117   36114      67   36126   36123
      66   36129   36123      66   36129   36126      67   36138   36135      66
   36141   36135      66   36141   36138      67   36150   36147      66   36153
   36147      66   36153   36150      67   36162   36159      66   36165   36159
      66   36165   36162      67   36174   36171      66   36177   36171      66
   36177   36174      67   36186   36183      66   36189   36183      66   36189
   36186      67   36198   36195      66   36201   36195      66   36201   36198
      67   36210   36207      66   36213   36207      66   36213   36210      67
   36222   36219      66   36225   36219      66   36225   36222      67   36234
   36231      66   36237   36231      66   36237   36234      67   36246   36243
      66   36249   36243      66   36249   36246      67   36258   36255      66
   36261   36255      66   36261   36258      67   36270   36267      66   36273
   36267      66   36273   36270      67   36282   36279      66   36285   36279
      66   36285   36282      67   36294   36291      66   36297   36291      66
   36297   36294      67   36306   36303      66   36309   36303      66   36309
   36306      67   36318   36315      66   36321   36315      66   36321   36318
      67   36330   36327      66   36333   36327      66   36333   36330      67
   36342   36339      66   36345   36339      66   36345   36342      67   36354
   36351      66   36357   36351      66   36357   36354      67   36366   36363
      66   36369   36363      66   36369   36366      67   36378   36375      66
   36381   36375      66   36381   36378      67   36390   36387      66   36393
   36387      66   36393   36390      67   36402   36399      66   36405   36399
      66   36405   36402      67   36414   36411      66   36417   36411      66
   36417   36414      67   36426   36423      66   36429   36423      66   36429
   36426      67   36438   36435      66   36441   36435      66   36441   36438
      67   36450   36447      66   36453   36447      66   36453   36450      67
   36462   36459      66   36465   36459      66   36465   36462      67   36474
   36471      66   36477   36471      66   36477   36474      67   36486   36483
      66   36489   36483      66   36489   36486      67   36498   36495      66
   36501   36495      66   36501   36498      67   36510   36507      66   36513
   36507      66   36513   36510      67   36522   36519      66   36525   36519
      66   36525   36522      67   36534   36531      66   36537   36531      66
   36537   36534      67   36546   36543      66   36549   36543      66   36549
   36546      67   36558   36555      66   36561   36555      66   36561   36558
      67   36570   36567      66   36573   36567      66   36573   36570      67
   36582   36579      66   36585   36579      66   36585   36582      67   36594
   36591      66   36597   36591      66   36597   36594      67   36606   36603
      66   36609   36603      66   36609   36606      67   36618   36615      66
   36621   36615      66   36621   36618      67   36630   36627      66   36633
   36627      66   36633   36630      67   36642   36639      66   36645   36639
      66   36645   36642      67   36654   36651      66   36657   36651      66
   36657   36654      67   36666   36663      66   36669   36663      66   36669
   36666      67   36678   36675      66   36681   36675      66   36681   36678
      67   36690   36687      66   36693   36687      66   36693   36690      67
   36702   36699      66   36705   36699      66   36705   36702      67   36714
   36711      66   36717   36711      66   36717   36714      67   36726   36723
      66   36729   36723      66   36729   36726      67   36738   36735      66
   36741   36735      66   36741   36738      67   36750   36747      66   36753
   36747      66   36753   36750      67   36762   36759      66   36765   36759
      66   36765   36762      67   36774   36771      66   36777   36771      66
   36777   36774      67   36786   36783      66   36789   36783      66   36789
   36786      67   36798   36795      66   36801   36795      66   36801   36798
      67   36810   36807      66   36813   36807      66   36813   36810      67
   36822   36819      66   36825   36819      66   36825   36822      67   36834
   36831      66   36837   36831      66   36837   36834      67   36846   36843
      66   36849   36843      66   36849   36846      67   36858   36855      66
   36861   36855      66   36861   36858      67   36870   36867      66   36873
   36867      66   36873   36870      67   36882   36879      66   36885   36879
      66   36885   36882      67   36894   36891      66   36897   36891      66
   36897   36894      67   36906   36903      66   36909   36903      66   36909
   36906      67   36918   36915      66   36921   36915      66   36921   36918
      67   36930   36927      66   36933   36927      66   36933   36930      67
   36942   36939      66   36945   36939      66   36945   36942      67   36954
   36951      66   36957   36951      66   36957   36954      67   36966   36963
      66   36969   36963      66   36969   36966      67   36978   36975      66
   36981   36975      66   36981   36978      67   36990   36987      66   36993
   36987      66   36993   36990      67   37002   36999      66   37005   36999
      66   37005   37002      67   37014   37011      66   37017   37011      66
   37017   37014      67   37026   37023      66   37029   37023      66   37029
   37026      67   37038   37035      66   37041   37035      66   37041   37038
      67   37050   37047      66   37053   37047      66   37053   37050      67
   37062   37059      66   37065   37059      66   37065   37062      67   37074
   37071      66   37077   37071      66   37077   37074      67   37086   37083
      66   37089   37083      66   37089   37086      67   37098   37095      66
   37101   37095      66   37101   37098      67   37110   37107      66   37113
   37107      66   37113   37110      67   37122   37119      66   37125   37119
      66   37125   37122      67   37134   37131      66   37137   37131      66
   37137   37134      67   37146   37143      66   37149   37143      66   37149
   37146      67   37158   37155      66   37161   37155      66   37161   37158
      67   37170   37167      66   37173   37167      66   37173   37170      67
   37182   37179      66   37185   37179      66   37185   37182      67   37194
   37191      66   37197   37191      66   37197   37194      67   37206   37203
      66   37209   37203      66   37209   37206      67   37218   37215      66
   37221   37215      66   37221   37218      67   37230   37227      66   37233
   37227      66   37233   37230      67   37242   37239      66   37245   37239
      66   37245   37242      67   37254   37251      66   37257   37251      66
   37257   37254      67   37266   37263      66   37269   37263      66   37269
   37266      67   37278   37275      66   37281   37275      66   37281   37278
      67   37290   37287      66   37293   37287      66   37293   37290      67
   37302   37299      66   37305   37299      66   37305   37302      67   37314
   37311      66   37317   37311      66   37317   37314      67   37326   37323
      66   37329   37323      66   37329   37326      67   37338   37335      66
   37341   37335      66   37341   37338      67   37350   37347      66   37353
   37347      66   37353   37350      67   37362   37359      66   37365   37359
      66   37365   37362      67   37374   37371      66   37377   37371      66
   37377   37374      67   37386   37383      66   37389   37383      66   37389
   37386      67   37398   37395      66   37401   37395      66   37401   37398
      67   37410   37407      66   37413   37407      66   37413   37410      67
   37422   37419      66   37425   37419      66   37425   37422      67   37434
   37431      66   37437   37431      66   37437   37434      67   37446   37443
      66   37449   37443      66   37449   37446      67   37458   37455      66
   37461   37455      66   37461   37458      67   37470   37467      66   37473
   37467      66   37473   37470      67   37482   37479      66   37485   37479
      66   37485   37482      67   37494   37491      66   37497   37491      66
   37497   37494      67   37506   37503      66   37509   37503      66   37509
   37506      67   37518   37515      66   37521   37515      66   37521   37518
      67   37530   37527      66   37533   37527      66   37533   37530      67
   37542   37539      66   37545   37539      66   37545   37542      67   37554
   37551      66   37557   37551      66   37557   37554      67   37566   37563
      66   37569   37563      66   37569   37566      67   37578   37575      66
   37581   37575      66   37581   37578      67   37590   37587      66   37593
   37587      66   37593   37590      67   37602   37599      66   37605   37599
      66   37605   37602      67   37614   37611      66   37617   37611      66
   37617   37614      67   37626   37623      66   37629   37623      66   37629
   37626      67   37638   37635      66   37641   37635      66   37641   37638
      67   37650   37647      66   37653   37647      66   37653   37650      67
   37662   37659      66   37665   37659      66   37665   37662      67   37674
   37671      66   37677   37671      66   37677   37674      67   37686   37683
      66   37689   37683      66   37689   37686      67   37698   37695      66
   37701   37695      66   37701   37698      67   37710   37707      66   37713
   37707      66   37713   37710      67   37722   37719      66   37725   37719
      66   37725   37722      67   37734   37731      66   37737   37731      66
   37737   37734      67   37746   37743      66   37749   37743      66   37749
   37746      67   37758   37755      66   37761   37755      66   37761   37758
      67   37770   37767      66   37773   37767      66   37773   37770      67
   37782   37779      66   37785   37779      66   37785   37782      67   37794
   37791      66   37797   37791      66   37797   37794      67   37806   37803
      66   37809   37803      66   37809   37806      67   37818   37815      66
   37821   37815      66   37821   37818      67   37830   37827      66   37833
   37827      66   37833   37830      67   37842   37839      66   37845   37839
      66   37845   37842      67   37854   37851      66   37857   37851      66
   37857   37854      67   37866   37863      66   37869   37863      66   37869
   37866      67   37878   37875      66   37881   37875      66   37881   37878
      67   37890   37887      66   37893   37887      66   37893   37890      67
   37902   37899      66   37905   37899      66   37905   37902      67   37914
   37911      66   37917   37911      66   37917   37914      67   37926   37923
      66   37929   37923      66   37929   37926      67   37938   37935      66
   37941   37935      66   37941   37938      67   37950   37947      66   37953
   37947      66   37953   37950      67   37962   37959      66   37965   37959
      66   37965   37962      67   37974   37971      66   37977   37971      66
   37977   37974      67   37986   37983      66   37989   37983      66   37989
   37986      67   37998   37995      66   38001   37995      66   38001   37998
      67   38010   38007      66   38013   38007      66   38013   38010      67
   38022   38019      66   38025   38019      66   38025   38022      67   38034
   38031      66   38037   38031      66   38037   38034      67   38046   38043
      66   38049   38043      66   38049   38046      67   38058   38055      66
   38061   38055      66   38061   38058      67   38070   38067      66   38073
   38067      66   38073   38070      67   38082   38079      66   38085   38079
      66   38085   38082      67   38094   38091      66   38097   38091      66
   38097   38094      67   38106   38103      66   38109   38103      66   38109
   38106      67   38118   38115      66   38121   38115      66   38121   38118
      67   38130   38127      66   38133   38127      66   38133   38130      67
   38142   38139      66   38145   38139      66   38145   38142      67   38154
   38151      66   38157   38151      66   38157   38154      67   38166   38163
      66   38169   38163      66   38169   38166      67   38178   38175      66
   38181   38175      66   38181   38178      67   38190   38187      66   38193
   38187      66   38193   38190      67   38202   38199      66   38205   38199
      66   38205   38202      67   38214   38211      66   38217   38211      66
   38217   38214      67   38226   38223      66   38229   38223      66   38229
   38226      67   38238   38235      66   38241   38235      66   38241   38238
      67   38250   38247      66   38253   38247      66   38253   38250      67
   38262   38259      66   38265   38259      66   38265   38262      67   38274
   38271      66   38277   38271      66   38277   38274      67   38286   38283
      66   38289   38283      66   38289   38286      67   38298   38295      66
   38301   38295      66   38301   38298      67   38310   38307      66   38313
   38307      66   38313   38310      67   38322   38319      66   38325   38319
      66   38325   38322      67   38334   38331      66   38337   38331      66
   38337   38334      67   38346   38343      66   38349   38343      66   38349
   38346      67   38358   38355      66   38361   38355      66   38361   38358
      67   38370   38367      66   38373   38367      66   38373   38370      67
   38382   38379      66   38385   38379      66   38385   38382      67   38394
   38391      66   38397   38391      66   38397   38394      67   38406   38403
      66   38409   38403      66   38409   38406      67   38418   38415      66
   38421   38415      66   38421   38418      67   38430   38427      66   38433
   38427      66   38433   38430      67   38442   38439      66   38445   38439
      66   38445   38442      67   38454   38451      66   38457   38451      66
   38457   38454      67   38466   38463      66   38469   38463      66   38469
   38466      67   38478   38475      66   38481   38475      66   38481   38478
      67   38490   38487      66   38493   38487      66   38493   38490      67
   38502   38499      66   38505   38499      66   38505   38502      67   38514
   38511      66   38517   38511      66   38517   38514      67   38526   38523
      66   38529   38523      66   38529   38526      67   38538   38535      66
   38541   38535      66   38541   38538      67   38550   38547      66   38553
   38547      66   38553   38550      67   38562   38559      66   38565   38559
      66   38565   38562      67   38574   38571      66   38577   38571      66
   38577   38574      67   38586   38583      66   38589   38583      66   38589
   38586      67   38598   38595      66   38601   38595      66   38601   38598
      67   38610   38607      66   38613   38607      66   38613   38610      67
   38622   38619      66   38625   38619      66   38625   38622      67   38634
   38631      66   38637   38631      66   38637   38634      67   38646   38643
      66   38649   38643      66   38649   38646      67   38658   38655      66
   38661   38655      66   38661   38658      67   38670   38667      66   38673
   38667      66   38673   38670      67   38682   38679      66   38685   38679
      66   38685   38682      67   38694   38691      66   38697   38691      66
   38697   38694      67   38706   38703      66   38709   38703      66   38709
   38706      67   38718   38715      66   38721   38715      66   38721   38718
      67   38730   38727      66   38733   38727      66   38733   38730      67
   38742   38739      66   38745   38739      66   38745   38742      67   38754
   38751      66   38757   38751      66   38757   38754      67   38766   38763
      66   38769   38763      66   38769   38766      67   38778   38775      66
   38781   38775      66   38781   38778      67   38790   38787      66   38793
   38787      66   38793   38790      67   38802   38799      66   38805   38799
      66   38805   38802      67   38814   38811      66   38817   38811      66
   38817   38814      67   38826   38823      66   38829   38823      66   38829
   38826      67   38838   38835      66   38841   38835      66   38841   38838
      67   38850   38847      66   38853   38847      66   38853   38850      67
   38862   38859      66   38865   38859      66   38865   38862      67   38874
   38871      66   38877   38871      66   38877   38874      67   38886   38883
      66   38889   38883      66   38889   38886      67   38898   38895      66
   38901   38895      66   38901   38898      67   38910   38907      66   38913
   38907      66   38913   38910      67   38922   38919      66   38925   38919
      66   38925   38922      67   38934   38931      66   38937   38931      66
   38937   38934      67   38946   38943      66   38949   38943      66   38949
   38946      67   38958   38955      66   38961   38955      66   38961   38958
      67   38970   38967      66   38973   38967      66   38973   38970      67
   38982   38979      66   38985   38979      66   38985   38982      67   38994
   38991      66   38997   38991      66   38997   38994      67   39006   39003
      66   39009   39003      66   39009   39006      67   39018   39015      66
   39021   39015      66   39021   39018      67   39030   39027      66   39033
   39027      66   39033   39030      67   39042   39039      66   39045   39039
      66   39045   39042      67   39054   39051      66   39057   39051      66
   39057   39054      67   39066   39063      66   39069   39063      66   39069
   39066      67   39078   39075      66   39081   39075      66   39081   39078
      67   39090   39087      66   39093   39087      66   39093   39090      67
   39102   39099      66   39105   39099      66   39105   39102      67   39114
   39111      66   39117   39111      66   39117   39114      67   39126   39123
      66   39129   39123      66   39129   39126      67   39138   39135      66
   39141   39135      66   39141   39138      67   39150   39147      66   39153
   39147      66   39153   39150      67   39162   39159      66   39165   39159
      66   39165   39162      67   39174   39171      66   39177   39171      66
   39177   39174      67   39186   39183      66   39189   39183      66   39189
   39186      67   39198   39195      66   39201   39195      66   39201   39198
      67   39210   39207      66   39213   39207      66   39213   39210      67
   39222   39219      66   39225   39219      66   39225   39222      67   39234
   39231      66   39237   39231      66   39237   39234      67   39246   39243
      66   39249   39243      66   39249   39246      67   39258   39255      66
   39261   39255      66   39261   39258      67   39270   39267      66   39273
   39267      66   39273   39270      67   39282   39279      66   39285   39279
      66   39285   39282      67   39294   39291      66   39297   39291      66
   39297   39294      67   39306   39303      66   39309   39303      66   39309
   39306      67   39318   39315      66   39321   39315      66   39321   39318
      67   39330   39327      66   39333   39327      66   39333   39330      67
   39342   39339      66   39345   39339      66   39345   39342      67   39354
   39351      66   39357   39351      66   39357   39354      67   39366   39363
      66   39369   39363      66   39369   39366      67   39378   39375      66
   39381   39375      66   39381   39378      67   39390   39387      66   39393
   39387      66   39393   39390      67   39402   39399      66   39405   39399
      66   39405   39402      67   39414   39411      66   39417   39411      66
   39417   39414      67   39426   39423      66   39429   39423      66   39429
   39426      67   39438   39435      66   39441   39435      66   39441   39438
      67   39450   39447      66   39453   39447      66   39453   39450      67
   39462   39459      66   39465   39459      66   39465   39462      67   39474
   39471      66   39477   39471      66   39477   39474      67   39486   39483
      66   39489   39483      66   39489   39486      67   39498   39495      66
   39501   39495      66   39501   39498      67   39510   39507      66   39513
   39507      66   39513   39510      67   39522   39519      66   39525   39519
      66   39525   39522      67   39534   39531      66   39537   39531      66
   39537   39534      67   39546   39543      66   39549   39543      66   39549
   39546      67   39558   39555      66   39561   39555      66   39561   39558
      67   39570   39567      66   39573   39567      66   39573   39570      67
   39582   39579      66   39585   39579      66   39585   39582      67   39594
   39591      66   39597   39591      66   39597   39594      67   39606   39603
      66   39609   39603      66   39609   39606      67   39618   39615      66
   39621   39615      66   39621   39618      67   39630   39627      66   39633
   39627      66   39633   39630      67   39642   39639      66   39645   39639
      66   39645   39642      67   39654   39651      66   39657   39651      66
   39657   39654      67   39666   39663      66   39669   39663      66   39669
   39666      67   39678   39675      66   39681   39675      66   39681   39678
      67   39690   39687      66   39693   39687      66   39693   39690      67
   39702   39699      66   39705   39699      66   39705   39702      67   39714
   39711      66   39717   39711      66   39717   39714      67   39726   39723
      66   39729   39723      66   39729   39726      67   39738   39735      66
   39741   39735      66   39741   39738      67   39750   39747      66   39753
   39747      66   39753   39750      67   39762   39759      66   39765   39759
      66   39765   39762      67   39774   39771      66   39777   39771      66
   39777   39774      67   39786   39783      66   39789   39783      66   39789
   39786      67   39798   39795      66   39801   39795      66   39801   39798
      67   39810   39807      66   39813   39807      66   39813   39810      67
   39822   39819      66   39825   39819      66   39825   39822      67   39834
   39831      66   39837   39831      66   39837   39834      67   39846   39843
      66   39849   39843      66   39849   39846      67   39858   39855      66
   39861   39855      66   39861   39858      67   39870   39867      66   39873
   39867      66   39873   39870      67   39882   39879      66   39885   39879
      66   39885   39882      67   39894   39891      66   39897   39891      66
   39897   39894      67   39906   39903      66   39909   39903      66   39909
   39906      67   39918   39915      66   39921   39915      66   39921   39918
      67   39930   39927      66   39933   39927      66   39933   39930      67
   39942   39939      66   39945   39939      66   39945   39942      67   39954
   39951      66   39957   39951      66   39957   39954      67   39966   39963
      66   39969   39963      66   39969   39966      67   39978   39975      66
   39981   39975      66   39981   39978      67   39990   39987      66   39993
   39987      66   39993   39990      67   40002   39999      66   40005   39999
      66   40005   40002      67   40014   40011      66   40017   40011      66
   40017   40014      67   40026   40023      66   40029   40023      66   40029
   40026      67   40038   40035      66   40041   40035      66   40041   40038
      67   40050   40047      66   40053   40047      66   40053   40050      67
   40062   40059      66   40065   40059      66   40065   40062      67   40074
   40071      66   40077   40071      66   40077   40074      67   40086   40083
      66   40089   40083      66   40089   40086      67   40098   40095      66
   40101   40095      66   40101   40098      67   40110   40107      66   40113
   40107      66   40113   40110      67   40122   40119      66   40125   40119
      66   40125   40122      67   40134   40131      66   40137   40131      66
   40137   40134      67   40146   40143      66   40149   40143      66   40149
   40146      67   40158   40155      66   40161   40155      66   40161   40158
      67   40170   40167      66   40173   40167      66   40173   40170      67
   40182   40179      66   40185   40179      66   40185   40182      67   40194
   40191      66   40197   40191      66   40197   40194      67   40206   40203
      66   40209   40203      66   40209   40206      67   40218   40215      66
   40221   40215      66   40221   40218      67   40230   40227      66   40233
   40227      66   40233   40230      67   40242   40239      66   40245   40239
      66   40245   40242      67   40254   40251      66   40257   40251      66
   40257   40254      67   40266   40263      66   40269   40263      66   40269
   40266      67   40278   40275      66   40281   40275      66   40281   40278
      67   40290   40287      66   40293   40287      66   40293   40290      67
   40302   40299      66   40305   40299      66   40305   40302      67   40314
   40311      66   40317   40311      66   40317   40314      67   40326   40323
      66   40329   40323      66   40329   40326      67   40338   40335      66
   40341   40335      66   40341   40338      67   40350   40347      66   40353
   40347      66   40353   40350      67   40362   40359      66   40365   40359
      66   40365   40362      67   40374   40371      66   40377   40371      66
   40377   40374      67   40386   40383      66   40389   40383      66   40389
   40386      67   40398   40395      66   40401   40395      66   40401   40398
      67   40410   40407      66   40413   40407      66   40413   40410      67
   40422   40419      66   40425   40419      66   40425   40422      67   40434
   40431      66   40437   40431      66   40437   40434      67   40446   40443
      66   40449   40443      66   40449   40446      67   40458   40455      66
   40461   40455      66   40461   40458      67   40470   40467      66   40473
   40467      66   40473   40470      67   40482   40479      66   40485   40479
      66   40485   40482      67   40494   40491      66   40497   40491      66
   40497   40494      67   40506   40503      66   40509   40503      66   40509
   40506      67   40518   40515      66   40521   40515      66   40521   40518
      67   40530   40527      66   40533   40527      66   40533   40530      67
   40542   40539      66   40545   40539      66   40545   40542      67   40554
   40551      66   40557   40551      66   40557   40554      67   40566   40563
      66   40569   40563      66   40569   40566      67   40578   40575      66
   40581   40575      66   40581   40578      67   40590   40587      66   40593
   40587      66   40593   40590      67   40602   40599      66   40605   40599
      66   40605   40602      67   40614   40611      66   40617   40611      66
   40617   40614      67   40626   40623      66   40629   40623      66   40629
   40626      67   40638   40635      66   40641   40635      66   40641   40638
      67   40650   40647      66   40653   40647      66   40653   40650      67
   40662   40659      66   40665   40659      66   40665   40662      67   40674
   40671      66   40677   40671      66   40677   40674      67   40686   40683
      66   40689   40683      66   40689   40686      67   40698   40695      66
   40701   40695      66   40701   40698      67   40710   40707      66   40713
   40707      66   40713   40710      67   40722   40719      66   40725   40719
      66   40725   40722      67   40734   40731      66   40737   40731      66
   40737   40734      67   40746   40743      66   40749   40743      66   40749
   40746      67   40758   40755      66   40761   40755      66   40761   40758
      67   40770   40767      66   40773   40767      66   40773   40770      67
   40782   40779      66   40785   40779      66   40785   40782      67   40794
   40791      66   40797   40791      66   40797   40794      67   40806   40803
      66   40809   40803      66   40809   40806      67   40818   40815      66
   40821   40815      66   40821   40818      67   40830   40827      66   40833
   40827      66   40833   40830      67   40842   40839      66   40845   40839
      66   40845   40842      67   40854   40851      66   40857   40851      66
   40857   40854      67   40866   40863      66   40869   40863      66   40869
   40866      67   40878   40875      66   40881   40875      66   40881   40878
      67   40890   40887      66   40893   40887      66   40893   40890      67
   40902   40899      66   40905   40899      66   40905   40902      67   40914
   40911      66   40917   40911      66   40917   40914      67   40926   40923
      66   40929   40923      66   40929   40926      67   40938   40935      66
   40941   40935      66   40941   40938      67   40950   40947      66   40953
   40947      66   40953   40950      67   40962   40959      66   40965   40959
      66   40965   40962      67   40974   40971      66   40977   40971      66
   40977   40974      67   40986   40983      66   40989   40983      66   40989
   40986      67   40998   40995      66   41001   40995      66   41001   40998
      67   41010   41007      66   41013   41007      66   41013   41010      67
   41022   41019      66   41025   41019      66   41025   41022      67   41034
   41031      66   41037   41031      66   41037   41034      67   41046   41043
      66   41049   41043      66   41049   41046      67   41058   41055      66
   41061   41055      66   41061   41058      67   41070   41067      66   41073
   41067      66   41073   41070      67   41082   41079      66   41085   41079
      66   41085   41082      67   41094   41091      66   41097   41091      66
   41097   41094      67   41106   41103      66   41109   41103      66   41109
   41106      67   41118   41115      66   41121   41115      66   41121   41118
      67   41130   41127      66   41133   41127      66   41133   41130      67
   41142   41139      66   41145   41139      66   41145   41142      67   41154
   41151      66   41157   41151      66   41157   41154      67   41166   41163
      66   41169   41163      66   41169   41166      67   41178   41175      66
   41181   41175      66   41181   41178      67   41190   41187      66   41193
   41187      66   41193   41190      67   41202   41199      66   41205   41199
      66   41205   41202      67   41214   41211      66   41217   41211      66
   41217   41214      67   41226   41223      66   41229   41223      66   41229
   41226      67   41238   41235      66   41241   41235      66   41241   41238
      67   41250   41247      66   41253   41247      66   41253   41250      67
   41262   41259      66   41265   41259      66   41265   41262      67   41274
   41271      66   41277   41271      66   41277   41274      67   41286   41283
      66   41289   41283      66   41289   41286      67   41298   41295      66
   41301   41295      66   41301   41298      67   41310   41307      66   41313
   41307      66   41313   41310      67   41322   41319      66   41325   41319
      66   41325   41322      67   41334   41331      66   41337   41331      66
   41337   41334      67   41346   41343      66   41349   41343      66   41349
   41346      67   41358   41355      66   41361   41355      66   41361   41358
      67   41370   41367      66   41373   41367      66   41373   41370      67
   41382   41379      66   41385   41379      66   41385   41382      67   41394
   41391      66   41397   41391      66   41397   41394      67   41406   41403
      66   41409   41403      66   41409   41406      67   41418   41415      66
   41421   41415      66   41421   41418      67   41430   41427      66   41433
   41427      66   41433   41430      67   41442   41439      66   41445   41439
      66   41445   41442      67   41454   41451      66   41457   41451      66
   41457   41454      67   41466   41463      66   41469   41463      66   41469
   41466      67   41478   41475      66   41481   41475      66   41481   41478
      67   41490   41487      66   41493   41487      66   41493   41490      67
   41502   41499      66   41505   41499      66   41505   41502      67   41514
   41511      66   41517   41511      66   41517   41514      67   41526   41523
      66   41529   41523      66   41529   41526      67   41538   41535      66
   41541   41535      66   41541   41538      67   41550   41547      66   41553
   41547      66   41553   41550      67   41562   41559      66   41565   41559
      66   41565   41562      67   41574   41571      66   41577   41571      66
   41577   41574      67   41586   41583      66   41589   41583      66   41589
   41586      67   41598   41595      66   41601   41595      66   41601   41598
      67   41610   41607      66   41613   41607      66   41613   41610      67
   41622   41619      66   41625   41619      66   41625   41622      67   41634
   41631      66   41637   41631      66   41637   41634      67   41646   41643
      66   41649   41643      66   41649   41646      67   41658   41655      66
   41661   41655      66   41661   41658      67   41670   41667      66   41673
   41667      66   41673   41670      67   41682   41679      66   41685   41679
      66   41685   41682      67   41694   41691      66   41697   41691      66
   41697   41694      67   41706   41703      66   41709   41703      66   41709
   41706      67   41718   41715      66   41721   41715      66   41721   41718
      67   41730   41727      66   41733   41727      66   41733   41730      67
   41742   41739      66   41745   41739      66   41745   41742      67   41754
   41751      66   41757   41751      66   41757   41754      67   41766   41763
      66   41769   41763      66   41769   41766      67   41778   41775      66
   41781   41775      66   41781   41778      67   41790   41787      66   41793
   41787      66   41793   41790      67   41802   41799      66   41805   41799
      66   41805   41802      67   41814   41811      66   41817   41811      66
   41817   41814      67   41826   41823      66   41829   41823      66   41829
   41826      67   41838   41835      66   41841   41835      66   41841   41838
      67   41850   41847      66   41853   41847      66   41853   41850      67
   41862   41859      66   41865   41859      66   41865   41862      67   41874
   41871      66   41877   41871      66   41877   41874      67   41886   41883
      66   41889   41883      66   41889   41886      67   41898   41895      66
   41901   41895      66   41901   41898      67   41910   41907      66   41913
   41907      66   41913   41910      67   41922   41919      66   41925   41919
      66   41925   41922      67   41934   41931      66   41937   41931      66
   41937   41934      67   41946   41943      66   41949   41943      66   41949
   41946      67   41958   41955      66   41961   41955      66   41961   41958
      67   41970   41967      66   41973   41967      66   41973   41970      67
   41982   41979      66   41985   41979      66   41985   41982      67   41994
   41991      66   41997   41991      66   41997   41994      67   42006   42003
      66   42009   42003      66   42009   42006      67   42018   42015      66
   42021   42015      66   42021   42018      67   42030   42027      66   42033
   42027      66   42033   42030      67   42042   42039      66   42045   42039
      66   42045   42042      67   42054   42051      66   42057   42051      66
   42057   42054      67   42066   42063      66   42069   42063      66   42069
   42066      67   42078   42075      66   42081   42075      66   42081   42078
      67   42090   42087      66   42093   42087      66   42093   42090      67
   42102   42099      66   42105   42099      66   42105   42102      67   42114
   42111      66   42117   42111      66   42117   42114      67   42126   42123
      66   42129   42123      66   42129   42126      67   42138   42135      66
   42141   42135      66   42141   42138      67   42150   42147      66   42153
   42147      66   42153   42150      67   42162   42159      66   42165   42159
      66   42165   42162      67   42174   42171      66   42177   42171      66
   42177   42174      67   42186   42183      66   42189   42183      66   42189
   42186      67   42198   42195      66   42201   42195      66   42201   42198
      67   42210   42207      66   42213   42207      66   42213   42210      67
   42222   42219      66   42225   42219      66   42225   42222      67   42234
   42231      66   42237   42231      66   42237   42234      67   42246   42243
      66   42249   42243      66   42249   42246      67   42258   42255      66
   42261   42255      66   42261   42258      67   42270   42267      66   42273
   42267      66   42273   42270      67   42282   42279      66   42285   42279
      66   42285   42282      67   42294   42291      66   42297   42291      66
   42297   42294      67   42306   42303      66   42309   42303      66   42309
   42306      67   42318   42315      66   42321   42315      66   42321   42318
      67   42330   42327      66   42333   42327      66   42333   42330      67
   42342   42339      66   42345   42339      66   42345   42342      67   42354
   42351      66   42357   42351      66   42357   42354      67   42366   42363
      66   42369   42363      66   42369   42366      67   42378   42375      66
   42381   42375      66   42381   42378      67   42390   42387      66   42393
   42387      66   42393   42390      67   42402   42399      66   42405   42399
      66   42405   42402      67   42414   42411      66   42417   42411      66
   42417   42414      67   42426   42423      66   42429   42423      66   42429
   42426      67   42438   42435      66   42441   42435      66   42441   42438
      67   42450   42447      66   42453   42447      66   42453   42450      67
   42462   42459      66   42465   42459      66   42465   42462      67   42474
   42471      66   42477   42471      66   42477   42474      67   42486   42483
      66   42489   42483      66   42489   42486      67   42498   42495      66
   42501   42495      66   42501   42498      67   42510   42507      66   42513
   42507      66   42513   42510      67   42522   42519      66   42525   42519
      66   42525   42522      67   42534   42531      66   42537   42531      66
   42537   42534      67   42546   42543      66   42549   42543      66   42549
   42546      67   42558   42555      66   42561   42555      66   42561   42558
      67   42570   42567      66   42573   42567      66   42573   42570      67
   42582   42579      66   42585   42579      66   42585   42582      67   42594
   42591      66   42597   42591      66   42597   42594      67   42606   42603
      66   42609   42603      66   42609   42606      67   42618   42615      66
   42621   42615      66   42621   42618      67   42630   42627      66   42633
   42627      66   42633   42630      67   42642   42639      66   42645   42639
      66   42645   42642      67   42654   42651      66   42657   42651      66
   42657   42654      67   42666   42663      66   42669   42663      66   42669
   42666      67   42678   42675      66   42681   42675      66   42681   42678
      67   42690   42687      66   42693   42687      66   42693   42690      67
   42702   42699      66   42705   42699      66   42705   42702      67   42714
   42711      66   42717   42711      66   42717   42714      67   42726   42723
      66   42729   42723      66   42729   42726      67   42738   42735      66
   42741   42735      66   42741   42738      67   42750   42747      66   42753
   42747      66   42753   42750      67   42762   42759      66   42765   42759
      66   42765   42762      67   42774   42771      66   42777   42771      66
   42777   42774      67   42786   42783      66   42789   42783      66   42789
   42786      67   42798   42795      66   42801   42795      66   42801   42798
      67   42810   42807      66   42813   42807      66   42813   42810      67
   42822   42819      66   42825   42819      66   42825   42822      67   42834
   42831      66   42837   42831      66   42837   42834      67   42846   42843
      66   42849   42843      66   42849   42846      67   42858   42855      66
   42861   42855      66   42861   42858      67   42870   42867      66   42873
   42867      66   42873   42870      67   42882   42879      66   42885   42879
      66   42885   42882      67   42894   42891      66   42897   42891      66
   42897   42894      67   42906   42903      66   42909   42903      66   42909
   42906      67   42918   42915      66   42921   42915      66   42921   42918
      67   42930   42927      66   42933   42927      66   42933   42930      67
   42942   42939      66   42945   42939      66   42945   42942      67   42954
   42951      66   42957   42951      66   42957   42954      67   42966   42963
      66   42969   42963      66   42969   42966      67   42978   42975      66
   42981   42975      66   42981   42978      67   42990   42987      66   42993
   42987      66   42993   42990      67   43002   42999      66   43005   42999
      66   43005   43002      67   43014   43011      66   43017   43011      66
   43017   43014      67   43026   43023      66   43029   43023      66   43029
   43026      67   43038   43035      66   43041   43035      66   43041   43038
      67   43050   43047      66   43053   43047      66   43053   43050      67
   43062   43059      66   43065   43059      66   43065   43062      67   43074
   43071      66   43077   43071      66   43077   43074      67   43086   43083
      66   43089   43083      66   43089   43086      67   43098   43095      66
   43101   43095      66   43101   43098      67   43110   43107      66   43113
   43107      66   43113   43110      67   43122   43119      66   43125   43119
      66   43125   43122      67   43134   43131      66   43137   43131      66
   43137   43134      67   43146   43143      66   43149   43143      66   43149
   43146      67   43158   43155      66   43161   43155      66   43161   43158
      67   43170   43167      66   43173   43167      66   43173   43170      67
   43182   43179      66   43185   43179      66   43185   43182      67   43194
   43191      66   43197   43191      66   43197   43194      67   43206   43203
      66   43209   43203      66   43209   43206      67   43218   43215      66
   43221   43215      66   43221   43218      67   43230   43227      66   43233
   43227      66   43233   43230      67   43242   43239      66   43245   43239
      66   43245   43242      67   43254   43251      66   43257   43251      66
   43257   43254      67   43266   43263      66   43269   43263      66   43269
   43266      67   43278   43275      66   43281   43275      66   43281   43278
      67   43290   43287      66   43293   43287      66   43293   43290      67
   43302   43299      66   43305   43299      66   43305   43302      67   43314
   43311      66   43317   43311      66   43317   43314      67   43326   43323
      66   43329   43323      66   43329   43326      67   43338   43335      66
   43341   43335      66   43341   43338      67   43350   43347      66   43353
   43347      66   43353   43350      67   43362   43359      66   43365   43359
      66   43365   43362      67   43374   43371      66   43377   43371      66
   43377   43374      67   43386   43383      66   43389   43383      66   43389
   43386      67   43398   43395      66   43401   43395      66   43401   43398
      67   43410   43407      66   43413   43407      66   43413   43410      67
   43422   43419      66   43425   43419      66   43425   43422      67   43434
   43431      66   43437   43431      66   43437   43434      67   43446   43443
      66   43449   43443      66   43449   43446      67   43458   43455      66
   43461   43455      66   43461   43458      67   43470   43467      66   43473
   43467      66   43473   43470      67   43482   43479      66   43485   43479
      66   43485   43482      67   43494   43491      66   43497   43491      66
   43497   43494      67   43506   43503      66   43509   43503      66   43509
   43506      67   43518   43515      66   43521   43515      66   43521   43518
      67   43530   43527      66   43533   43527      66   43533   43530      67
   43542   43539      66   43545   43539      66   43545   43542      67   43554
   43551      66   43557   43551      66   43557   43554      67   43566   43563
      66   43569   43563      66   43569   43566      67   43578   43575      66
   43581   43575      66   43581   43578      67   43590   43587      66   43593
   43587      66   43593   43590      67   43602   43599      66   43605   43599
      66   43605   43602      67   43614   43611      66   43617   43611      66
   43617   43614      67   43626   43623      66   43629   43623      66   43629
   43626      67   43638   43635      66   43641   43635      66   43641   43638
      67   43650   43647      66   43653   43647      66   43653   43650      67
   43662   43659      66   43665   43659      66   43665   43662      67   43674
   43671      66   43677   43671      66   43677   43674      67   43686   43683
      66   43689   43683      66   43689   43686      67   43698   43695      66
   43701   43695      66   43701   43698      67   43710   43707      66   43713
   43707      66   43713   43710      67   43722   43719      66   43725   43719
      66   43725   43722      67   43734   43731      66   43737   43731      66
   43737   43734      67   43746   43743      66   43749   43743      66   43749
   43746      67   43758   43755      66   43761   43755      66   43761   43758
      67   43770   43767      66   43773   43767      66   43773   43770      67
   43782   43779      66   43785   43779      66   43785   43782      67   43794
   43791      66   43797   43791      66   43797   43794      67   43806   43803
      66   43809   43803      66   43809   43806      67   43818   43815      66
   43821   43815      66   43821   43818      67   43830   43827      66   43833
   43827      66   43833   43830      67   43842   43839      66   43845   43839
      66   43845   43842      67   43854   43851      66   43857   43851      66
   43857   43854      67   43866   43863      66   43869   43863      66   43869
   43866      67   43878   43875      66   43881   43875      66   43881   43878
      67   43890   43887      66   43893   43887      66   43893   43890      67
   43902   43899      66   43905   43899      66   43905   43902      67   43914
   43911      66   43917   43911      66   43917   43914      67   43926   43923
      66   43929   43923      66   43929   43926      67   43938   43935      66
   43941   43935      66   43941   43938      67   43950   43947      66   43953
   43947      66   43953   43950      67   43962   43959      66   43965   43959
      66   43965   43962      67   43974   43971      66   43977   43971      66
   43977   43974      67   43986   43983      66   43989   43983      66   43989
   43986      67   43998   43995      66   44001   43995      66   44001   43998
      67   44010   44007      66   44013   44007      66   44013   44010      67
   44022   44019      66   44025   44019      66   44025   44022      67   44034
   44031      66   44037   44031      66   44037   44034      67   44046   44043
      66   44049   44043      66   44049   44046      67   44058   44055      66
   44061   44055      66   44061   44058      67   44070   44067      66   44073
   44067      66   44073   44070      67   44082   44079      66   44085   44079
      66   44085   44082      67   44094   44091      66   44097   44091      66
   44097   44094      67   44106   44103      66   44109   44103      66   44109
   44106      67   44118   44115      66   44121   44115      66   44121   44118
      67   44130   44127      66   44133   44127      66   44133   44130      67
   44142   44139      66   44145   44139      66   44145   44142      67   44154
   44151      66   44157   44151      66   44157   44154      67   44166   44163
      66   44169   44163      66   44169   44166      67   44178   44175      66
   44181   44175      66   44181   44178      67   44190   44187      66   44193
   44187      66   44193   44190      67   44202   44199      66   44205   44199
      66   44205   44202      67   44214   44211      66   44217   44211      66
   44217   44214      67   44226   44223      66   44229   44223      66   44229
   44226      67   44238   44235      66   44241   44235      66   44241   44238
      67   44250   44247      66   44253   44247      66   44253   44250      67
   44262   44259      66   44265   44259      66   44265   44262      67   44274
   44271      66   44277   44271      66   44277   44274      67   44286   44283
      66   44289   44283      66   44289   44286      67   44298   44295      66
   44301   44295      66   44301   44298      67   44310   44307      66   44313
   44307      66   44313   44310      67   44322   44319      66   44325   44319
      66   44325   44322      67   44334   44331      66   44337   44331      66
   44337   44334      67   44346   44343      66   44349   44343      66   44349
   44346      67   44358   44355      66   44361   44355      66   44361   44358
      67   44370   44367      66   44373   44367      66   44373   44370      67
   44382   44379      66   44385   44379      66   44385   44382      67   44394
   44391      66   44397   44391      66   44397   44394      67   44406   44403
      66   44409   44403      66   44409   44406      67   44418   44415      66
   44421   44415      66   44421   44418      67   44430   44427      66   44433
   44427      66   44433   44430      67   44442   44439      66   44445   44439
      66   44445   44442      67   44454   44451      66   44457   44451      66
   44457   44454      67   44466   44463      66   44469   44463      66   44469
   44466      67   44478   44475      66   44481   44475      66   44481   44478
      67   44490   44487      66   44493   44487      66   44493   44490      67
   44502   44499      66   44505   44499      66   44505   44502      67   44514
   44511      66   44517   44511      66   44517   44514      67   44526   44523
      66   44529   44523      66   44529   44526      67   44538   44535      66
   44541   44535      66   44541   44538      67   44550   44547      66   44553
   44547      66   44553   44550      67   44562   44559      66   44565   44559
      66   44565   44562      67   44574   44571      66   44577   44571      66
   44577   44574      67   44586   44583      66   44589   44583      66   44589
   44586      67   44598   44595      66   44601   44595      66   44601   44598
      67   44610   44607      66   44613   44607      66   44613   44610      67
   44622   44619      66   44625   44619      66   44625   44622      67   44634
   44631      66   44637   44631      66   44637   44634      67   44646   44643
      66   44649   44643      66   44649   44646      67   44658   44655      66
   44661   44655      66   44661   44658      67   44670   44667      66   44673
   44667      66   44673   44670      67   44682   44679      66   44685   44679
      66   44685   44682      67   44694   44691      66   44697   44691      66
   44697   44694      67   44706   44703      66   44709   44703      66   44709
   44706      67   44718   44715      66   44721   44715      66   44721   44718
      67   44730   44727      66   44733   44727      66   44733   44730      67
   44742   44739      66   44745   44739      66   44745   44742      67   44754
   44751      66   44757   44751      66   44757   44754      67   44766   44763
      66   44769   44763      66   44769   44766      67   44778   44775      66
   44781   44775      66   44781   44778      67   44790   44787      66   44793
   44787      66   44793   44790      67   44802   44799      66   44805   44799
      66   44805   44802      67   44814   44811      66   44817   44811      66
   44817   44814      67   44826   44823      66   44829   44823      66   44829
   44826      67   44838   44835      66   44841   44835      66   44841   44838
      67   44850   44847      66   44853   44847      66   44853   44850      67
   44862   44859      66   44865   44859      66   44865   44862      67   44874
   44871      66   44877   44871      66   44877   44874      67   44886   44883
      66   44889   44883      66   44889   44886      67   44898   44895      66
   44901   44895      66   44901   44898      67   44910   44907      66   44913
   44907      66   44913   44910      67   44922   44919      66   44925   44919
      66   44925   44922      67   44934   44931      66   44937   44931      66
   44937   44934      67   44946   44943      66   44949   44943      66   44949
   44946      67   44958   44955      66   44961   44955      66   44961   44958
      67   44970   44967      66   44973   44967      66   44973   44970      67
   44982   44979      66   44985   44979      66   44985   44982      67   44994
   44991      66   44997   44991      66   44997   44994      67   45006   45003
      66   45009   45003      66   45009   45006      67   45018   45015      66
   45021   45015      66   45021   45018      67   45030   45027      66   45033
   45027      66   45033   45030      67   45042   45039      66   45045   45039
      66   45045   45042      67   45054   45051      66   45057   45051      66
   45057   45054      67   45066   45063      66   45069   45063      66   45069
   45066      67   45078   45075      66   45081   45075      66   45081   45078
      67   45090   45087      66   45093   45087      66   45093   45090      67
   45102   45099      66   45105   45099      66   45105   45102      67   45114
   45111      66   45117   45111      66   45117   45114      67   45126   45123
      66   45129   45123      66   45129   45126      67   45138   45135      66
   45141   45135      66   45141   45138      67   45150   45147      66   45153
   45147      66   45153   45150      67   45162   45159      66   45165   45159
      66   45165   45162      67   45174   45171      66   45177   45171      66
   45177   45174      67   45186   45183      66   45189   45183      66   45189
   45186      67   45198   45195      66   45201   45195      66   45201   45198
      67   45210   45207      66   45213   45207      66   45213   45210      67
   45222   45219      66   45225   45219      66   45225   45222      67   45234
   45231      66   45237   45231      66   45237   45234      67   45246   45243
      66   45249   45243      66   45249   45246      67   45258   45255      66
   45261   45255      66   45261   45258      67   45270   45267      66   45273
   45267      66   45273   45270      67   45282   45279      66   45285   45279
      66   45285   45282      67   45294   45291      66   45297   45291      66
   45297   45294      67   45306   45303      66   45309   45303      66   45309
   45306      67   45318   45315      66   45321   45315      66   45321   45318
      67   45330   45327      66   45333   45327      66   45333   45330      67
   45342   45339      66   45345   45339      66   45345   45342      67   45354
   45351      66   45357   45351      66   45357   45354      67   45366   45363
      66   45369   45363      66   45369   45366      67   45378   45375      66
   45381   45375      66   45381   45378      67   45390   45387      66   45393
   45387      66   45393   45390      67   45402   45399      66   45405   45399
      66   45405   45402      67   45414   45411      66   45417   45411      66
   45417   45414      67   45426   45423      66   45429   45423      66   45429
   45426      67   45438   45435      66   45441   45435      66   45441   45438
      67   45450   45447      66   45453   45447      66   45453   45450      67
   45462   45459      66   45465   45459      66   45465   45462      67   45474
   45471      66   45477   45471      66   45477   45474      67   45486   45483
      66   45489   45483      66   45489   45486      67   45498   45495      66
   45501   45495      66   45501   45498      67   45510   45507      66   45513
   45507      66   45513   45510      67   45522   45519      66   45525   45519
      66   45525   45522      67   45534   45531      66   45537   45531      66
   45537   45534      67   45546   45543      66   45549   45543      66   45549
   45546      67   45558   45555      66   45561   45555      66   45561   45558
      67   45570   45567      66   45573   45567      66   45573   45570      67
   45582   45579      66   45585   45579      66   45585   45582      67   45594
   45591      66   45597   45591      66   45597   45594      67   45606   45603
      66   45609   45603      66   45609   45606      67   45618   45615      66
   45621   45615      66   45621   45618      67   45630   45627      66   45633
   45627      66   45633   45630      67   45642   45639      66   45645   45639
      66   45645   45642      67   45654   45651      66   45657   45651      66
   45657   45654      67   45666   45663      66   45669   45663      66   45669
   45666      67   45678   45675      66   45681   45675      66   45681   45678
      67   45690   45687      66   45693   45687      66   45693   45690      67
   45702   45699      66   45705   45699      66   45705   45702      67   45714
   45711      66   45717   45711      66   45717   45714      67   45726   45723
      66   45729   45723      66   45729   45726      67   45738   45735      66
   45741   45735      66   45741   45738      67   45750   45747      66   45753
   45747      66   45753   45750      67   45762   45759      66   45765   45759
      66   45765   45762      67   45774   45771      66   45777   45771      66
   45777   45774      67   45786   45783      66   45789   45783      66   45789
   45786      67   45798   45795      66   45801   45795      66   45801   45798
      67   45810   45807      66   45813   45807      66   45813   45810      67
   45822   45819      66   45825   45819      66   45825   45822      67   45834
   45831      66   45837   45831      66   45837   45834      67   45846   45843
      66   45849   45843      66   45849   45846      67   45858   45855      66
   45861   45855      66   45861   45858      67   45870   45867      66   45873
   45867      66   45873   45870      67   45882   45879      66   45885   45879
      66   45885   45882      67   45894   45891      66   45897   45891      66
   45897   45894      67   45906   45903      66   45909   45903      66   45909
   45906      67   45918   45915      66   45921   45915      66   45921   45918
      67   45930   45927      66   45933   45927      66   45933   45930      67
   45942   45939      66   45945   45939      66   45945   45942      67   45954
   45951      66   45957   45951      66   45957   45954      67   45966   45963
      66   45969   45963      66   45969   45966      67   45978   45975      66
   45981   45975      66   45981   45978      67   45990   45987      66   45993
   45987      66   45993   45990      67   46002   45999      66   46005   45999
      66   46005   46002      67   46014   46011      66   46017   46011      66
   46017   46014      67   46026   46023      66   46029   46023      66   46029
   46026      67   46038   46035      66   46041   46035      66   46041   46038
      67   46050   46047      66   46053   46047      66   46053   46050      67
   46062   46059      66   46065   46059      66   46065   46062      67   46074
   46071      66   46077   46071      66   46077   46074      67   46086   46083
      66   46089   46083      66   46089   46086      67   46098   46095      66
   46101   46095      66   46101   46098      67   46110   46107      66   46113
   46107      66   46113   46110      67   46122   46119      66   46125   46119
      66   46125   46122      67   46134   46131      66   46137   46131      66
   46137   46134      67   46146   46143      66   46149   46143      66   46149
   46146      67   46158   46155      66   46161   46155      66   46161   46158
      67   46170   46167      66   46173   46167      66   46173   46170      67
   46182   46179      66   46185   46179      66   46185   46182      67   46194
   46191      66   46197   46191      66   46197   46194      67   46206   46203
      66   46209   46203      66   46209   46206      67   46218   46215      66
   46221   46215      66   46221   46218      67   46230   46227      66   46233
   46227      66   46233   46230      67   46242   46239      66   46245   46239
      66   46245   46242      67   46254   46251      66   46257   46251      66
   46257   46254      67   46266   46263      66   46269   46263      66   46269
   46266      67   46278   46275      66   46281   46275      66   46281   46278
      67   46290   46287      66   46293   46287      66   46293   46290      67
   46302   46299      66   46305   46299      66   46305   46302      67   46314
   46311      66   46317   46311      66   46317   46314      67   46326   46323
      66   46329   46323      66   46329   46326      67   46338   46335      66
   46341   46335      66   46341   46338      67   46350   46347      66   46353
   46347      66   46353   46350      67   46362   46359      66   46365   46359
      66   46365   46362      67   46374   46371      66   46377   46371      66
   46377   46374      67   46386   46383      66   46389   46383      66   46389
   46386      67   46398   46395      66   46401   46395      66   46401   46398
      67   46410   46407      66   46413   46407      66   46413   46410      67
   46422   46419      66   46425   46419      66   46425   46422      67   46434
   46431      66   46437   46431      66   46437   46434      67   46446   46443
      66   46449   46443      66   46449   46446      67   46458   46455      66
   46461   46455      66   46461   46458      67   46470   46467      66   46473
   46467      66   46473   46470      67   46482   46479      66   46485   46479
      66   46485   46482      67   46494   46491      66   46497   46491      66
   46497   46494      67   46506   46503      66   46509   46503      66   46509
   46506      67   46518   46515      66   46521   46515      66   46521   46518
      67   46530   46527      66   46533   46527      66   46533   46530      67
   46542   46539      66   46545   46539      66   46545   46542      67   46554
   46551      66   46557   46551      66   46557   46554      67   46566   46563
      66   46569   46563      66   46569   46566      67   46578   46575      66
   46581   46575      66   46581   46578      67   46590   46587      66   46593
   46587      66   46593   46590      67   46602   46599      66   46605   46599
      66   46605   46602      67   46614   46611      66   46617   46611      66
   46617   46614      67   46626   46623      66   46629   46623      66   46629
   46626      67   46638   46635      66   46641   46635      66   46641   46638
      67   46650   46647      66   46653   46647      66   46653   46650      67
   46662   46659      66   46665   46659      66   46665   46662      67   46674
   46671      66   46677   46671      66   46677   46674      67   46686   46683
      66   46689   46683      66   46689   46686      67   46698   46695      66
   46701   46695      66   46701   46698      67   46710   46707      66   46713
   46707      66   46713   46710      67   46722   46719      66   46725   46719
      66   46725   46722      67   46734   46731      66   46737   46731      66
   46737   46734      67   46746   46743      66   46749   46743      66   46749
   46746      67   46758   46755      66   46761   46755      66   46761   46758
      67   46770   46767      66   46773   46767      66   46773   46770      67
   46782   46779      66   46785   46779      66   46785   46782      67   46794
   46791      66   46797   46791      66   46797   46794      67   46806   46803
      66   46809   46803      66   46809   46806      67   46818   46815      66
   46821   46815      66   46821   46818      67   46830   46827      66   46833
   46827      66   46833   46830      67   46842   46839      66   46845   46839
      66   46845   46842      67   46854   46851      66   46857   46851      66
   46857   46854      67   46866   46863      66   46869   46863      66   46869
   46866      67   46878   46875      66   46881   46875      66   46881   46878
      67   46890   46887      66   46893   46887      66   46893   46890      67
   46902   46899      66   46905   46899      66   46905   46902      67   46914
   46911      66   46917   46911      66   46917   46914      67   46926   46923
      66   46929   46923      66   46929   46926      67   46938   46935      66
   46941   46935      66   46941   46938      67   46950   46947      66   46953
   46947      66   46953   46950      67   46962   46959      66   46965   46959
      66   46965   46962      67   46974   46971      66   46977   46971      66
   46977   46974      67   46986   46983      66   46989   46983      66   46989
   46986      67   46998   46995      66   47001   46995      66   47001   46998
      67   47010   47007      66   47013   47007      66   47013   47010      67
   47022   47019      66   47025   47019      66   47025   47022      67   47034
   47031      66   47037   47031      66   47037   47034      67   47046   47043
      66   47049   47043      66   47049   47046      67   47058   47055      66
   47061   47055      66   47061   47058      67   47070   47067      66   47073
   47067      66   47073   47070      67   47082   47079      66   47085   47079
      66   47085   47082      67   47094   47091      66   47097   47091      66
   47097   47094      67   47106   47103      66   47109   47103      66   47109
   47106      67   47118   47115      66   47121   47115      66   47121   47118
      67   47130   47127      66   47133   47127      66   47133   47130      67
   47142   47139      66   47145   47139      66   47145   47142      67   47154
   47151      66   47157   47151      66   47157   47154      67   47166   47163
      66   47169   47163      66   47169   47166      67   47178   47175      66
   47181   47175      66   47181   47178      67   47190   47187      66   47193
   47187      66   47193   47190      67   47202   47199      66   47205   47199
      66   47205   47202      67   47214   47211      66   47217   47211      66
   47217   47214      67   47226   47223      66   47229   47223      66   47229
   47226      67   47238   47235      66   47241   47235      66   47241   47238
      67   47250   47247      66   47253   47247      66   47253   47250      67
   47262   47259      66   47265   47259      66   47265   47262      67   47274
   47271      66   47277   47271      66   47277   47274      67   47286   47283
      66   47289   47283      66   47289   47286      67   47298   47295      66
   47301   47295      66   47301   47298      67   47310   47307      66   47313
   47307      66   47313   47310      67   47322   47319      66   47325   47319
      66   47325   47322      67   47334   47331      66   47337   47331      66
   47337   47334      67   47346   47343      66   47349   47343      66   47349
   47346      67   47358   47355      66   47361   47355      66   47361   47358
      67   47370   47367      66   47373   47367      66   47373   47370      67
   47382   47379      66   47385   47379      66   47385   47382      67   47394
   47391      66   47397   47391      66   47397   47394      67   47406   47403
      66   47409   47403      66   47409   47406      67   47418   47415      66
   47421   47415      66   47421   47418      67   47430   47427      66   47433
   47427      66   47433   47430      67   47442   47439      66   47445   47439
      66   47445   47442      67   47454   47451      66   47457   47451      66
   47457   47454      67   47466   47463      66   47469   47463      66   47469
   47466      67   47478   47475      66   47481   47475      66   47481   47478
      67   47490   47487      66   47493   47487      66   47493   47490      67
   47502   47499      66   47505   47499      66   47505   47502      67   47514
   47511      66   47517   47511      66   47517   47514      67   47526   47523
      66   47529   47523      66   47529   47526      67   47538   47535      66
   47541   47535      66   47541   47538      67   47550   47547      66   47553
   47547      66   47553   47550      67   47562   47559      66   47565   47559
      66   47565   47562      67   47574   47571      66   47577   47571      66
   47577   47574      67   47586   47583      66   47589   47583      66   47589
   47586      67   47598   47595      66   47601   47595      66   47601   47598
      67   47610   47607      66   47613   47607      66   47613   47610      67
   47622   47619      66   47625   47619      66   47625   47622      67   47634
   47631      66   47637   47631      66   47637   47634      67   47646   47643
      66   47649   47643      66   47649   47646      67   47658   47655      66
   47661   47655      66   47661   47658      67   47670   47667      66   47673
   47667      66   47673   47670      67   47682   47679      66   47685   47679
      66   47685   47682      67   47694   47691      66   47697   47691      66
   47697   47694      67   47706   47703      66   47709   47703      66   47709
   47706      67   47718   47715      66   47721   47715      66   47721   47718
      67   47730   47727      66   47733   47727      66   47733   47730      67
   47742   47739      66   47745   47739      66   47745   47742      67   47754
   47751      66   47757   47751      66   47757   47754      67   47766   47763
      66   47769   47763      66   47769   47766      67   47778   47775      66
   47781   47775      66   47781   47778      67   47790   47787      66   47793
   47787      66   47793   47790      67   47802   47799      66   47805   47799
      66   47805   47802      67   47814   47811      66   47817   47811      66
   47817   47814      67   47826   47823      66   47829   47823      66   47829
   47826      67   47838   47835      66   47841   47835      66   47841   47838
      67   47850   47847      66   47853   47847      66   47853   47850      67
   47862   47859      66   47865   47859      66   47865   47862      67   47874
   47871      66   47877   47871      66   47877   47874      67   47886   47883
      66   47889   47883      66   47889   47886      67   47898   47895      66
   47901   47895      66   47901   47898      67   47910   47907      66   47913
   47907      66   47913   47910      67   47922   47919      66   47925   47919
      66   47925   47922      67   47934   47931      66   47937   47931      66
   47937   47934      67   47946   47943      66   47949   47943      66   47949
   47946      67   47958   47955      66   47961   47955      66   47961   47958
      67   47970   47967      66   47973   47967      66   47973   47970      67
   47982   47979      66   47985   47979      66   47985   47982      67   47994
   47991      66   47997   47991      66   47997   47994      67   48006   48003
      66   48009   48003      66   48009   48006      67   48018   48015      66
   48021   48015      66   48021   48018      67   48030   48027      66   48033
   48027      66   48033   48030      67   48042   48039      66   48045   48039
      66   48045   48042      67   48054   48051      66   48057   48051      66
   48057   48054      67   48066   48063      66   48069   48063      66   48069
   48066      67   48078   48075      66   48081   48075      66   48081   48078
      67   48090   48087      66   48093   48087      66   48093   48090      67
   48102   48099      66   48105   48099      66   48105   48102      67   48114
   48111      66   48117   48111      66   48117   48114      67   48126   48123
      66   48129   48123      66   48129   48126      67   48138   48135      66
   48141   48135      66   48141   48138      67   48150   48147      66   48153
   48147      66   48153   48150      67   48162   48159      66   48165   48159
      66   48165   48162      67   48174   48171      66   48177   48171      66
   48177   48174      67   48186   48183      66   48189   48183      66   48189
   48186      67   48198   48195      66   48201   48195      66   48201   48198
      67   48210   48207      66   48213   48207      66   48213   48210      67
   48222   48219      66   48225   48219      66   48225   48222      67   48234
   48231      66   48237   48231      66   48237   48234      67   48246   48243
      66   48249   48243      66   48249   48246      67   48258   48255      66
   48261   48255      66   48261   48258      67   48270   48267      66   48273
   48267      66   48273   48270      67   48282   48279      66   48285   48279
      66   48285   48282      67   48294   48291      66   48297   48291      66
   48297   48294      67   48306   48303      66   48309   48303      66   48309
   48306      67   48318   48315      66   48321   48315      66   48321   48318
      67   48330   48327      66   48333   48327      66   48333   48330      67
   48342   48339      66   48345   48339      66   48345   48342      67   48354
   48351      66   48357   48351      66   48357   48354      67   48366   48363
      66   48369   48363      66   48369   48366      67   48378   48375      66
   48381   48375      66   48381   48378      67   48390   48387      66   48393
   48387      66   48393   48390      67   48402   48399      66   48405   48399
      66   48405   48402      67   48414   48411      66   48417   48411      66
   48417   48414      67   48426   48423      66   48429   48423      66   48429
   48426      67   48438   48435      66   48441   48435      66   48441   48438
      67   48450   48447      66   48453   48447      66   48453   48450      67
   48462   48459      66   48465   48459      66   48465   48462      67   48474
   48471      66   48477   48471      66   48477   48474      67   48486   48483
      66   48489   48483      66   48489   48486      67   48498   48495      66
   48501   48495      66   48501   48498      67   48510   48507      66   48513
   48507      66   48513   48510      67   48522   48519      66   48525   48519
      66   48525   48522      67   48534   48531      66   48537   48531      66
   48537   48534      67   48546   48543      66   48549   48543      66   48549
   48546      67   48558   48555      66   48561   48555      66   48561   48558
      67   48570   48567      66   48573   48567      66   48573   48570      67
   48582   48579      66   48585   48579      66   48585   48582      67   48594
   48591      66   48597   48591      66   48597   48594      67   48606   48603
      66   48609   48603      66   48609   48606      67   48618   48615      66
   48621   48615      66   48621   48618      67   48630   48627      66   48633
   48627      66   48633   48630      67   48642   48639      66   48645   48639
      66   48645   48642      67   48654   48651      66   48657   48651      66
   48657   48654      67   48666   48663      66   48669   48663      66   48669
   48666      67   48678   48675      66   48681   48675      66   48681   48678
      67   48690   48687      66   48693   48687      66   48693   48690      67
   48702   48699      66   48705   48699      66   48705   48702      67   48714
   48711      66   48717   48711      66   48717   48714      67   48726   48723
      66   48729   48723      66   48729   48726      67   48738   48735      66
   48741   48735      66   48741   48738      67   48750   48747      66   48753
   48747      66   48753   48750      67   48762   48759      66   48765   48759
      66   48765   48762      67   48774   48771      66   48777   48771      66
   48777   48774      67   48786   48783      66   48789   48783      66   48789
   48786      67   48798   48795      66   48801   48795      66   48801   48798
      67   48810   48807      66   48813   48807      66   48813   48810      67
   48822   48819      66   48825   48819      66   48825   48822      67   48834
   48831      66   48837   48831      66   48837   48834      67   48846   48843
      66   48849   48843      66   48849   48846      67   48858   48855      66
   48861   48855      66   48861   48858      67   48870   48867      66   48873
   48867      66   48873   48870      67   48882   48879      66   48885   48879
      66   48885   48882      67   48894   48891      66   48897   48891      66
   48897   48894      67   48906   48903      66   48909   48903      66   48909
   48906      67   48918   48915      66   48921   48915      66   48921   48918
      67   48930   48927      66   48933   48927      66   48933   48930      67
   48942   48939      66   48945   48939      66   48945   48942      67   48954
   48951      66   48957   48951      66   48957   48954      67   48966   48963
      66   48969   48963      66   48969   48966      67   48978   48975      66
   48981   48975      66   48981   48978      67   48990   48987      66   48993
   48987      66   48993   48990      67   49002   48999      66   49005   48999
      66   49005   49002      67   49014   49011      66   49017   49011      66
   49017   49014      67   49026   49023      66   49029   49023      66   49029
   49026      67   49038   49035      66   49041   49035      66   49041   49038
      67   49050   49047      66   49053   49047      66   49053   49050      67
   49062   49059      66   49065   49059      66   49065   49062      67   49074
   49071      66   49077   49071      66   49077   49074      67   49086   49083
      66   49089   49083      66   49089   49086      67   49098   49095      66
   49101   49095      66   49101   49098      67   49110   49107      66   49113
   49107      66   49113   49110      67   49122   49119      66   49125   49119
      66   49125   49122      67   49134   49131      66   49137   49131      66
   49137   49134      67   49146   49143      66   49149   49143      66   49149
   49146      67   49158   49155      66   49161   49155      66   49161   49158
      67   49170   49167      66   49173   49167      66   49173   49170      67
   49182   49179      66   49185   49179      66   49185   49182      67   49194
   49191      66   49197   49191      66   49197   49194      67   49206   49203
      66   49209   49203      66   49209   49206      67   49218   49215      66
   49221   49215      66   49221   49218      67   49230   49227      66   49233
   49227      66   49233   49230      67   49242   49239      66   49245   49239
      66   49245   49242      67   49254   49251      66   49257   49251      66
   49257   49254      67   49266   49263      66   49269   49263      66   49269
   49266      67   49278   49275      66   49281   49275      66   49281   49278
      67   49290   49287      66   49293   49287      66   49293   49290      67
   49302   49299      66   49305   49299      66   49305   49302      67   49314
   49311      66   49317   49311      66   49317   49314      67   49326   49323
      66   49329   49323      66   49329   49326      67   49338   49335      66
   49341   49335      66   49341   49338      67   49350   49347      66   49353
   49347      66   49353   49350      67   49362   49359      66   49365   49359
      66   49365   49362      67   49374   49371      66   49377   49371      66
   49377   49374      67   49386   49383      66   49389   49383      66   49389
   49386      67   49398   49395      66   49401   49395      66   49401   49398
      67   49410   49407      66   49413   49407      66   49413   49410      67
   49422   49419      66   49425   49419      66   49425   49422      67   49434
   49431      66   49437   49431      66   49437   49434      67   49446   49443
      66   49449   49443      66   49449   49446      67   49458   49455      66
   49461   49455      66   49461   49458      67   49470   49467      66   49473
   49467      66   49473   49470      67   49482   49479      66   49485   49479
      66   49485   49482      67   49494   49491      66   49497   49491      66
   49497   49494      67   49506   49503      66   49509   49503      66   49509
   49506      67   49518   49515      66   49521   49515      66   49521   49518
      67   49530   49527      66   49533   49527      66   49533   49530      67
   49542   49539      66   49545   49539      66   49545   49542      67   49554
   49551      66   49557   49551      66   49557   49554      67   49566   49563
      66   49569   49563      66   49569   49566      67   49578   49575      66
   49581   49575      66   49581   49578      67   49590   49587      66   49593
   49587      66   49593   49590      67   49602   49599      66   49605   49599
      66   49605   49602      67   49614   49611      66   49617   49611      66
   49617   49614      67   49626   49623      66   49629   49623      66   49629
   49626      67   49638   49635      66   49641   49635      66   49641   49638
      67   49650   49647      66   49653   49647      66   49653   49650      67
   49662   49659      66   49665   49659      66   49665   49662      67   49674
   49671      66   49677   49671      66   49677   49674      67   49686   49683
      66   49689   49683      66   49689   49686      67   49698   49695      66
   49701   49695      66   49701   49698      67   49710   49707      66   49713
   49707      66   49713   49710      67   49722   49719      66   49725   49719
      66   49725   49722      67   49734   49731      66   49737   49731      66
   49737   49734      67   49746   49743      66   49749   49743      66   49749
   49746      67   49758   49755      66   49761   49755      66   49761   49758
      67   49770   49767      66   49773   49767      66   49773   49770      67
   49782   49779      66   49785   49779      66   49785   49782      67   49794
   49791      66   49797   49791      66   49797   49794      67   49806   49803
      66   49809   49803      66   49809   49806      67   49818   49815      66
   49821   49815      66   49821   49818      67   49830   49827      66   49833
   49827      66   49833   49830      67   49842   49839      66   49845   49839
      66   49845   49842      67   49854   49851      66   49857   49851      66
   49857   49854      67   49866   49863      66   49869   49863      66   49869
   49866      67   49878   49875      66   49881   49875      66   49881   49878
      67   49890   49887      66   49893   49887      66   49893   49890      67
   49902   49899      66   49905   49899      66   49905   49902      67   49914
   49911      66   49917   49911      66   49917   49914      67   49926   49923
      66   49929   49923      66   49929   49926      67   49938   49935      66
   49941   49935      66   49941   49938      67   49950   49947      66   49953
   49947      66   49953   49950      67   49962   49959      66   49965   49959
      66   49965   49962      67   49974   49971      66   49977   49971      66
   49977   49974      67   49986   49983      66   49989   49983      66   49989
   49986      67   49998   49995      66   50001   49995      66   50001   49998
      67   50010   50007      66   50013   50007      66   50013   50010      67
   50022   50019      66   50025   50019      66   50025   50022      67   50034
   50031      66   50037   50031      66   50037   50034      67   50046   50043
      66   50049   50043      66   50049   50046      67   50058   50055      66
   50061   50055      66   50061   50058      67   50070   50067      66   50073
   50067      66   50073   50070      67   50082   50079      66   50085   50079
      66   50085   50082      67   50094   50091      66   50097   50091      66
   50097   50094      67   50106   50103      66   50109   50103      66   50109
   50106      67   50118   50115      66   50121   50115      66   50121   50118
      67   50130   50127      66   50133   50127      66   50133   50130      67
   50142   50139      66   50145   50139      66   50145   50142      67   50154
   50151      66   50157   50151      66   50157   50154      67   50166   50163
      66   50169   50163      66   50169   50166      67   50178   50175      66
   50181   50175      66   50181   50178      67   50190   50187      66   50193
   50187      66   50193   50190      67   50202   50199      66   50205   50199
      66   50205   50202      67   50214   50211      66   50217   50211      66
   50217   50214      67   50226   50223      66   50229   50223      66   50229
   50226      67   50238   50235      66   50241   50235      66   50241   50238
      67   50250   50247      66   50253   50247      66   50253   50250      67
   50262   50259      66   50265   50259      66   50265   50262      67   50274
   50271      66   50277   50271      66   50277   50274      67   50286   50283
      66   50289   50283      66   50289   50286      67   50298   50295      66
   50301   50295      66   50301   50298      67   50310   50307      66   50313
   50307      66   50313   50310      67   50322   50319      66   50325   50319
      66   50325   50322      67   50334   50331      66   50337   50331      66
   50337   50334      67   50346   50343      66   50349   50343      66   50349
   50346      67   50358   50355      66   50361   50355      66   50361   50358
      67   50370   50367      66   50373   50367      66   50373   50370      67
   50382   50379      66   50385   50379      66   50385   50382      67   50394
   50391      66   50397   50391      66   50397   50394      67   50406   50403
      66   50409   50403      66   50409   50406      67   50418   50415      66
   50421   50415      66   50421   50418      67   50430   50427      66   50433
   50427      66   50433   50430      67   50442   50439      66   50445   50439
      66   50445   50442      67   50454   50451      66   50457   50451      66
   50457   50454      67   50466   50463      66   50469   50463      66   50469
   50466      67   50478   50475      66   50481   50475      66   50481   50478
      67   50490   50487      66   50493   50487      66   50493   50490      67
   50502   50499      66   50505   50499      66   50505   50502      67   50514
   50511      66   50517   50511      66   50517   50514      67   50526   50523
      66   50529   50523      66   50529   50526      67   50538   50535      66
   50541   50535      66   50541   50538      67   50550   50547      66   50553
   50547      66   50553   50550      67   50562   50559      66   50565   50559
      66   50565   50562      67   50574   50571      66   50577   50571      66
   50577   50574      67   50586   50583      66   50589   50583      66   50589
   50586      67   50598   50595      66   50601   50595      66   50601   50598
      67   50610   50607      66   50613   50607      66   50613   50610      67
   50622   50619      66   50625   50619      66   50625   50622      67   50634
   50631      66   50637   50631      66   50637   50634      67   50646   50643
      66   50649   50643      66   50649   50646      67   50658   50655      66
   50661   50655      66   50661   50658      67   50670   50667      66   50673
   50667      66   50673   50670      67   50682   50679      66   50685   50679
      66   50685   50682      67   50694   50691      66   50697   50691      66
   50697   50694      67   50706   50703      66   50709   50703      66   50709
   50706      67   50718   50715      66   50721   50715      66   50721   50718
      67   50730   50727      66   50733   50727      66   50733   50730      67
   50742   50739      66   50745   50739      66   50745   50742      67   50754
   50751      66   50757   50751      66   50757   50754      67   50766   50763
      66   50769   50763      66   50769   50766      67   50778   50775      66
   50781   50775      66   50781   50778      67   50790   50787      66   50793
   50787      66   50793   50790      67   50802   50799      66   50805   50799
      66   50805   50802      67   50814   50811      66   50817   50811      66
   50817   50814      67   50826   50823      66   50829   50823      66   50829
   50826      67   50838   50835      66   50841   50835      66   50841   50838
      67   50850   50847      66   50853   50847      66   50853   50850      67
   50862   50859      66   50865   50859      66   50865   50862      67   50874
   50871      66   50877   50871      66   50877   50874      67   50886   50883
      66   50889   50883      66   50889   50886      67   50898   50895      66
   50901   50895      66   50901   50898      67   50910   50907      66   50913
   50907      66   50913   50910      67   50922   50919      66   50925   50919
      66   50925   50922      67   50934   50931      66   50937   50931      66
   50937   50934      67   50946   50943      66   50949   50943      66   50949
   50946      67   50958   50955      66   50961   50955      66   50961   50958
      67   50970   50967      66   50973   50967      66   50973   50970      67
   50982   50979      66   50985   50979      66   50985   50982      67   50994
   50991      66   50997   50991      66   50997   50994      67   51006   51003
      66   51009   51003      66   51009   51006      67   51018   51015      66
   51021   51015      66   51021   51018      67   51030   51027      66   51033
   51027      66   51033   51030      67   51042   51039      66   51045   51039
      66   51045   51042      67   51054   51051      66   51057   51051      66
   51057   51054      67   51066   51063      66   51069   51063      66   51069
   51066      67   51078   51075      66   51081   51075      66   51081   51078
      67   51090   51087      66   51093   51087      66   51093   51090      67
   51102   51099      66   51105   51099      66   51105   51102      67   51114
   51111      66   51117   51111      66   51117   51114      67   51126   51123
      66   51129   51123      66   51129   51126      67   51138   51135      66
   51141   51135      66   51141   51138      67   51150   51147      66   51153
   51147      66   51153   51150      67   51162   51159      66   51165   51159
      66   51165   51162      67   51174   51171      66   51177   51171      66
   51177   51174      67   51186   51183      66   51189   51183      66   51189
   51186      67   51198   51195      66   51201   51195      66   51201   51198
      67   51210   51207      66   51213   51207      66   51213   51210      67
   51222   51219      66   51225   51219      66   51225   51222      67   51234
   51231      66   51237   51231      66   51237   51234      67   51246   51243
      66   51249   51243      66   51249   51246      67   51258   51255      66
   51261   51255      66   51261   51258      67   51270   51267      66   51273
   51267      66   51273   51270      67   51282   51279      66   51285   51279
      66   51285   51282      67   51294   51291      66   51297   51291      66
   51297   51294      67   51306   51303      66   51309   51303      66   51309
   51306      67   51318   51315      66   51321   51315      66   51321   51318
      67   51330   51327      66   51333   51327      66   51333   51330      67
   51342   51339      66   51345   51339      66   51345   51342      67   51354
   51351      66   51357   51351      66   51357   51354      67   51366   51363
      66   51369   51363      66   51369   51366      67   51378   51375      66
   51381   51375      66   51381   51378      67   51390   51387      66   51393
   51387      66   51393   51390      67   51402   51399      66   51405   51399
      66   51405   51402      67   51414   51411      66   51417   51411      66
   51417   51414      67   51426   51423      66   51429   51423      66   51429
   51426      67   51438   51435      66   51441   51435      66   51441   51438
      67   51450   51447      66   51453   51447      66   51453   51450      67
   51462   51459      66   51465   51459      66   51465   51462      67   51474
   51471      66   51477   51471      66   51477   51474      67   51486   51483
      66   51489   51483      66   51489   51486      67   51498   51495      66
   51501   51495      66   51501   51498      67   51510   51507      66   51513
   51507      66   51513   51510      67   51522   51519      66   51525   51519
      66   51525   51522      67   51534   51531      66   51537   51531      66
   51537   51534      67   51546   51543      66   51549   51543      66   51549
   51546      67   51558   51555      66   51561   51555      66   51561   51558
      67   51570   51567      66   51573   51567      66   51573   51570      67
   51582   51579      66   51585   51579      66   51585   51582      67   51594
   51591      66   51597   51591      66   51597   51594      67   51606   51603
      66   51609   51603      66   51609   51606      67   51618   51615      66
   51621   51615      66   51621   51618      67   51630   51627      66   51633
   51627      66   51633   51630      67   51642   51639      66   51645   51639
      66   51645   51642      67   51654   51651      66   51657   51651      66
   51657   51654      67   51666   51663      66   51669   51663      66   51669
   51666      67   51678   51675      66   51681   51675      66   51681   51678
      67   51690   51687      66   51693   51687      66   51693   51690      67
   51702   51699      66   51705   51699      66   51705   51702      67   51714
   51711      66   51717   51711      66   51717   51714      67   51726   51723
      66   51729   51723      66   51729   51726      67   51738   51735      66
   51741   51735      66   51741   51738      67   51750   51747      66   51753
   51747      66   51753   51750      67   51762   51759      66   51765   51759
      66   51765   51762      67   51774   51771      66   51777   51771      66
   51777   51774      67   51786   51783      66   51789   51783      66   51789
   51786      67   51798   51795      66   51801   51795      66   51801   51798
      67   51810   51807      66   51813   51807      66   51813   51810      67
   51822   51819      66   51825   51819      66   51825   51822      67   51834
   51831      66   51837   51831      66   51837   51834      67   51846   51843
      66   51849   51843      66   51849   51846      67   51858   51855      66
   51861   51855      66   51861   51858      67   51870   51867      66   51873
   51867      66   51873   51870      67   51882   51879      66   51885   51879
      66   51885   51882      67   51894   51891      66   51897   51891      66
   51897   51894      67   51906   51903      66   51909   51903      66   51909
   51906      67   51918   51915      66   51921   51915      66   51921   51918
      67   51930   51927      66   51933   51927      66   51933   51930      67
   51942   51939      66   51945   51939      66   51945   51942      67   51954
   51951      66   51957   51951      66   51957   51954      67   51966   51963
      66   51969   51963      66   51969   51966      67   51978   51975      66
   51981   51975      66   51981   51978      67   51990   51987      66   51993
   51987      66   51993   51990      67   52002   51999      66   52005   51999
      66   52005   52002      67   52014   52011      66   52017   52011      66
   52017   52014      67   52026   52023      66   52029   52023      66   52029
   52026      67   52038   52035      66   52041   52035      66   52041   52038
      67   52050   52047      66   52053   52047      66   52053   52050      67
   52062   52059      66   52065   52059      66   52065   52062      67   52074
   52071      66   52077   52071      66   52077   52074      67   52086   52083
      66   52089   52083      66   52089   52086      67   52098   52095      66
   52101   52095      66   52101   52098      67   52110   52107      66   52113
   52107      66   52113   52110      67   52122   52119      66   52125   52119
      66   52125   52122      67   52134   52131      66   52137   52131      66
   52137   52134      67   52146   52143      66   52149   52143      66   52149
   52146      67   52158   52155      66   52161   52155      66   52161   52158
      67   52170   52167      66   52173   52167      66   52173   52170      67
   52182   52179      66   52185   52179      66   52185   52182      67   52194
   52191      66   52197   52191      66   52197   52194      67   52206   52203
      66   52209   52203      66   52209   52206      67   52218   52215      66
   52221   52215      66   52221   52218      67   52230   52227      66   52233
   52227      66   52233   52230      67   52242   52239      66   52245   52239
      66   52245   52242      67   52254   52251      66   52257   52251      66
   52257   52254      67   52266   52263      66   52269   52263      66   52269
   52266      67   52278   52275      66   52281   52275      66   52281   52278
      67   52290   52287      66   52293   52287      66   52293   52290      67
   52302   52299      66   52305   52299      66   52305   52302      67   52314
   52311      66   52317   52311      66   52317   52314      67   52326   52323
      66   52329   52323      66   52329   52326      67   52338   52335      66
   52341   52335      66   52341   52338      67   52350   52347      66   52353
   52347      66   52353   52350      67   52362   52359      66   52365   52359
      66   52365   52362      67   52374   52371      66   52377   52371      66
   52377   52374      67   52386   52383      66   52389   52383      66   52389
   52386      67   52398   52395      66   52401   52395      66   52401   52398
      67   52410   52407      66   52413   52407      66   52413   52410      67
   52422   52419      66   52425   52419      66   52425   52422      67   52434
   52431      66   52437   52431      66   52437   52434      67   52446   52443
      66   52449   52443      66   52449   52446      67   52458   52455      66
   52461   52455      66   52461   52458      67   52470   52467      66   52473
   52467      66   52473   52470      67   52482   52479      66   52485   52479
      66   52485   52482      67   52494   52491      66   52497   52491      66
   52497   52494      67   52506   52503      66   52509   52503      66   52509
   52506      67   52518   52515      66   52521   52515      66   52521   52518
      67   52530   52527      66   52533   52527      66   52533   52530      67
   52542   52539      66   52545   52539      66   52545   52542      67   52554
   52551      66   52557   52551      66   52557   52554      67   52566   52563
      66   52569   52563      66   52569   52566      67   52578   52575      66
   52581   52575      66   52581   52578      67   52590   52587      66   52593
   52587      66   52593   52590      67   52602   52599      66   52605   52599
      66   52605   52602      67   52614   52611      66   52617   52611      66
   52617   52614      67   52626   52623      66   52629   52623      66   52629
   52626      67   52638   52635      66   52641   52635      66   52641   52638
      67   52650   52647      66   52653   52647      66   52653   52650      67
   52662   52659      66   52665   52659      66   52665   52662      67   52674
   52671      66   52677   52671      66   52677   52674      67   52686   52683
      66   52689   52683      66   52689   52686      67   52698   52695      66
   52701   52695      66   52701   52698      67   52710   52707      66   52713
   52707      66   52713   52710      67   52722   52719      66   52725   52719
      66   52725   52722      67   52734   52731      66   52737   52731      66
   52737   52734      67   52746   52743      66   52749   52743      66   52749
   52746      67   52758   52755      66   52761   52755      66   52761   52758
      67   52770   52767      66   52773   52767      66   52773   52770      67
   52782   52779      66   52785   52779      66   52785   52782      67   52794
   52791      66   52797   52791      66   52797   52794      67   52806   52803
      66   52809   52803      66   52809   52806      67   52818   52815      66
   52821   52815      66   52821   52818      67   52830   52827      66   52833
   52827      66   52833   52830      67   52842   52839      66   52845   52839
      66   52845   52842      67   52854   52851      66   52857   52851      66
   52857   52854      67   52866   52863      66   52869   52863      66   52869
   52866      67   52878   52875      66   52881   52875      66   52881   52878
      67   52890   52887      66   52893   52887      66   52893   52890      67
   52902   52899      66   52905   52899      66   52905   52902      67   52914
   52911      66   52917   52911      66   52917   52914      67   52926   52923
      66   52929   52923      66   52929   52926      67   52938   52935      66
   52941   52935      66   52941   52938      67   52950   52947      66   52953
   52947      66   52953   52950      67   52962   52959      66   52965   52959
      66   52965   52962      67   52974   52971      66   52977   52971      66
   52977   52974      67   52986   52983      66   52989   52983      66   52989
   52986      67   52998   52995      66   53001   52995      66   53001   52998
      67   53010   53007      66   53013   53007      66   53013   53010      67
   53022   53019      66   53025   53019      66   53025   53022      67   53034
   53031      66   53037   53031      66   53037   53034      67   53046   53043
      66   53049   53043      66   53049   53046      67   53058   53055      66
   53061   53055      66   53061   53058      67   53070   53067      66   53073
   53067      66   53073   53070      67   53082   53079      66   53085   53079
      66   53085   53082      67   53094   53091      66   53097   53091      66
   53097   53094      67   53106   53103      66   53109   53103      66   53109
   53106      67   53118   53115      66   53121   53115      66   53121   53118
      67   53130   53127      66   53133   53127      66   53133   53130      67
   53142   53139      66   53145   53139      66   53145   53142      67   53154
   53151      66   53157   53151      66   53157   53154      67   53166   53163
      66   53169   53163      66   53169   53166      67   53178   53175      66
   53181   53175      66   53181   53178      67   53190   53187      66   53193
   53187      66   53193   53190      67   53202   53199      66   53205   53199
      66   53205   53202      67   53214   53211      66   53217   53211      66
   53217   53214      67   53226   53223      66   53229   53223      66   53229
   53226      67   53238   53235      66   53241   53235      66   53241   53238
      67   53250   53247      66   53253   53247      66   53253   53250      67
   53262   53259      66   53265   53259      66   53265   53262      67   53274
   53271      66   53277   53271      66   53277   53274      67   53286   53283
      66   53289   53283      66   53289   53286      67   53298   53295      66
   53301   53295      66   53301   53298      67   53310   53307      66   53313
   53307      66   53313   53310      67   53322   53319      66   53325   53319
      66   53325   53322      67   53334   53331      66   53337   53331      66
   53337   53334      67   53346   53343      66   53349   53343      66   53349
   53346      67   53358   53355      66   53361   53355      66   53361   53358
      67   53370   53367      66   53373   53367      66   53373   53370      67
   53382   53379      66   53385   53379      66   53385   53382      67   53394
   53391      66   53397   53391      66   53397   53394      67   53406   53403
      66   53409   53403      66   53409   53406      67   53418   53415      66
   53421   53415      66   53421   53418      67   53430   53427      66   53433
   53427      66   53433   53430      67   53442   53439      66   53445   53439
      66   53445   53442      67   53454   53451      66   53457   53451      66
   53457   53454      67   53466   53463      66   53469   53463      66   53469
   53466      67   53478   53475      66   53481   53475      66   53481   53478
      67   53490   53487      66   53493   53487      66   53493   53490      67
   53502   53499      66   53505   53499      66   53505   53502      67   53514
   53511      66   53517   53511      66   53517   53514      67   53526   53523
      66   53529   53523      66   53529   53526      67   53538   53535      66
   53541   53535      66   53541   53538      67   53550   53547      66   53553
   53547      66   53553   53550      67   53562   53559      66   53565   53559
      66   53565   53562      67   53574   53571      66   53577   53571      66
   53577   53574      67   53586   53583      66   53589   53583      66   53589
   53586      67   53598   53595      66   53601   53595      66   53601   53598
      67   53610   53607      66   53613   53607      66   53613   53610      67
   53622   53619      66   53625   53619      66   53625   53622      67   53634
   53631      66   53637   53631      66   53637   53634      67   53646   53643
      66   53649   53643      66   53649   53646      67   53658   53655      66
   53661   53655      66   53661   53658      67   53670   53667      66   53673
   53667      66   53673   53670      67   53682   53679      66   53685   53679
      66   53685   53682      67   53694   53691      66   53697   53691      66
   53697   53694      67   53706   53703      66   53709   53703      66   53709
   53706      67   53718   53715      66   53721   53715      66   53721   53718
      67   53730   53727      66   53733   53727      66   53733   53730      67
   53742   53739      66   53745   53739      66   53745   53742      67   53754
   53751      66   53757   53751      66   53757   53754      67   53766   53763
      66   53769   53763      66   53769   53766      67   53778   53775      66
   53781   53775      66   53781   53778      67   53790   53787      66   53793
   53787      66   53793   53790      67   53802   53799      66   53805   53799
      66   53805   53802      67   53814   53811      66   53817   53811      66
   53817   53814      67   53826   53823      66   53829   53823      66   53829
   53826      67   53838   53835      66   53841   53835      66   53841   53838
      67   53850   53847      66   53853   53847      66   53853   53850      67
   53862   53859      66   53865   53859      66   53865   53862      67   53874
   53871      66   53877   53871      66   53877   53874      67   53886   53883
      66   53889   53883      66   53889   53886      67   53898   53895      66
   53901   53895      66   53901   53898      67   53910   53907      66   53913
   53907      66   53913   53910      67   53922   53919      66   53925   53919
      66   53925   53922      67   53934   53931      66   53937   53931      66
   53937   53934      67   53946   53943      66   53949   53943      66   53949
   53946      67   53958   53955      66   53961   53955      66   53961   53958
      67   53970   53967      66   53973   53967      66   53973   53970      67
   53982   53979      66   53985   53979      66   53985   53982      67   53994
   53991      66   53997   53991      66   53997   53994      67   54006   54003
      66   54009   54003      66   54009   54006      67   54018   54015      66
   54021   54015      66   54021   54018      67   54030   54027      66   54033
   54027      66   54033   54030      67   54042   54039      66   54045   54039
      66   54045   54042      67   54054   54051      66   54057   54051      66
   54057   54054      67   54066   54063      66   54069   54063      66   54069
   54066      67   54078   54075      66   54081   54075      66   54081   54078
      67   54090   54087      66   54093   54087      66   54093   54090      67
   54102   54099      66   54105   54099      66   54105   54102      67   54114
   54111      66   54117   54111      66   54117   54114      67   54126   54123
      66   54129   54123      66   54129   54126      67   54138   54135      66
   54141   54135      66   54141   54138      67   54150   54147      66   54153
   54147      66   54153   54150      67   54162   54159      66   54165   54159
      66   54165   54162      67   54174   54171      66   54177   54171      66
   54177   54174      67   54186   54183      66   54189   54183      66   54189
   54186      67   54198   54195      66   54201   54195      66   54201   54198
      67   54210   54207      66   54213   54207      66   54213   54210      67
   54222   54219      66   54225   54219      66   54225   54222      67   54234
   54231      66   54237   54231      66   54237   54234      67   54246   54243
      66   54249   54243      66   54249   54246      67   54258   54255      66
   54261   54255      66   54261   54258      67   54270   54267      66   54273
   54267      66   54273   54270      67   54282   54279      66   54285   54279
      66   54285   54282      67   54294   54291      66   54297   54291      66
   54297   54294      67   54306   54303      66   54309   54303      66   54309
   54306      67   54318   54315      66   54321   54315      66   54321   54318
      67   54330   54327      66   54333   54327      66   54333   54330      67
   54342   54339      66   54345   54339      66   54345   54342      67   54354
   54351      66   54357   54351      66   54357   54354      67   54366   54363
      66   54369   54363      66   54369   54366      67   54378   54375      66
   54381   54375      66   54381   54378      67   54390   54387      66   54393
   54387      66   54393   54390      67   54402   54399      66   54405   54399
      66   54405   54402      67   54414   54411      66   54417   54411      66
   54417   54414      67   54426   54423      66   54429   54423      66   54429
   54426      67   54438   54435      66   54441   54435      66   54441   54438
      67   54450   54447      66   54453   54447      66   54453   54450      67
   54462   54459      66   54465   54459      66   54465   54462      67   54474
   54471      66   54477   54471      66   54477   54474      67   54486   54483
      66   54489   54483      66   54489   54486      67   54498   54495      66
   54501   54495      66   54501   54498      67   54510   54507      66   54513
   54507      66   54513   54510      67   54522   54519      66   54525   54519
      66   54525   54522      67   54534   54531      66   54537   54531      66
   54537   54534      67   54546   54543      66   54549   54543      66   54549
   54546      67   54558   54555      66   54561   54555      66   54561   54558
      67   54570   54567      66   54573   54567      66   54573   54570      67
   54582   54579      66   54585   54579      66   54585   54582      67   54594
   54591      66   54597   54591      66   54597   54594      67   54606   54603
      66   54609   54603      66   54609   54606      67   54618   54615      66
   54621   54615      66   54621   54618      67   54630   54627      66   54633
   54627      66   54633   54630      67   54642   54639      66   54645   54639
      66   54645   54642      67   54654   54651      66   54657   54651      66
   54657   54654      67   54666   54663      66   54669   54663      66   54669
   54666      67   54678   54675      66   54681   54675      66   54681   54678
      67   54690   54687      66   54693   54687      66   54693   54690      67
   54702   54699      66   54705   54699      66   54705   54702      67   54714
   54711      66   54717   54711      66   54717   54714      67   54726   54723
      66   54729   54723      66   54729   54726      67   54738   54735      66
   54741   54735      66   54741   54738      67   54750   54747      66   54753
   54747      66   54753   54750      67   54762   54759      66   54765   54759
      66   54765   54762      67   54774   54771      66   54777   54771      66
   54777   54774      67   54786   54783      66   54789   54783      66   54789
   54786      67   54798   54795      66   54801   54795      66   54801   54798
      67   54810   54807      66   54813   54807      66   54813   54810      67
   54822   54819      66   54825   54819      66   54825   54822      67   54834
   54831      66   54837   54831      66   54837   54834      67   54846   54843
      66   54849   54843      66   54849   54846      67   54858   54855      66
   54861   54855      66   54861   54858      67   54870   54867      66   54873
   54867      66   54873   54870      67   54882   54879      66   54885   54879
      66   54885   54882      67   54894   54891      66   54897   54891      66
   54897   54894      67   54906   54903      66   54909   54903      66   54909
   54906      67   54918   54915      66   54921   54915      66   54921   54918
      67   54930   54927      66   54933   54927      66   54933   54930      67
   54942   54939      66   54945   54939      66   54945   54942      67   54954
   54951      66   54957   54951      66   54957   54954      67   54966   54963
      66   54969   54963      66   54969   54966      67   54978   54975      66
   54981   54975      66   54981   54978      67   54990   54987      66   54993
   54987      66   54993   54990      67   55002   54999      66   55005   54999
      66   55005   55002      67   55014   55011      66   55017   55011      66
   55017   55014      67   55026   55023      66   55029   55023      66   55029
   55026      67   55038   55035      66   55041   55035      66   55041   55038
      67   55050   55047      66   55053   55047      66   55053   55050      67
   55062   55059      66   55065   55059      66   55065   55062      67   55074
   55071      66   55077   55071      66   55077   55074      67   55086   55083
      66   55089   55083      66   55089   55086      67   55098   55095      66
   55101   55095      66   55101   55098      67   55110   55107      66   55113
   55107      66   55113   55110      67   55122   55119      66   55125   55119
      66   55125   55122      67   55134   55131      66   55137   55131      66
   55137   55134      67   55146   55143      66   55149   55143      66   55149
   55146      67   55158   55155      66   55161   55155      66   55161   55158
      67   55170   55167      66   55173   55167      66   55173   55170      67
   55182   55179      66   55185   55179      66   55185   55182      67   55194
   55191      66   55197   55191      66   55197   55194      67   55206   55203
      66   55209   55203      66   55209   55206      67   55218   55215      66
   55221   55215      66   55221   55218      67   55230   55227      66   55233
   55227      66   55233   55230      67   55242   55239      66   55245   55239
      66   55245   55242      67   55254   55251      66   55257   55251      66
   55257   55254      67   55266   55263      66   55269   55263      66   55269
   55266      67   55278   55275      66   55281   55275      66   55281   55278
      67   55290   55287      66   55293   55287      66   55293   55290      67
   55302   55299      66   55305   55299      66   55305   55302      67   55314
   55311      66   55317   55311      66   55317   55314      67   55326   55323
      66   55329   55323      66   55329   55326      67   55338   55335      66
   55341   55335      66   55341   55338      67   55350   55347      66   55353
   55347      66   55353   55350      67   55362   55359      66   55365   55359
      66   55365   55362      67   55374   55371      66   55377   55371      66
   55377   55374      67   55386   55383      66   55389   55383      66   55389
   55386      67   55398   55395      66   55401   55395      66   55401   55398
      67   55410   55407      66   55413   55407      66   55413   55410      67
   55422   55419      66   55425   55419      66   55425   55422      67   55434
   55431      66   55437   55431      66   55437   55434      67   55446   55443
      66   55449   55443      66   55449   55446      67   55458   55455      66
   55461   55455      66   55461   55458      67   55470   55467      66   55473
   55467      66   55473   55470      67   55482   55479      66   55485   55479
      66   55485   55482      67   55494   55491      66   55497   55491      66
   55497   55494      67   55506   55503      66   55509   55503      66   55509
   55506      67   55518   55515      66   55521   55515      66   55521   55518
      67   55530   55527      66   55533   55527      66   55533   55530      67
   55542   55539      66   55545   55539      66   55545   55542      67   55554
   55551      66   55557   55551      66   55557   55554      67   55566   55563
      66   55569   55563      66   55569   55566      67   55578   55575      66
   55581   55575      66   55581   55578      67   55590   55587      66   55593
   55587      66   55593   55590      67   55602   55599      66   55605   55599
      66   55605   55602      67   55614   55611      66   55617   55611      66
   55617   55614      67   55626   55623      66   55629   55623      66   55629
   55626      67   55638   55635      66   55641   55635      66   55641   55638
      67   55650   55647      66   55653   55647      66   55653   55650      67
   55662   55659      66   55665   55659      66   55665   55662      67   55674
   55671      66   55677   55671      66   55677   55674      67   55686   55683
      66   55689   55683      66   55689   55686      67   55698   55695      66
   55701   55695      66   55701   55698      67   55710   55707      66   55713
   55707      66   55713   55710      67   55722   55719      66   55725   55719
      66   55725   55722      67   55734   55731      66   55737   55731      66
   55737   55734      67   55746   55743      66   55749   55743      66   55749
   55746      67   55758   55755      66   55761   55755      66   55761   55758
      67   55770   55767      66   55773   55767      66   55773   55770      67
   55782   55779      66   55785   55779      66   55785   55782      67   55794
   55791      66   55797   55791      66   55797   55794      67   55806   55803
      66   55809   55803      66   55809   55806      67   55818   55815      66
   55821   55815      66   55821   55818      67   55830   55827      66   55833
   55827      66   55833   55830      67   55842   55839      66   55845   55839
      66   55845   55842      67   55854   55851      66   55857   55851      66
   55857   55854      67   55866   55863      66   55869   55863      66   55869
   55866      67   55878   55875      66   55881   55875      66   55881   55878
      67   55890   55887      66   55893   55887      66   55893   55890      67
   55902   55899      66   55905   55899      66   55905   55902      67   55914
   55911      66   55917   55911      66   55917   55914      67   55926   55923
      66   55929   55923      66   55929   55926      67   55938   55935      66
   55941   55935      66   55941   55938      67   55950   55947      66   55953
   55947      66   55953   55950      67   55962   55959      66   55965   55959
      66   55965   55962      67   55974   55971      66   55977   55971      66
   55977   55974      67   55986   55983      66   55989   55983      66   55989
   55986      67   55998   55995      66   56001   55995      66   56001   55998
      67   56010   56007      66   56013   56007      66   56013   56010      67
   56022   56019      66   56025   56019      66   56025   56022      67   56034
   56031      66   56037   56031      66   56037   56034      67   56046   56043
      66   56049   56043      66   56049   56046      67   56058   56055      66
   56061   56055      66   56061   56058      67   56070   56067      66   56073
   56067      66   56073   56070      67   56082   56079      66   56085   56079
      66   56085   56082      67   56094   56091      66   56097   56091      66
   56097   56094      67   56106   56103      66   56109   56103      66   56109
   56106      67   56118   56115      66   56121   56115      66   56121   56118
      67   56130   56127      66   56133   56127      66   56133   56130      67
   56142   56139      66   56145   56139      66   56145   56142      67   56154
   56151      66   56157   56151      66   56157   56154      67   56166   56163
      66   56169   56163      66   56169   56166      67   56178   56175      66
   56181   56175      66   56181   56178      67   56190   56187      66   56193
   56187      66   56193   56190      67   56202   56199      66   56205   56199
      66   56205   56202      67   56214   56211      66   56217   56211      66
   56217   56214      67   56226   56223      66   56229   56223      66   56229
   56226      67   56238   56235      66   56241   56235      66   56241   56238
      67   56250   56247      66   56253   56247      66   56253   56250      67
   56262   56259      66   56265   56259      66   56265   56262      67   56274
   56271      66   56277   56271      66   56277   56274      67   56286   56283
      66   56289   56283      66   56289   56286      67   56298   56295      66
   56301   56295      66   56301   56298      67   56310   56307      66   56313
   56307      66   56313   56310      67   56322   56319      66   56325   56319
      66   56325   56322      67   56334   56331      66   56337   56331      66
   56337   56334      67   56346   56343      66   56349   56343      66   56349
   56346      67   56358   56355      66   56361   56355      66   56361   56358
      67   56370   56367      66   56373   56367      66   56373   56370      67
   56382   56379      66   56385   56379      66   56385   56382      67   56394
   56391      66   56397   56391      66   56397   56394      67   56406   56403
      66   56409   56403      66   56409   56406      67   56418   56415      66
   56421   56415      66   56421   56418      67   56430   56427      66   56433
   56427      66   56433   56430      67   56442   56439      66   56445   56439
      66   56445   56442      67   56454   56451      66   56457   56451      66
   56457   56454      67   56466   56463      66   56469   56463      66   56469
   56466      67   56478   56475      66   56481   56475      66   56481   56478
      67   56490   56487      66   56493   56487      66   56493   56490      67
   56502   56499      66   56505   56499      66   56505   56502      67   56514
   56511      66   56517   56511      66   56517   56514      67   56526   56523
      66   56529   56523      66   56529   56526      67   56538   56535      66
   56541   56535      66   56541   56538      67   56550   56547      66   56553
   56547      66   56553   56550      67   56562   56559      66   56565   56559
      66   56565   56562      67   56574   56571      66   56577   56571      66
   56577   56574      67   56586   56583      66   56589   56583      66   56589
   56586      67   56598   56595      66   56601   56595      66   56601   56598
      67   56610   56607      66   56613   56607      66   56613   56610      67
   56622   56619      66   56625   56619      66   56625   56622      67   56634
   56631      66   56637   56631      66   56637   56634      67   56646   56643
      66   56649   56643      66   56649   56646      67   56658   56655      66
   56661   56655      66   56661   56658      67   56670   56667      66   56673
   56667      66   56673   56670      67   56682   56679      66   56685   56679
      66   56685   56682      67   56694   56691      66   56697   56691      66
   56697   56694      67   56706   56703      66   56709   56703      66   56709
   56706      67   56718   56715      66   56721   56715      66   56721   56718
      67   56730   56727      66   56733   56727      66   56733   56730      67
   56742   56739      66   56745   56739      66   56745   56742      67   56754
   56751      66   56757   56751      66   56757   56754      67   56766   56763
      66   56769   56763      66   56769   56766      67   56778   56775      66
   56781   56775      66   56781   56778      67   56790   56787      66   56793
   56787      66   56793   56790      67   56802   56799      66   56805   56799
      66   56805   56802      67   56814   56811      66   56817   56811      66
   56817   56814      67   56826   56823      66   56829   56823      66   56829
   56826      67   56838   56835      66   56841   56835      66   56841   56838
      67   56850   56847      66   56853   56847      66   56853   56850      67
   56862   56859      66   56865   56859      66   56865   56862      67   56874
   56871      66   56877   56871      66   56877   56874      67   56886   56883
      66   56889   56883      66   56889   56886      67   56898   56895      66
   56901   56895      66   56901   56898      67   56910   56907      66   56913
   56907      66   56913   56910      67   56922   56919      66   56925   56919
      66   56925   56922      67   56934   56931      66   56937   56931      66
   56937   56934      67   56946   56943      66   56949   56943      66   56949
   56946      67   56958   56955      66   56961   56955      66   56961   56958
      67   56970   56967      66   56973   56967      66   56973   56970      67
   56982   56979      66   56985   56979      66   56985   56982      67   56994
   56991      66   56997   56991      66   56997   56994      67   57006   57003
      66   57009   57003      66   57009   57006      67   57018   57015      66
   57021   57015      66   57021   57018      67   57030   57027      66   57033
   57027      66   57033   57030      67   57042   57039      66   57045   57039
      66   57045   57042      67   57054   57051      66   57057   57051      66
   57057   57054      67   57066   57063      66   57069   57063      66   57069
   57066      67   57078   57075      66   57081   57075      66   57081   57078
      67   57090   57087      66   57093   57087      66   57093   57090      67
   57102   57099      66   57105   57099      66   57105   57102      67   57114
   57111      66   57117   57111      66   57117   57114      67   57126   57123
      66   57129   57123      66   57129   57126      67   57138   57135      66
   57141   57135      66   57141   57138      67   57150   57147      66   57153
   57147      66   57153   57150      67   57162   57159      66   57165   57159
      66   57165   57162      67   57174   57171      66   57177   57171      66
   57177   57174      67   57186   57183      66   57189   57183      66   57189
   57186      67   57198   57195      66   57201   57195      66   57201   57198
      67   57210   57207      66   57213   57207      66   57213   57210      67
   57222   57219      66   57225   57219      66   57225   57222      67   57234
   57231      66   57237   57231      66   57237   57234      67   57246   57243
      66   57249   57243      66   57249   57246      67   57258   57255      66
   57261   57255      66   57261   57258      67   57270   57267      66   57273
   57267      66   57273   57270      67   57282   57279      66   57285   57279
      66   57285   57282      67   57294   57291      66   57297   57291      66
   57297   57294      67   57306   57303      66   57309   57303      66   57309
   57306      67   57318   57315      66   57321   57315      66   57321   57318
      67   57330   57327      66   57333   57327      66   57333   57330      67
   57342   57339      66   57345   57339      66   57345   57342      67   57354
   57351      66   57357   57351      66   57357   57354      67   57366   57363
      66   57369   57363      66   57369   57366      67   57378   57375      66
   57381   57375      66   57381   57378      67   57390   57387      66   57393
   57387      66   57393   57390      67   57402   57399      66   57405   57399
      66   57405   57402      67   57414   57411      66   57417   57411      66
   57417   57414      67   57426   57423      66   57429   57423      66   57429
   57426      67   57438   57435      66   57441   57435      66   57441   57438
      67   57450   57447      66   57453   57447      66   57453   57450      67
   57462   57459      66   57465   57459      66   57465   57462      67   57474
   57471      66   57477   57471      66   57477   57474      67   57486   57483
      66   57489   57483      66   57489   57486      67   57498   57495      66
   57501   57495      66   57501   57498      67   57510   57507      66   57513
   57507      66   57513   57510      67   57522   57519      66   57525   57519
      66   57525   57522      67   57534   57531      66   57537   57531      66
   57537   57534      67   57546   57543      66   57549   57543      66   57549
   57546      67   57558   57555      66   57561   57555      66   57561   57558
      67   57570   57567      66   57573   57567      66   57573   57570      67
   57582   57579      66   57585   57579      66   57585   57582      67   57594
   57591      66   57597   57591      66   57597   57594      67   57606   57603
      66   57609   57603      66   57609   57606      67   57618   57615      66
   57621   57615      66   57621   57618      67   57630   57627      66   57633
   57627      66   57633   57630      67   57642   57639      66   57645   57639
      66   57645   57642      67   57654   57651      66   57657   57651      66
   57657   57654      67   57666   57663      66   57669   57663      66   57669
   57666      67   57678   57675      66   57681   57675      66   57681   57678
      67   57690   57687      66   57693   57687      66   57693   57690      67
   57702   57699      66   57705   57699      66   57705   57702      67   57714
   57711      66   57717   57711      66   57717   57714      67   57726   57723
      66   57729   57723      66   57729   57726      67   57738   57735      66
   57741   57735      66   57741   57738      67   57750   57747      66   57753
   57747      66   57753   57750      67   57762   57759      66   57765   57759
      66   57765   57762      67   57774   57771      66   57777   57771      66
   57777   57774      67   57786   57783      66   57789   57783      66   57789
   57786      67   57798   57795      66   57801   57795      66   57801   57798
      67   57810   57807      66   57813   57807      66   57813   57810      67
   57822   57819      66   57825   57819      66   57825   57822      67   57834
   57831      66   57837   57831      66   57837   57834      67   57846   57843
      66   57849   57843      66   57849   57846      67   57858   57855      66
   57861   57855      66   57861   57858      67   57870   57867      66   57873
   57867      66   57873   57870      67   57882   57879      66   57885   57879
      66   57885   57882      67   57894   57891      66   57897   57891      66
   57897   57894      67   57906   57903      66   57909   57903      66   57909
   57906      67   57918   57915      66   57921   57915      66   57921   57918
      67   57930   57927      66   57933   57927      66   57933   57930      67
   57942   57939      66   57945   57939      66   57945   57942      67   57954
   57951      66   57957   57951      66   57957   57954      67   57966   57963
      66   57969   57963      66   57969   57966      67   57978   57975      66
   57981   57975      66   57981   57978      67   57990   57987      66   57993
   57987      66   57993   57990      67   58002   57999      66   58005   57999
      66   58005   58002      67   58014   58011      66   58017   58011      66
   58017   58014      67   58026   58023      66   58029   58023      66   58029
   58026      67   58038   58035      66   58041   58035      66   58041   58038
      67   58050   58047      66   58053   58047      66   58053   58050      67
   58062   58059      66   58065   58059      66   58065   58062      67   58074
   58071      66   58077   58071      66   58077   58074      67   58086   58083
      66   58089   58083      66   58089   58086      67   58098   58095      66
   58101   58095      66   58101   58098      67   58110   58107      66   58113
   58107      66   58113   58110      67   58122   58119      66   58125   58119
      66   58125   58122      67   58134   58131      66   58137   58131      66
   58137   58134      67   58146   58143      66   58149   58143      66   58149
   58146      67   58158   58155      66   58161   58155      66   58161   58158
      67   58170   58167      66   58173   58167      66   58173   58170      67
   58182   58179      66   58185   58179      66   58185   58182      67   58194
   58191      66   58197   58191      66   58197   58194      67   58206   58203
      66   58209   58203      66   58209   58206      67   58218   58215      66
   58221   58215      66   58221   58218      67   58230   58227      66   58233
   58227      66   58233   58230      67   58242   58239      66   58245   58239
      66   58245   58242      67   58254   58251      66   58257   58251      66
   58257   58254      67   58266   58263      66   58269   58263      66   58269
   58266      67   58278   58275      66   58281   58275      66   58281   58278
      67   58290   58287      66   58293   58287      66   58293   58290      67
   58302   58299      66   58305   58299      66   58305   58302      67   58314
   58311      66   58317   58311      66   58317   58314      67   58326   58323
      66   58329   58323      66   58329   58326      67   58338   58335      66
   58341   58335      66   58341   58338      67   58350   58347      66   58353
   58347      66   58353   58350      67   58362   58359      66   58365   58359
      66   58365   58362      67   58374   58371      66   58377   58371      66
   58377   58374      67   58386   58383      66   58389   58383      66   58389
   58386      67   58398   58395      66   58401   58395      66   58401   58398
      67   58410   58407      66   58413   58407      66   58413   58410      67
   58422   58419      66   58425   58419      66   58425   58422      67   58434
   58431      66   58437   58431      66   58437   58434      67   58446   58443
      66   58449   58443      66   58449   58446      67   58458   58455      66
   58461   58455      66   58461   58458      67   58470   58467      66   58473
   58467      66   58473   58470      67   58482   58479      66   58485   58479
      66   58485   58482      67   58494   58491      66   58497   58491      66
   58497   58494      67   58506   58503      66   58509   58503      66   58509
   58506      67   58518   58515      66   58521   58515      66   58521   58518
      67   58530   58527      66   58533   58527      66   58533   58530      67
   58542   58539      66   58545   58539      66   58545   58542      67   58554
   58551      66   58557   58551      66   58557   58554      67   58566   58563
      66   58569   58563      66   58569   58566      67   58578   58575      66
   58581   58575      66   58581   58578      67   58590   58587      66   58593
   58587      66   58593   58590      67   58602   58599      66   58605   58599
      66   58605   58602      67   58614   58611      66   58617   58611      66
   58617   58614      67   58626   58623      66   58629   58623      66   58629
   58626      67   58638   58635      66   58641   58635      66   58641   58638
      67   58650   58647      66   58653   58647      66   58653   58650      67
   58662   58659      66   58665   58659      66   58665   58662      67   58674
   58671      66   58677   58671      66   58677   58674      67   58686   58683
      66   58689   58683      66   58689   58686      67   58698   58695      66
   58701   58695      66   58701   58698      67   58710   58707      66   58713
   58707      66   58713   58710      67   58722   58719      66   58725   58719
      66   58725   58722      67   58734   58731      66   58737   58731      66
   58737   58734      67   58746   58743      66   58749   58743      66   58749
   58746      67   58758   58755      66   58761   58755      66   58761   58758
      67   58770   58767      66   58773   58767      66   58773   58770      67
   58782   58779      66   58785   58779      66   58785   58782      67   58794
   58791      66   58797   58791      66   58797   58794      67   58806   58803
      66   58809   58803      66   58809   58806      67   58818   58815      66
   58821   58815      66   58821   58818      67   58830   58827      66   58833
   58827      66   58833   58830      67   58842   58839      66   58845   58839
      66   58845   58842      67   58854   58851      66   58857   58851      66
   58857   58854      67   58866   58863      66   58869   58863      66   58869
   58866      67   58878   58875      66   58881   58875      66   58881   58878
      67   58890   58887      66   58893   58887      66   58893   58890      67
   58902   58899      66   58905   58899      66   58905   58902      67   58914
   58911      66   58917   58911      66   58917   58914      67   58926   58923
      66   58929   58923      66   58929   58926      67   58938   58935      66
   58941   58935      66   58941   58938      67   58950   58947      66   58953
   58947      66   58953   58950      67   58962   58959      66   58965   58959
      66   58965   58962      67   58974   58971      66   58977   58971      66
   58977   58974      67   58986   58983      66   58989   58983      66   58989
   58986      67   58998   58995      66   59001   58995      66   59001   58998
      67   59010   59007      66   59013   59007      66   59013   59010      67
   59022   59019      66   59025   59019      66   59025   59022      67   59034
   59031      66   59037   59031      66   59037   59034      67   59046   59043
      66   59049   59043      66   59049   59046      67   59058   59055      66
   59061   59055      66   59061   59058      67   59070   59067      66   59073
   59067      66   59073   59070      67   59082   59079      66   59085   59079
      66   59085   59082      67   59094   59091      66   59097   59091      66
   59097   59094      67   59106   59103      66   59109   59103      66   59109
   59106      67   59118   59115      66   59121   59115      66   59121   59118
      67   59130   59127      66   59133   59127      66   59133   59130      67
   59142   59139      66   59145   59139      66   59145   59142      67   59154
   59151      66   59157   59151      66   59157   59154      67   59166   59163
      66   59169   59163      66   59169   59166      67   59178   59175      66
   59181   59175      66   59181   59178      67   59190   59187      66   59193
   59187      66   59193   59190      67   59202   59199      66   59205   59199
      66   59205   59202      67   59214   59211      66   59217   59211      66
   59217   59214      67   59226   59223      66   59229   59223      66   59229
   59226      67   59238   59235      66   59241   59235      66   59241   59238
      67   59250   59247      66   59253   59247      66   59253   59250      67
   59262   59259      66   59265   59259      66   59265   59262      67   59274
   59271      66   59277   59271      66   59277   59274      67   59286   59283
      66   59289   59283      66   59289   59286      67   59298   59295      66
   59301   59295      66   59301   59298      67   59310   59307      66   59313
   59307      66   59313   59310      67   59322   59319      66   59325   59319
      66   59325   59322      67   59334   59331      66   59337   59331      66
   59337   59334      67   59346   59343      66   59349   59343      66   59349
   59346      67   59358   59355      66   59361   59355      66   59361   59358
      67   59370   59367      66   59373   59367      66   59373   59370      67
   59382   59379      66   59385   59379      66   59385   59382      67   59394
   59391      66   59397   59391      66   59397   59394      67   59406   59403
      66   59409   59403      66   59409   59406      67   59418   59415      66
   59421   59415      66   59421   59418      67   59430   59427      66   59433
   59427      66   59433   59430      67   59442   59439      66   59445   59439
      66   59445   59442      67   59454   59451      66   59457   59451      66
   59457   59454      67   59466   59463      66   59469   59463      66   59469
   59466      67   59478   59475      66   59481   59475      66   59481   59478
      67   59490   59487      66   59493   59487      66   59493   59490      67
   59502   59499      66   59505   59499      66   59505   59502      67   59514
   59511      66   59517   59511      66   59517   59514      67   59526   59523
      66   59529   59523      66   59529   59526      67   59538   59535      66
   59541   59535      66   59541   59538      67   59550   59547      66   59553
   59547      66   59553   59550      67   59562   59559      66   59565   59559
      66   59565   59562      67   59574   59571      66   59577   59571      66
   59577   59574      67   59586   59583      66   59589   59583      66   59589
   59586      67   59598   59595      66   59601   59595      66   59601   59598
      67   59610   59607      66   59613   59607      66   59613   59610      67
   59622   59619      66   59625   59619      66   59625   59622      67   59634
   59631      66   59637   59631      66   59637   59634      67   59646   59643
      66   59649   59643      66   59649   59646      67   59658   59655      66
   59661   59655      66   59661   59658      67   59670   59667      66   59673
   59667      66   59673   59670      67   59682   59679      66   59685   59679
      66   59685   59682      67   59694   59691      66   59697   59691      66
   59697   59694      67   59706   59703      66   59709   59703      66   59709
   59706      67   59718   59715      66   59721   59715      66   59721   59718
      67   59730   59727      66   59733   59727      66   59733   59730      67
   59742   59739      66   59745   59739      66   59745   59742      67   59754
   59751      66   59757   59751      66   59757   59754      67   59766   59763
      66   59769   59763      66   59769   59766      67   59778   59775      66
   59781   59775      66   59781   59778      67   59790   59787      66   59793
   59787      66   59793   59790      67   59802   59799      66   59805   59799
      66   59805   59802      67   59814   59811      66   59817   59811      66
   59817   59814      67   59826   59823      66   59829   59823      66   59829
   59826      67   59838   59835      66   59841   59835      66   59841   59838
      67   59850   59847      66   59853   59847      66   59853   59850      67
   59862   59859      66   59865   59859      66   59865   59862      67   59874
   59871      66   59877   59871      66   59877   59874      67   59886   59883
      66   59889   59883      66   59889   59886      67   59898   59895      66
   59901   59895      66   59901   59898      67   59910   59907      66   59913
   59907      66   59913   59910      67   59922   59919      66   59925   59919
      66   59925   59922      67   59934   59931      66   59937   59931      66
   59937   59934      67   59946   59943      66   59949   59943      66   59949
   59946      67   59958   59955      66   59961   59955      66   59961   59958
      67   59970   59967      66   59973   59967      66   59973   59970      67
   59982   59979      66   59985   59979      66   59985   59982      67   59994
   59991      66   59997   59991      66   59997   59994      67   60006   60003
      66   60009   60003      66   60009   60006      67   60018   60015      66
   60021   60015      66   60021   60018      67   60030   60027      66   60033
   60027      66   60033   60030      67   60042   60039      66   60045   60039
      66   60045   60042      67   60054   60051      66   60057   60051      66
   60057   60054      67   60066   60063      66   60069   60063      66   60069
   60066      67   60078   60075      66   60081   60075      66   60081   60078
      67   60090   60087      66   60093   60087      66   60093   60090      67
   60102   60099      66   60105   60099      66   60105   60102      67   60114
   60111      66   60117   60111      66   60117   60114      67   60126   60123
      66   60129   60123      66   60129   60126      67   60138   60135      66
   60141   60135      66   60141   60138      67   60150   60147      66   60153
   60147      66   60153   60150      67   60162   60159      66   60165   60159
      66   60165   60162      67   60174   60171      66   60177   60171      66
   60177   60174      67   60186   60183      66   60189   60183      66   60189
   60186      67   60198   60195      66   60201   60195      66   60201   60198
      67   60210   60207      66   60213   60207      66   60213   60210      67
   60222   60219      66   60225   60219      66   60225   60222      67   60234
   60231      66   60237   60231      66   60237   60234      67   60246   60243
      66   60249   60243      66   60249   60246      67   60258   60255      66
   60261   60255      66   60261   60258      67   60270   60267      66   60273
   60267      66   60273   60270      67   60282   60279      66   60285   60279
      66   60285   60282      67   60294   60291      66   60297   60291      66
   60297   60294      67   60306   60303      66   60309   60303      66   60309
   60306      67   60318   60315      66   60321   60315      66   60321   60318
      67   60330   60327      66   60333   60327      66   60333   60330      67
   60342   60339      66   60345   60339      66   60345   60342      67   60354
   60351      66   60357   60351      66   60357   60354      67   60366   60363
      66   60369   60363      66   60369   60366      67   60378   60375      66
   60381   60375      66   60381   60378      67   60390   60387      66   60393
   60387      66   60393   60390      67   60402   60399      66   60405   60399
      66   60405   60402      67   60414   60411      66   60417   60411      66
   60417   60414      67   60426   60423      66   60429   60423      66   60429
   60426      67   60438   60435      66   60441   60435      66   60441   60438
      67   60450   60447      66   60453   60447      66   60453   60450      67
   60462   60459      66   60465   60459      66   60465   60462      67   60474
   60471      66   60477   60471      66   60477   60474      67   60486   60483
      66   60489   60483      66   60489   60486      67   60498   60495      66
   60501   60495      66   60501   60498      67   60510   60507      66   60513
   60507      66   60513   60510      67   60522   60519      66   60525   60519
      66   60525   60522      67   60534   60531      66   60537   60531      66
   60537   60534      67   60546   60543      66   60549   60543      66   60549
   60546      67   60558   60555      66   60561   60555      66   60561   60558
      67   60570   60567      66   60573   60567      66   60573   60570      67
   60582   60579      66   60585   60579      66   60585   60582      67   60594
   60591      66   60597   60591      66   60597   60594      67   60606   60603
      66   60609   60603      66   60609   60606      67   60618   60615      66
   60621   60615      66   60621   60618      67   60630   60627      66   60633
   60627      66   60633   60630      67   60642   60639      66   60645   60639
      66   60645   60642      67   60654   60651      66   60657   60651      66
   60657   60654      67   60666   60663      66   60669   60663      66   60669
   60666      67   60678   60675      66   60681   60675      66   60681   60678
      67   60690   60687      66   60693   60687      66   60693   60690      67
   60702   60699      66   60705   60699      66   60705   60702      67   60714
   60711      66   60717   60711      66   60717   60714      67   60726   60723
      66   60729   60723      66   60729   60726      67   60738   60735      66
   60741   60735      66   60741   60738      67   60750   60747      66   60753
   60747      66   60753   60750      67   60762   60759      66   60765   60759
      66   60765   60762      67   60774   60771      66   60777   60771      66
   60777   60774      67   60786   60783      66   60789   60783      66   60789
   60786      67   60798   60795      66   60801   60795      66   60801   60798
      67   60810   60807      66   60813   60807      66   60813   60810      67
   60822   60819      66   60825   60819      66   60825   60822      67   60834
   60831      66   60837   60831      66   60837   60834      67   60846   60843
      66   60849   60843      66   60849   60846      67   60858   60855      66
   60861   60855      66   60861   60858      67   60870   60867      66   60873
   60867      66   60873   60870      67   60882   60879      66   60885   60879
      66   60885   60882      67   60894   60891      66   60897   60891      66
   60897   60894      67   60906   60903      66   60909   60903      66   60909
   60906      67   60918   60915      66   60921   60915      66   60921   60918
      67   60930   60927      66   60933   60927      66   60933   60930      67
   60942   60939      66   60945   60939      66   60945   60942      67   60954
   60951      66   60957   60951      66   60957   60954      67   60966   60963
      66   60969   60963      66   60969   60966      67   60978   60975      66
   60981   60975      66   60981   60978      67   60990   60987      66   60993
   60987      66   60993   60990      67   61002   60999      66   61005   60999
      66   61005   61002      67   61014   61011      66   61017   61011      66
   61017   61014      67   61026   61023      66   61029   61023      66   61029
   61026      67   61038   61035      66   61041   61035      66   61041   61038
      67   61050   61047      66   61053   61047      66   61053   61050      67
   61062   61059      66   61065   61059      66   61065   61062      67   61074
   61071      66   61077   61071      66   61077   61074      67   61086   61083
      66   61089   61083      66   61089   61086      67   61098   61095      66
   61101   61095      66   61101   61098      67   61110   61107      66   61113
   61107      66   61113   61110      67   61122   61119      66   61125   61119
      66   61125   61122      67   61134   61131      66   61137   61131      66
   61137   61134      67   61146   61143      66   61149   61143      66   61149
   61146      67   61158   61155      66   61161   61155      66   61161   61158
      67   61170   61167      66   61173   61167      66   61173   61170      67
   61182   61179      66   61185   61179      66   61185   61182      67   61194
   61191      66   61197   61191      66   61197   61194      67   61206   61203
      66   61209   61203      66   61209   61206      67   61218   61215      66
   61221   61215      66   61221   61218      67   61230   61227      66   61233
   61227      66   61233   61230      67   61242   61239      66   61245   61239
      66   61245   61242      67   61254   61251      66   61257   61251      66
   61257   61254      67   61266   61263      66   61269   61263      66   61269
   61266      67   61278   61275      66   61281   61275      66   61281   61278
      67   61290   61287      66   61293   61287      66   61293   61290      67
   61302   61299      66   61305   61299      66   61305   61302      67   61314
   61311      66   61317   61311      66   61317   61314      67   61326   61323
      66   61329   61323      66   61329   61326      67   61338   61335      66
   61341   61335      66   61341   61338      67   61350   61347      66   61353
   61347      66   61353   61350      67   61362   61359      66   61365   61359
      66   61365   61362      67   61374   61371      66   61377   61371      66
   61377   61374      67   61386   61383      66   61389   61383      66   61389
   61386      67   61398   61395      66   61401   61395      66   61401   61398
      67   61410   61407      66   61413   61407      66   61413   61410      67
   61422   61419      66   61425   61419      66   61425   61422      67   61434
   61431      66   61437   61431      66   61437   61434      67   61446   61443
      66   61449   61443      66   61449   61446      67   61458   61455      66
   61461   61455      66   61461   61458      67   61470   61467      66   61473
   61467      66   61473   61470      67   61482   61479      66   61485   61479
      66   61485   61482      67   61494   61491      66   61497   61491      66
   61497   61494      67   61506   61503      66   61509   61503      66   61509
   61506      67   61518   61515      66   61521   61515      66   61521   61518
      67   61530   61527      66   61533   61527      66   61533   61530      67
   61542   61539      66   61545   61539      66   61545   61542      67   61554
   61551      66   61557   61551      66   61557   61554      67   61566   61563
      66   61569   61563      66   61569   61566      67   61578   61575      66
   61581   61575      66   61581   61578      67   61590   61587      66   61593
   61587      66   61593   61590      67   61602   61599      66   61605   61599
      66   61605   61602      67   61614   61611      66   61617   61611      66
   61617   61614      67   61626   61623      66   61629   61623      66   61629
   61626      67   61638   61635      66   61641   61635      66   61641   61638
      67   61650   61647      66   61653   61647      66   61653   61650      67
   61662   61659      66   61665   61659      66   61665   61662      67   61674
   61671      66   61677   61671      66   61677   61674      67   61686   61683
      66   61689   61683      66   61689   61686      67   61698   61695      66
   61701   61695      66   61701   61698      67   61710   61707      66   61713
   61707      66   61713   61710      67   61722   61719      66   61725   61719
      66   61725   61722      67   61734   61731      66   61737   61731      66
   61737   61734      67   61746   61743      66   61749   61743      66   61749
   61746      67   61758   61755      66   61761   61755      66   61761   61758
      67   61770   61767      66   61773   61767      66   61773   61770      67
   61782   61779      66   61785   61779      66   61785   61782      67   61794
   61791      66   61797   61791      66   61797   61794      67   61806   61803
      66   61809   61803      66   61809   61806      67   61818   61815      66
   61821   61815      66   61821   61818      67   61830   61827      66   61833
   61827      66   61833   61830      67   61842   61839      66   61845   61839
      66   61845   61842      67   61854   61851      66   61857   61851      66
   61857   61854      67   61866   61863      66   61869   61863      66   61869
   61866      67   61878   61875      66   61881   61875      66   61881   61878
      67   61890   61887      66   61893   61887      66   61893   61890      67
   61902   61899      66   61905   61899      66   61905   61902      67   61914
   61911      66   61917   61911      66   61917   61914      67   61926   61923
      66   61929   61923      66   61929   61926      67   61938   61935      66
   61941   61935      66   61941   61938      67   61950   61947      66   61953
   61947      66   61953   61950      67   61962   61959      66   61965   61959
      66   61965   61962      67   61974   61971      66   61977   61971      66
   61977   61974      67   61986   61983      66   61989   61983      66   61989
   61986      67   61998   61995      66   62001   61995      66   62001   61998
      67   62010   62007      66   62013   62007      66   62013   62010      67
   62022   62019      66   62025   62019      66   62025   62022      67   62034
   62031      66   62037   62031      66   62037   62034      67   62046   62043
      66   62049   62043      66   62049   62046      67   62058   62055      66
   62061   62055      66   62061   62058      67   62070   62067      66   62073
   62067      66   62073   62070      67   62082   62079      66   62085   62079
      66   62085   62082      67   62094   62091      66   62097   62091      66
   62097   62094      67   62106   62103      66   62109   62103      66   62109
   62106      67   62118   62115      66   62121   62115      66   62121   62118
      67   62130   62127      66   62133   62127      66   62133   62130      67
   62142   62139      66   62145   62139      66   62145   62142      67   62154
   62151      66   62157   62151      66   62157   62154      67   62166   62163
      66   62169   62163      66   62169   62166      67   62178   62175      66
   62181   62175      66   62181   62178      67   62190   62187      66   62193
   62187      66   62193   62190      67   62202   62199      66   62205   62199
      66   62205   62202      67   62214   62211      66   62217   62211      66
   62217   62214      67   62226   62223      66   62229   62223      66   62229
   62226      67   62238   62235      66   62241   62235      66   62241   62238
      67   62250   62247      66   62253   62247      66   62253   62250      67
   62262   62259      66   62265   62259      66   62265   62262      67   62274
   62271      66   62277   62271      66   62277   62274      67   62286   62283
      66   62289   62283      66   62289   62286      67   62298   62295      66
   62301   62295      66   62301   62298      67   62310   62307      66   62313
   62307      66   62313   62310      67   62322   62319      66   62325   62319
      66   62325   62322      67   62334   62331      66   62337   62331      66
   62337   62334      67   62346   62343      66   62349   62343      66   62349
   62346      67   62358   62355      66   62361   62355      66   62361   62358
      67   62370   62367      66   62373   62367      66   62373   62370      67
   62382   62379      66   62385   62379      66   62385   62382      67   62394
   62391      66   62397   62391      66   62397   62394      67   62406   62403
      66   62409   62403      66   62409   62406      67   62418   62415      66
   62421   62415      66   62421   62418      67   62430   62427      66   62433
   62427      66   62433   62430      67   62442   62439      66   62445   62439
      66   62445   62442      67   62454   62451      66   62457   62451      66
   62457   62454      67   62466   62463      66   62469   62463      66   62469
   62466      67   62478   62475      66   62481   62475      66   62481   62478
      67   62490   62487      66   62493   62487      66   62493   62490      67
   62502   62499      66   62505   62499      66   62505   62502      67   62514
   62511      66   62517   62511      66   62517   62514      67   62526   62523
      66   62529   62523      66   62529   62526      67   62538   62535      66
   62541   62535      66   62541   62538      67   62550   62547      66   62553
   62547      66   62553   62550      67   62562   62559      66   62565   62559
      66   62565   62562      67   62574   62571      66   62577   62571      66
   62577   62574      67   62586   62583      66   62589   62583      66   62589
   62586      67   62598   62595      66   62601   62595      66   62601   62598
      67   62610   62607      66   62613   62607      66   62613   62610      67
   62622   62619      66   62625   62619      66   62625   62622      67   62634
   62631      66   62637   62631      66   62637   62634      67   62646   62643
      66   62649   62643      66   62649   62646      67   62658   62655      66
   62661   62655      66   62661   62658      67   62670   62667      66   62673
   62667      66   62673   62670      67   62682   62679      66   62685   62679
      66   62685   62682      67   62694   62691      66   62697   62691      66
   62697   62694      67   62706   62703      66   62709   62703      66   62709
   62706      67   62718   62715      66   62721   62715      66   62721   62718
      67   62730   62727      66   62733   62727      66   62733   62730      67
   62742   62739      66   62745   62739      66   62745   62742      67   62754
   62751      66   62757   62751      66   62757   62754      67   62766   62763
      66   62769   62763      66   62769   62766      67   62778   62775      66
   62781   62775      66   62781   62778      67   62790   62787      66   62793
   62787      66   62793   62790      67   62802   62799      66   62805   62799
      66   62805   62802      67   62814   62811      66   62817   62811      66
   62817   62814      67   62826   62823      66   62829   62823      66   62829
   62826      67   62838   62835      66   62841   62835      66   62841   62838
      67   62850   62847      66   62853   62847      66   62853   62850      67
   62862   62859      66   62865   62859      66   62865   62862      67   62874
   62871      66   62877   62871      66   62877   62874      67   62886   62883
      66   62889   62883      66   62889   62886      67   62898   62895      66
   62901   62895      66   62901   62898      67   62910   62907      66   62913
   62907      66   62913   62910      67   62922   62919      66   62925   62919
      66   62925   62922      67   62934   62931      66   62937   62931      66
   62937   62934      67   62946   62943      66   62949   62943      66   62949
   62946      67   62958   62955      66   62961   62955      66   62961   62958
      67   62970   62967      66   62973   62967      66   62973   62970      67
   62982   62979      66   62985   62979      66   62985   62982      67   62994
   62991      66   62997   62991      66   62997   62994      67   63006   63003
      66   63009   63003      66   63009   63006      67   63018   63015      66
   63021   63015      66   63021   63018      67   63030   63027      66   63033
   63027      66   63033   63030      67   63042   63039      66   63045   63039
      66   63045   63042      67   63054   63051      66   63057   63051      66
   63057   63054      67   63066   63063      66   63069   63063      66   63069
   63066      67   63078   63075      66   63081   63075      66   63081   63078
      67   63090   63087      66   63093   63087      66   63093   63090      67
   63102   63099      66   63105   63099      66   63105   63102      67   63114
   63111      66   63117   63111      66   63117   63114      67   63126   63123
      66   63129   63123      66   63129   63126      67   63138   63135      66
   63141   63135      66   63141   63138      67   63150   63147      66   63153
   63147      66   63153   63150      67   63162   63159      66   63165   63159
      66   63165   63162      67   63174   63171      66   63177   63171      66
   63177   63174      67   63186   63183      66   63189   63183      66   63189
   63186      67   63198   63195      66   63201   63195      66   63201   63198
      67   63210   63207      66   63213   63207      66   63213   63210      67
   63222   63219      66   63225   63219      66   63225   63222      67   63234
   63231      66   63237   63231      66   63237   63234      67   63246   63243
      66   63249   63243      66   63249   63246      67   63258   63255      66
   63261   63255      66   63261   63258      67   63270   63267      66   63273
   63267      66   63273   63270      67   63282   63279      66   63285   63279
      66   63285   63282      67   63294   63291      66   63297   63291      66
   63297   63294      67   63306   63303      66   63309   63303      66   63309
   63306      67   63318   63315      66   63321   63315      66   63321   63318
      67   63330   63327      66   63333   63327      66   63333   63330      67
   63342   63339      66   63345   63339      66   63345   63342      67   63354
   63351      66   63357   63351      66   63357   63354      67   63366   63363
      66   63369   63363      66   63369   63366      67   63378   63375      66
   63381   63375      66   63381   63378      67   63390   63387      66   63393
   63387      66   63393   63390      67   63402   63399      66   63405   63399
      66   63405   63402      67   63414   63411      66   63417   63411      66
   63417   63414      67   63426   63423      66   63429   63423      66   63429
   63426      67   63438   63435      66   63441   63435      66   63441   63438
      67   63450   63447      66   63453   63447      66   63453   63450      67
   63462   63459      66   63465   63459      66   63465   63462      67   63474
   63471      66   63477   63471      66   63477   63474      67   63486   63483
      66   63489   63483      66   63489   63486      67   63498   63495      66
   63501   63495      66   63501   63498      67   63510   63507      66   63513
   63507      66   63513   63510      67   63522   63519      66   63525   63519
      66   63525   63522      67   63534   63531      66   63537   63531      66
   63537   63534      67   63546   63543      66   63549   63543      66   63549
   63546      67   63558   63555      66   63561   63555      66   63561   63558
      67   63570   63567      66   63573   63567      66   63573   63570      67
   63582   63579      66   63585   63579      66   63585   63582      67   63594
   63591      66   63597   63591      66   63597   63594      67   63606   63603
      66   63609   63603      66   63609   63606      67   63618   63615      66
   63621   63615      66   63621   63618      67   63630   63627      66   63633
   63627      66   63633   63630      67   63642   63639      66   63645   63639
      66   63645   63642      67   63654   63651      66   63657   63651      66
   63657   63654      67   63666   63663      66   63669   63663      66   63669
   63666      67   63678   63675      66   63681   63675      66   63681   63678
      67   63690   63687      66   63693   63687      66   63693   63690      67
   63702   63699      66   63705   63699      66   63705   63702      67   63714
   63711      66   63717   63711      66   63717   63714      67   63726   63723
      66   63729   63723      66   63729   63726      67   63738   63735      66
   63741   63735      66   63741   63738      67   63750   63747      66   63753
   63747      66   63753   63750      67   63762   63759      66   63765   63759
      66   63765   63762      67   63774   63771      66   63777   63771      66
   63777   63774      67   63786   63783      66   63789   63783      66   63789
   63786      67   63798   63795      66   63801   63795      66   63801   63798
      67   63810   63807      66   63813   63807      66   63813   63810      67
   63822   63819      66   63825   63819      66   63825   63822      67   63834
   63831      66   63837   63831      66   63837   63834      67   63846   63843
      66   63849   63843      66   63849   63846      67   63858   63855      66
   63861   63855      66   63861   63858      67   63870   63867      66   63873
   63867      66   63873   63870      67   63882   63879      66   63885   63879
      66   63885   63882      67   63894   63891      66   63897   63891      66
   63897   63894      67   63906   63903      66   63909   63903      66   63909
   63906      67   63918   63915      66   63921   63915      66   63921   63918
      67   63930   63927      66   63933   63927      66   63933   63930      67
   63942   63939      66   63945   63939      66   63945   63942      67   63954
   63951      66   63957   63951      66   63957   63954      67   63966   63963
      66   63969   63963      66   63969   63966      67   63978   63975      66
   63981   63975      66   63981   63978      67   63990   63987      66   63993
   63987      66   63993   63990      67   64002   63999      66   64005   63999
      66   64005   64002      67   64014   64011      66   64017   64011      66
   64017   64014      67   64026   64023      66   64029   64023      66   64029
   64026      67   64038   64035      66   64041   64035      66   64041   64038
      67   64050   64047      66   64053   64047      66   64053   64050      67
   64062   64059      66   64065   64059      66   64065   64062      67   64074
   64071      66   64077   64071      66   64077   64074      67   64086   64083
      66   64089   64083      66   64089   64086      67   64098   64095      66
   64101   64095      66   64101   64098      67   64110   64107      66   64113
   64107      66   64113   64110      67   64122   64119      66   64125   64119
      66   64125   64122      67   64134   64131      66   64137   64131      66
   64137   64134      67   64146   64143      66   64149   64143      66   64149
   64146      67   64158   64155      66   64161   64155      66   64161   64158
      67   64170   64167      66   64173   64167      66   64173   64170      67
   64182   64179      66   64185   64179      66   64185   64182      67   64194
   64191      66   64197   64191      66   64197   64194      67   64206   64203
      66   64209   64203      66   64209   64206      67   64218   64215      66
   64221   64215      66   64221   64218      67   64230   64227      66   64233
   64227      66   64233   64230      67   64242   64239      66   64245   64239
      66   64245   64242      67   64254   64251      66   64257   64251      66
   64257   64254      67   64266   64263      66   64269   64263      66   64269
   64266      67   64278   64275      66   64281   64275      66   64281   64278
      67   64290   64287      66   64293   64287      66   64293   64290      67
   64302   64299      66   64305   64299      66   64305   64302      67   64314
   64311      66   64317   64311      66   64317   64314      67   64326   64323
      66   64329   64323      66   64329   64326      67   64338   64335      66
   64341   64335      66   64341   64338      67   64350   64347      66   64353
   64347      66   64353   64350      67   64362   64359      66   64365   64359
      66   64365   64362      67   64374   64371      66   64377   64371      66
   64377   64374      67   64386   64383      66   64389   64383      66   64389
   64386      67   64398   64395      66   64401   64395      66   64401   64398
      67   64410   64407      66   64413   64407      66   64413   64410      67
   64422   64419      66   64425   64419      66   64425   64422      67   64434
   64431      66   64437   64431      66   64437   64434      67   64446   64443
      66   64449   64443      66   64449   64446      67   64458   64455      66
   64461   64455      66   64461   64458      67   64470   64467      66   64473
   64467      66   64473   64470      67   64482   64479      66   64485   64479
      66   64485   64482      67   64494   64491      66   64497   64491      66
   64497   64494      67   64506   64503      66   64509   64503      66   64509
   64506      67   64518   64515      66   64521   64515      66   64521   64518
      67   64530   64527      66   64533   64527      66   64533   64530      67
   64542   64539      66   64545   64539      66   64545   64542      67   64554
   64551      66   64557   64551      66   64557   64554      67   64566   64563
      66   64569   64563      66   64569   64566      67   64578   64575      66
   64581   64575      66   64581   64578      67   64590   64587      66   64593
   64587      66   64593   64590      67   64602   64599      66   64605   64599
      66   64605   64602      67   64614   64611      66   64617   64611      66
   64617   64614      67   64626   64623      66   64629   64623      66   64629
   64626      67   64638   64635      66   64641   64635      66   64641   64638
      67   64650   64647      66   64653   64647      66   64653   64650      67
   64662   64659      66   64665   64659      66   64665   64662      67   64674
   64671      66   64677   64671      66   64677   64674      67   64686   64683
      66   64689   64683      66   64689   64686      67   64698   64695      66
   64701   64695      66   64701   64698      67   64710   64707      66   64713
   64707      66   64713   64710      67   64722   64719      66   64725   64719
      66   64725   64722      67   64734   64731      66   64737   64731      66
   64737   64734      67   64746   64743      66   64749   64743      66   64749
   64746      67   64758   64755      66   64761   64755      66   64761   64758
      67   64770   64767      66   64773   64767      66   64773   64770      67
   64782   64779      66   64785   64779      66   64785   64782      67   64794
   64791      66   64797   64791      66   64797   64794      67   64806   64803
      66   64809   64803      66   64809   64806      67   64818   64815      66
   64821   64815      66   64821   64818      67   64830   64827      66   64833
   64827      66   64833   64830      67   64842   64839      66   64845   64839
      66   64845   64842      67   64854   64851      66   64857   64851      66
   64857   64854      67   64866   64863      66   64869   64863      66   64869
   64866      67   64878   64875      66   64881   64875      66   64881   64878
      67   64890   64887      66   64893   64887      66   64893   64890      67
   64902   64899      66   64905   64899      66   64905   64902      67   64914
   64911      66   64917   64911      66   64917   64914      67   64926   64923
      66   64929   64923      66   64929   64926      67   64938   64935      66
   64941   64935      66   64941   64938      67   64950   64947      66   64953
   64947      66   64953   64950      67   64962   64959      66   64965   64959
      66   64965   64962      67   64974   64971      66   64977   64971      66
   64977   64974      67   64986   64983      66   64989   64983      66   64989
   64986      67   64998   64995      66   65001   64995      66   65001   64998
      67   65010   65007      66   65013   65007      66   65013   65010      67
   65022   65019      66   65025   65019      66   65025   65022      67   65034
   65031      66   65037   65031      66   65037   65034      67   65046   65043
      66   65049   65043      66   65049   65046      67   65058   65055      66
   65061   65055      66   65061   65058      67   65070   65067      66   65073
   65067      66   65073   65070      67   65082   65079      66   65085   65079
      66   65085   65082      67   65094   65091      66   65097   65091      66
   65097   65094      67   65106   65103      66   65109   65103      66   65109
   65106      67   65118   65115      66   65121   65115      66   65121   65118
      67   65130   65127      66   65133   65127      66   65133   65130      67
   65142   65139      66   65145   65139      66   65145   65142      67   65154
   65151      66   65157   65151      66   65157   65154      67   65166   65163
      66   65169   65163      66   65169   65166      67   65178   65175      66
   65181   65175      66   65181   65178      67   65190   65187      66   65193
   65187      66   65193   65190      67   65202   65199      66   65205   65199
      66   65205   65202      67   65214   65211      66   65217   65211      66
   65217   65214      67   65226   65223      66   65229   65223      66   65229
   65226      67   65238   65235      66   65241   65235      66   65241   65238
      67   65250   65247      66   65253   65247      66   65253   65250      67
   65262   65259      66   65265   65259      66   65265   65262      67   65274
   65271      66   65277   65271      66   65277   65274      67   65286   65283
      66   65289   65283      66   65289   65286      67   65298   65295      66
   65301   65295      66   65301   65298      67   65310   65307      66   65313
   65307      66   65313   65310      67   65322   65319      66   65325   65319
      66   65325   65322      67   65334   65331      66   65337   65331      66
   65337   65334      67   65346   65343      66   65349   65343      66   65349
   65346      67   65358   65355      66   65361   65355      66   65361   65358
      67   65370   65367      66   65373   65367      66   65373   65370      67
   65382   65379      66   65385   65379      66   65385   65382      67   65394
   65391      66   65397   65391      66   65397   65394      67   65406   65403
      66   65409   65403      66   65409   65406      67   65418   65415      66
   65421   65415      66   65421   65418      67   65430   65427      66   65433
   65427      66   65433   65430      67   65442   65439      66   65445   65439
      66   65445   65442      67   65454   65451      66   65457   65451      66
   65457   65454      67   65466   65463      66   65469   65463      66   65469
   65466      67   65478   65475      66   65481   65475      66   65481   65478
      67   65490   65487      66   65493   65487      66   65493   65490      67
   65502   65499      66   65505   65499      66   65505   65502      67   65514
   65511      66   65517   65511      66   65517   65514      67   65526   65523
      66   65529   65523      66   65529   65526      67   65538   65535      66
   65541   65535      66   65541   65538      67   65550   65547      66   65553
   65547      66   65553   65550      67   65562   65559      66   65565   65559
      66   65565   65562      67   65574   65571      66   65577   65571      66
   65577   65574      67   65586   65583      66   65589   65583      66   65589
   65586      67   65598   65595      66   65601   65595      66   65601   65598
      67   65610   65607      66   65613   65607      66   65613   65610      67
   65622   65619      66   65625   65619      66   65625   65622      67   65634
   65631      66   65637   65631      66   65637   65634      67   65646   65643
      66   65649   65643      66   65649   65646      67   65658   65655      66
   65661   65655      66   65661   65658      67   65670   65667      66   65673
   65667      66   65673   65670      67   65682   65679      66   65685   65679
      66   65685   65682      67   65694   65691      66   65697   65691      66
   65697   65694      67   65706   65703      66   65709   65703      66   65709
   65706      67   65718   65715      66   65721   65715      66   65721   65718
      67   65730   65727      66   65733   65727      66   65733   65730      67
   65742   65739      66   65745   65739      66   65745   65742      67   65754
   65751      66   65757   65751      66   65757   65754      67   65766   65763
      66   65769   65763      66   65769   65766      67   65778   65775      66
   65781   65775      66   65781   65778      67   65790   65787      66   65793
   65787      66   65793   65790      67   65802   65799      66   65805   65799
      66   65805   65802      67   65814   65811      66   65817   65811      66
   65817   65814      67   65826   65823      66   65829   65823      66   65829
   65826      67   65838   65835      66   65841   65835      66   65841   65838
      67   65850   65847      66   65853   65847      66   65853   65850      67
   65862   65859      66   65865   65859      66   65865   65862      67   65874
   65871      66   65877   65871      66   65877   65874      67   65886   65883
      66   65889   65883      66   65889   65886      67   65898   65895      66
   65901   65895      66   65901   65898      67   65910   65907      66   65913
   65907      66   65913   65910      67   65922   65919      66   65925   65919
      66   65925   65922      67   65934   65931      66   65937   65931      66
   65937   65934      67   65946   65943      66   65949   65943      66   65949
   65946      67   65958   65955      66   65961   65955      66   65961   65958
      67   65970   65967      66   65973   65967      66   65973   65970      67
   65982   65979      66   65985   65979      66   65985   65982      67   65994
   65991      66   65997   65991      66   65997   65994      67   66006   66003
      66   66009   66003      66   66009   66006      67   66018   66015      66
   66021   66015      66   66021   66018      67   66030   66027      66   66033
   66027      66   66033   66030      67   66042   66039      66   66045   66039
      66   66045   66042      67   66054   66051      66   66057   66051      66
   66057   66054      67   66066   66063      66   66069   66063      66   66069
   66066      67   66078   66075      66   66081   66075      66   66081   66078
      67   66090   66087      66   66093   66087      66   66093   66090      67
   66102   66099      66   66105   66099      66   66105   66102      67   66114
   66111      66   66117   66111      66   66117   66114      67   66126   66123
      66   66129   66123      66   66129   66126      67   66138   66135      66
   66141   66135      66   66141   66138      67   66150   66147      66   66153
   66147      66   66153   66150      67   66162   66159      66   66165   66159
      66   66165   66162      67   66174   66171      66   66177   66171      66
   66177   66174      67   66186   66183      66   66189   66183      66   66189
   66186      67   66198   66195      66   66201   66195      66   66201   66198
      67   66210   66207      66   66213   66207      66   66213   66210      67
   66222   66219      66   66225   66219      66   66225   66222      67   66234
   66231      66   66237   66231      66   66237   66234      67   66246   66243
      66   66249   66243      66   66249   66246      67   66258   66255      66
   66261   66255      66   66261   66258      67   66270   66267      66   66273
   66267      66   66273   66270      67   66282   66279      66   66285   66279
      66   66285   66282      67   66294   66291      66   66297   66291      66
   66297   66294      67   66306   66303      66   66309   66303      66   66309
   66306      67   66318   66315      66   66321   66315      66   66321   66318
      67   66330   66327      66   66333   66327      66   66333   66330      67
   66342   66339      66   66345   66339      66   66345   66342      67   66354
   66351      66   66357   66351      66   66357   66354      67   66366   66363
      66   66369   66363      66   66369   66366      67   66378   66375      66
   66381   66375      66   66381   66378      67   66390   66387      66   66393
   66387      66   66393   66390      67   66402   66399      66   66405   66399
      66   66405   66402      67   66414   66411      66   66417   66411      66
   66417   66414      67   66426   66423      66   66429   66423      66   66429
   66426      67   66438   66435      66   66441   66435      66   66441   66438
      67   66450   66447      66   66453   66447      66   66453   66450      67
   66462   66459      66   66465   66459      66   66465   66462      67   66474
   66471      66   66477   66471      66   66477   66474      67   66486   66483
      66   66489   66483      66   66489   66486      67   66498   66495      66
   66501   66495      66   66501   66498      67   66510   66507      66   66513
   66507      66   66513   66510      67   66522   66519      66   66525   66519
      66   66525   66522      67   66534   66531      66   66537   66531      66
   66537   66534      67   66546   66543      66   66549   66543      66   66549
   66546      67   66558   66555      66   66561   66555      66   66561   66558
      67   66570   66567      66   66573   66567      66   66573   66570      67
   66582   66579      66   66585   66579      66   66585   66582      67   66594
   66591      66   66597   66591      66   66597   66594      67   66606   66603
      66   66609   66603      66   66609   66606      67   66618   66615      66
   66621   66615      66   66621   66618      67   66630   66627      66   66633
   66627      66   66633   66630      67   66642   66639      66   66645   66639
      66   66645   66642      67   66654   66651      66   66657   66651      66
   66657   66654      67   66666   66663      66   66669   66663      66   66669
   66666      67   66678   66675      66   66681   66675      66   66681   66678
      67   66690   66687      66   66693   66687      66   66693   66690      67
   66702   66699      66   66705   66699      66   66705   66702      67   66714
   66711      66   66717   66711      66   66717   66714      67   66726   66723
      66   66729   66723      66   66729   66726      67   66738   66735      66
   66741   66735      66   66741   66738      67   66750   66747      66   66753
   66747      66   66753   66750      67   66762   66759      66   66765   66759
      66   66765   66762      67   66774   66771      66   66777   66771      66
   66777   66774      67   66786   66783      66   66789   66783      66   66789
   66786      67   66798   66795      66   66801   66795      66   66801   66798
      67   66810   66807      66   66813   66807      66   66813   66810      67
   66822   66819      66   66825   66819      66   66825   66822      67   66834
   66831      66   66837   66831      66   66837   66834      67   66846   66843
      66   66849   66843      66   66849   66846      67   66858   66855      66
   66861   66855      66   66861   66858      67   66870   66867      66   66873
   66867      66   66873   66870      67   66882   66879      66   66885   66879
      66   66885   66882      67   66894   66891      66   66897   66891      66
   66897   66894      67   66906   66903      66   66909   66903      66   66909
   66906      67   66918   66915      66   66921   66915      66   66921   66918
      67   66930   66927      66   66933   66927      66   66933   66930      67
   66942   66939      66   66945   66939      66   66945   66942      67   66954
   66951      66   66957   66951      66   66957   66954      67   66966   66963
      66   66969   66963      66   66969   66966      67   66978   66975      66
   66981   66975      66   66981   66978      67   66990   66987      66   66993
   66987      66   66993   66990      67   67002   66999      66   67005   66999
      66   67005   67002      67   67014   67011      66   67017   67011      66
   67017   67014      67   67026   67023      66   67029   67023      66   67029
   67026      67   67038   67035      66   67041   67035      66   67041   67038
      67   67050   67047      66   67053   67047      66   67053   67050      67
   67062   67059      66   67065   67059      66   67065   67062      67   67074
   67071      66   67077   67071      66   67077   67074      67   67086   67083
      66   67089   67083      66   67089   67086      67   67098   67095      66
   67101   67095      66   67101   67098      67   67110   67107      66   67113
   67107      66   67113   67110      67   67122   67119      66   67125   67119
      66   67125   67122      67   67134   67131      66   67137   67131      66
   67137   67134      67   67146   67143      66   67149   67143      66   67149
   67146      67   67158   67155      66   67161   67155      66   67161   67158
      67   67170   67167      66   67173   67167      66   67173   67170      67
   67182   67179      66   67185   67179      66   67185   67182      67   67194
   67191      66   67197   67191      66   67197   67194      67   67206   67203
      66   67209   67203      66   67209   67206      67   67218   67215      66
   67221   67215      66   67221   67218      67   67230   67227      66   67233
   67227      66   67233   67230      67   67242   67239      66   67245   67239
      66   67245   67242      67   67254   67251      66   67257   67251      66
   67257   67254      67   67266   67263      66   67269   67263      66   67269
   67266      67   67278   67275      66   67281   67275      66   67281   67278
      67   67290   67287      66   67293   67287      66   67293   67290      67
   67302   67299      66   67305   67299      66   67305   67302      67   67314
   67311      66   67317   67311      66   67317   67314      67   67326   67323
      66   67329   67323      66   67329   67326      67   67338   67335      66
   67341   67335      66   67341   67338      67   67350   67347      66   67353
   67347      66   67353   67350      67   67362   67359      66   67365   67359
      66   67365   67362      67   67374   67371      66   67377   67371      66
   67377   67374      67   67386   67383      66   67389   67383      66   67389
   67386      67   67398   67395      66   67401   67395      66   67401   67398
      67   67410   67407      66   67413   67407      66   67413   67410      67
   67422   67419      66   67425   67419      66   67425   67422      67   67434
   67431      66   67437   67431      66   67437   67434      67   67446   67443
      66   67449   67443      66   67449   67446      67   67458   67455      66
   67461   67455      66   67461   67458      67   67470   67467      66   67473
   67467      66   67473   67470      67   67482   67479      66   67485   67479
      66   67485   67482      67   67494   67491      66   67497   67491      66
   67497   67494      67   67506   67503      66   67509   67503      66   67509
   67506      67   67518   67515      66   67521   67515      66   67521   67518
      67   67530   67527      66   67533   67527      66   67533   67530      67
   67542   67539      66   67545   67539      66   67545   67542      67   67554
   67551      66   67557   67551      66   67557   67554      67   67566   67563
      66   67569   67563      66   67569   67566      67   67578   67575      66
   67581   67575      66   67581   67578      67   67590   67587      66   67593
   67587      66   67593   67590      67   67602   67599      66   67605   67599
      66   67605   67602      67   67614   67611      66   67617   67611      66
   67617   67614      67   67626   67623      66   67629   67623      66   67629
   67626      67   67638   67635      66   67641   67635      66   67641   67638
      67   67650   67647      66   67653   67647      66   67653   67650      67
   67662   67659      66   67665   67659      66   67665   67662      67   67674
   67671      66   67677   67671      66   67677   67674      67   67686   67683
      66   67689   67683      66   67689   67686      67   67698   67695      66
   67701   67695      66   67701   67698      67   67710   67707      66   67713
   67707      66   67713   67710      67   67722   67719      66   67725   67719
      66   67725   67722      67   67734   67731      66   67737   67731      66
   67737   67734      67   67746   67743      66   67749   67743      66   67749
   67746      67   67758   67755      66   67761   67755      66   67761   67758
      67   67770   67767      66   67773   67767      66   67773   67770      67
   67782   67779      66   67785   67779      66   67785   67782      67   67794
   67791      66   67797   67791      66   67797   67794      67   67806   67803
      66   67809   67803      66   67809   67806      67   67818   67815      66
   67821   67815      66   67821   67818      67   67830   67827      66   67833
   67827      66   67833   67830      67   67842   67839      66   67845   67839
      66   67845   67842      67   67854   67851      66   67857   67851      66
   67857   67854      67   67866   67863      66   67869   67863      66   67869
   67866      67   67878   67875      66   67881   67875      66   67881   67878
      67   67890   67887      66   67893   67887      66   67893   67890      67
   67902   67899      66   67905   67899      66   67905   67902      67   67914
   67911      66   67917   67911      66   67917   67914      67   67926   67923
      66   67929   67923      66   67929   67926      67   67938   67935      66
   67941   67935      66   67941   67938      67   67950   67947      66   67953
   67947      66   67953   67950      67   67962   67959      66   67965   67959
      66   67965   67962      67   67974   67971      66   67977   67971      66
   67977   67974      67   67986   67983      66   67989   67983      66   67989
   67986      67   67998   67995      66   68001   67995      66   68001   67998
      67   68010   68007      66   68013   68007      66   68013   68010      67
   68022   68019      66   68025   68019      66   68025   68022      67   68034
   68031      66   68037   68031      66   68037   68034      67   68046   68043
      66   68049   68043      66   68049   68046      67   68058   68055      66
   68061   68055      66   68061   68058      67   68070   68067      66   68073
   68067      66   68073   68070      67   68082   68079      66   68085   68079
      66   68085   68082      67   68094   68091      66   68097   68091      66
   68097   68094      67   68106   68103      66   68109   68103      66   68109
   68106      67   68118   68115      66   68121   68115      66   68121   68118
      67   68130   68127      66   68133   68127      66   68133   68130      67
   68142   68139      66   68145   68139      66   68145   68142      67   68154
   68151      66   68157   68151      66   68157   68154      67   68166   68163
      66   68169   68163      66   68169   68166      67   68178   68175      66
   68181   68175      66   68181   68178      67   68190   68187      66   68193
   68187      66   68193   68190      67   68202   68199      66   68205   68199
      66   68205   68202      67   68214   68211      66   68217   68211      66
   68217   68214      67   68226   68223      66   68229   68223      66   68229
   68226      67   68238   68235      66   68241   68235      66   68241   68238
      67   68250   68247      66   68253   68247      66   68253   68250      67
   68262   68259      66   68265   68259      66   68265   68262      67   68274
   68271      66   68277   68271      66   68277   68274      67   68286   68283
      66   68289   68283      66   68289   68286      67   68298   68295      66
   68301   68295      66   68301   68298      67   68310   68307      66   68313
   68307      66   68313   68310      67   68322   68319      66   68325   68319
      66   68325   68322      67   68334   68331      66   68337   68331      66
   68337   68334      67   68346   68343      66   68349   68343      66   68349
   68346      67   68358   68355      66   68361   68355      66   68361   68358
      67   68370   68367      66   68373   68367      66   68373   68370      67
   68382   68379      66   68385   68379      66   68385   68382      67   68394
   68391      66   68397   68391      66   68397   68394      67   68406   68403
      66   68409   68403      66   68409   68406      67   68418   68415      66
   68421   68415      66   68421   68418      67   68430   68427      66   68433
   68427      66   68433   68430      67   68442   68439      66   68445   68439
      66   68445   68442      67   68454   68451      66   68457   68451      66
   68457   68454      67   68466   68463      66   68469   68463      66   68469
   68466      67   68478   68475      66   68481   68475      66   68481   68478
      67   68490   68487      66   68493   68487      66   68493   68490      67
   68502   68499      66   68505   68499      66   68505   68502      67   68514
   68511      66   68517   68511      66   68517   68514      67   68526   68523
      66   68529   68523      66   68529   68526      67   68538   68535      66
   68541   68535      66   68541   68538      67   68550   68547      66   68553
   68547      66   68553   68550      67   68562   68559      66   68565   68559
      66   68565   68562      67   68574   68571      66   68577   68571      66
   68577   68574      67   68586   68583      66   68589   68583      66   68589
   68586      67   68598   68595      66   68601   68595      66   68601   68598
      67   68610   68607      66   68613   68607      66   68613   68610      67
   68622   68619      66   68625   68619      66   68625   68622      67   68634
   68631      66   68637   68631      66   68637   68634      67   68646   68643
      66   68649   68643      66   68649   68646      67   68658   68655      66
   68661   68655      66   68661   68658      67   68670   68667      66   68673
   68667      66   68673   68670      67   68682   68679      66   68685   68679
      66   68685   68682      67   68694   68691      66   68697   68691      66
   68697   68694      67   68706   68703      66   68709   68703      66   68709
   68706      67   68718   68715      66   68721   68715      66   68721   68718
      67   68730   68727      66   68733   68727      66   68733   68730      67
   68742   68739      66   68745   68739      66   68745   68742      67   68754
   68751      66   68757   68751      66   68757   68754      67   68766   68763
      66   68769   68763      66   68769   68766      67   68778   68775      66
   68781   68775      66   68781   68778      67   68790   68787      66   68793
   68787      66   68793   68790      67   68802   68799      66   68805   68799
      66   68805   68802      67   68814   68811      66   68817   68811      66
   68817   68814      67   68826   68823      66   68829   68823      66   68829
   68826      67   68838   68835      66   68841   68835      66   68841   68838
      67   68850   68847      66   68853   68847      66   68853   68850      67
   68862   68859      66   68865   68859      66   68865   68862      67   68874
   68871      66   68877   68871      66   68877   68874      67   68886   68883
      66   68889   68883      66   68889   68886      67   68898   68895      66
   68901   68895      66   68901   68898      67   68910   68907      66   68913
   68907      66   68913   68910      67   68922   68919      66   68925   68919
      66   68925   68922      67   68934   68931      66   68937   68931      66
   68937   68934      67   68946   68943      66   68949   68943      66   68949
   68946      67   68958   68955      66   68961   68955      66   68961   68958
      67   68970   68967      66   68973   68967      66   68973   68970      67
   68982   68979      66   68985   68979      66   68985   68982      67   68994
   68991      66   68997   68991      66   68997   68994      67   69006   69003
      66   69009   69003      66   69009   69006      67   69018   69015      66
   69021   69015      66   69021   69018      67   69030   69027      66   69033
   69027      66   69033   69030      67   69042   69039      66   69045   69039
      66   69045   69042      67   69054   69051      66   69057   69051      66
   69057   69054      67   69066   69063      66   69069   69063      66   69069
   69066      67   69078   69075      66   69081   69075      66   69081   69078
      67   69090   69087      66   69093   69087      66   69093   69090      67
   69102   69099      66   69105   69099      66   69105   69102      67   69114
   69111      66   69117   69111      66   69117   69114      67   69126   69123
      66   69129   69123      66   69129   69126      67   69138   69135      66
   69141   69135      66   69141   69138      67   69150   69147      66   69153
   69147      66   69153   69150      67   69162   69159      66   69165   69159
      66   69165   69162      67   69174   69171      66   69177   69171      66
   69177   69174      67   69186   69183      66   69189   69183      66   69189
   69186      67   69198   69195      66   69201   69195      66   69201   69198
      67   69210   69207      66   69213   69207      66   69213   69210      67
   69222   69219      66   69225   69219      66   69225   69222      67   69234
   69231      66   69237   69231      66   69237   69234      67   69246   69243
      66   69249   69243      66   69249   69246      67   69258   69255      66
   69261   69255      66   69261   69258      67   69270   69267      66   69273
   69267      66   69273   69270      67   69282   69279      66   69285   69279
      66   69285   69282      67   69294   69291      66   69297   69291      66
   69297   69294      67   69306   69303      66   69309   69303      66   69309
   69306      67   69318   69315      66   69321   69315      66   69321   69318
      67   69330   69327      66   69333   69327      66   69333   69330      67
   69342   69339      66   69345   69339      66   69345   69342      67   69354
   69351      66   69357   69351      66   69357   69354      67   69366   69363
      66   69369   69363      66   69369   69366      67   69378   69375      66
   69381   69375      66   69381   69378      67   69390   69387      66   69393
   69387      66   69393   69390      67   69402   69399      66   69405   69399
      66   69405   69402      67   69414   69411      66   69417   69411      66
   69417   69414      67   69426   69423      66   69429   69423      66   69429
   69426      67   69438   69435      66   69441   69435      66   69441   69438
      67   69450   69447      66   69453   69447      66   69453   69450      67
   69462   69459      66   69465   69459      66   69465   69462      67   69474
   69471      66   69477   69471      66   69477   69474      67   69486   69483
      66   69489   69483      66   69489   69486      67   69498   69495      66
   69501   69495      66   69501   69498      67   69510   69507      66   69513
   69507      66   69513   69510      67   69522   69519      66   69525   69519
      66   69525   69522      67   69534   69531      66   69537   69531      66
   69537   69534      67   69546   69543      66   69549   69543      66   69549
   69546      67   69558   69555      66   69561   69555      66   69561   69558
      67   69570   69567      66   69573   69567      66   69573   69570      67
   69582   69579      66   69585   69579      66   69585   69582      67   69594
   69591      66   69597   69591      66   69597   69594      67   69606   69603
      66   69609   69603      66   69609   69606      67   69618   69615      66
   69621   69615      66   69621   69618      67   69630   69627      66   69633
   69627      66   69633   69630      67   69642   69639      66   69645   69639
      66   69645   69642      67   69654   69651      66   69657   69651      66
   69657   69654      67   69666   69663      66   69669   69663      66   69669
   69666      67   69678   69675      66   69681   69675      66   69681   69678
      67   69690   69687      66   69693   69687      66   69693   69690      67
   69702   69699      66   69705   69699      66   69705   69702      67   69714
   69711      66   69717   69711      66   69717   69714      67   69726   69723
      66   69729   69723      66   69729   69726      67   69738   69735      66
   69741   69735      66   69741   69738      67   69750   69747      66   69753
   69747      66   69753   69750      67   69762   69759      66   69765   69759
      66   69765   69762      67   69774   69771      66   69777   69771      66
   69777   69774      67   69786   69783      66   69789   69783      66   69789
   69786      67   69798   69795      66   69801   69795      66   69801   69798
      67   69810   69807      66   69813   69807      66   69813   69810      67
   69822   69819      66   69825   69819      66   69825   69822      67   69834
   69831      66   69837   69831      66   69837   69834      67   69846   69843
      66   69849   69843      66   69849   69846      67   69858   69855      66
   69861   69855      66   69861   69858      67   69870   69867      66   69873
   69867      66   69873   69870      67   69882   69879      66   69885   69879
      66   69885   69882      67   69894   69891      66   69897   69891      66
   69897   69894      67   69906   69903      66   69909   69903      66   69909
   69906      67   69918   69915      66   69921   69915      66   69921   69918
      67   69930   69927      66   69933   69927      66   69933   69930      67
   69942   69939      66   69945   69939      66   69945   69942      67   69954
   69951      66   69957   69951      66   69957   69954      67   69966   69963
      66   69969   69963      66   69969   69966      67   69978   69975      66
   69981   69975      66   69981   69978      67   69990   69987      66   69993
   69987      66   69993   69990      67   70002   69999      66   70005   69999
      66   70005   70002      67   70014   70011      66   70017   70011      66
   70017   70014      67   70026   70023      66   70029   70023      66   70029
   70026      67   70038   70035      66   70041   70035      66   70041   70038
      67   70050   70047      66   70053   70047      66   70053   70050      67
   70062   70059      66   70065   70059      66   70065   70062      67   70074
   70071      66   70077   70071      66   70077   70074      67   70086   70083
      66   70089   70083      66   70089   70086      67   70098   70095      66
   70101   70095      66   70101   70098      67   70110   70107      66   70113
   70107      66   70113   70110      67   70122   70119      66   70125   70119
      66   70125   70122      67   70134   70131      66   70137   70131      66
   70137   70134      67   70146   70143      66   70149   70143      66   70149
   70146      67   70158   70155      66   70161   70155      66   70161   70158
      67   70170   70167      66   70173   70167      66   70173   70170      67
   70182   70179      66   70185   70179      66   70185   70182      67   70194
   70191      66   70197   70191      66   70197   70194      67   70206   70203
      66   70209   70203      66   70209   70206      67   70218   70215      66
   70221   70215      66   70221   70218      67   70230   70227      66   70233
   70227      66   70233   70230      67   70242   70239      66   70245   70239
      66   70245   70242      67   70254   70251      66   70257   70251      66
   70257   70254      67   70266   70263      66   70269   70263      66   70269
   70266      67   70278   70275      66   70281   70275      66   70281   70278
      67   70290   70287      66   70293   70287      66   70293   70290      67
   70302   70299      66   70305   70299      66   70305   70302      67   70314
   70311      66   70317   70311      66   70317   70314      67   70326   70323
      66   70329   70323      66   70329   70326      67   70338   70335      66
   70341   70335      66   70341   70338      67   70350   70347      66   70353
   70347      66   70353   70350      67   70362   70359      66   70365   70359
      66   70365   70362      67   70374   70371      66   70377   70371      66
   70377   70374      67   70386   70383      66   70389   70383      66   70389
   70386      67   70398   70395      66   70401   70395      66   70401   70398
      67   70410   70407      66   70413   70407      66   70413   70410      67
   70422   70419      66   70425   70419      66   70425   70422      67   70434
   70431      66   70437   70431      66   70437   70434      67   70446   70443
      66   70449   70443      66   70449   70446      67   70458   70455      66
   70461   70455      66   70461   70458      67   70470   70467      66   70473
   70467      66   70473   70470      67   70482   70479      66   70485   70479
      66   70485   70482      67   70494   70491      66   70497   70491      66
   70497   70494      67   70506   70503      66   70509   70503      66   70509
   70506      67   70518   70515      66   70521   70515      66   70521   70518
      67   70530   70527      66   70533   70527      66   70533   70530      67
   70542   70539      66   70545   70539      66   70545   70542      67   70554
   70551      66   70557   70551      66   70557   70554      67   70566   70563
      66   70569   70563      66   70569   70566      67   70578   70575      66
   70581   70575      66   70581   70578      67   70590   70587      66   70593
   70587      66   70593   70590      67   70602   70599      66   70605   70599
      66   70605   70602      67   70614   70611      66   70617   70611      66
   70617   70614      67   70626   70623      66   70629   70623      66   70629
   70626      67   70638   70635      66   70641   70635      66   70641   70638
      67   70650   70647      66   70653   70647      66   70653   70650      67
   70662   70659      66   70665   70659      66   70665   70662      67   70674
   70671      66   70677   70671      66   70677   70674      67   70686   70683
      66   70689   70683      66   70689   70686      67   70698   70695      66
   70701   70695      66   70701   70698      67   70710   70707      66   70713
   70707      66   70713   70710      67   70722   70719      66   70725   70719
      66   70725   70722      67   70734   70731      66   70737   70731      66
   70737   70734      67   70746   70743      66   70749   70743      66   70749
   70746      67   70758   70755      66   70761   70755      66   70761   70758
      67   70770   70767      66   70773   70767      66   70773   70770      67
   70782   70779      66   70785   70779      66   70785   70782      67   70794
   70791      66   70797   70791      66   70797   70794      67   70806   70803
      66   70809   70803      66   70809   70806      67   70818   70815      66
   70821   70815      66   70821   70818      67   70830   70827      66   70833
   70827      66   70833   70830      67   70842   70839      66   70845   70839
      66   70845   70842      67   70854   70851      66   70857   70851      66
   70857   70854      67   70866   70863      66   70869   70863      66   70869
   70866      67   70878   70875      66   70881   70875      66   70881   70878
      67   70890   70887      66   70893   70887      66   70893   70890      67
   70902   70899      66   70905   70899      66   70905   70902      67   70914
   70911      66   70917   70911      66   70917   70914      67   70926   70923
      66   70929   70923      66   70929   70926      67   70938   70935      66
   70941   70935      66   70941   70938      67   70950   70947      66   70953
   70947      66   70953   70950      67   70962   70959      66   70965   70959
      66   70965   70962      67   70974   70971      66   70977   70971      66
   70977   70974      67   70986   70983      66   70989   70983      66   70989
   70986      67   70998   70995      66   71001   70995      66   71001   70998
      67   71010   71007      66   71013   71007      66   71013   71010      67
   71022   71019      66   71025   71019      66   71025   71022      67   71034
   71031      66   71037   71031      66   71037   71034      67   71046   71043
      66   71049   71043      66   71049   71046      67   71058   71055      66
   71061   71055      66   71061   71058      67   71070   71067      66   71073
   71067      66   71073   71070      67   71082   71079      66   71085   71079
      66   71085   71082      67   71094   71091      66   71097   71091      66
   71097   71094      67   71106   71103      66   71109   71103      66   71109
   71106      67   71118   71115      66   71121   71115      66   71121   71118
      67   71130   71127      66   71133   71127      66   71133   71130      67
   71142   71139      66   71145   71139      66   71145   71142      67   71154
   71151      66   71157   71151      66   71157   71154      67   71166   71163
      66   71169   71163      66   71169   71166      67   71178   71175      66
   71181   71175      66   71181   71178      67   71190   71187      66   71193
   71187      66   71193   71190      67   71202   71199      66   71205   71199
      66   71205   71202      67   71214   71211      66   71217   71211      66
   71217   71214      67   71226   71223      66   71229   71223      66   71229
   71226      67   71238   71235      66   71241   71235      66   71241   71238
      67   71250   71247      66   71253   71247      66   71253   71250      67
   71262   71259      66   71265   71259      66   71265   71262      67   71274
   71271      66   71277   71271      66   71277   71274      67   71286   71283
      66   71289   71283      66   71289   71286      67   71298   71295      66
   71301   71295      66   71301   71298      67   71310   71307      66   71313
   71307      66   71313   71310      67   71322   71319      66   71325   71319
      66   71325   71322      67   71334   71331      66   71337   71331      66
   71337   71334      67   71346   71343      66   71349   71343      66   71349
   71346      67   71358   71355      66   71361   71355      66   71361   71358
      67   71370   71367      66   71373   71367      66   71373   71370      67
   71382   71379      66   71385   71379      66   71385   71382      67   71394
   71391      66   71397   71391      66   71397   71394      67   71406   71403
      66   71409   71403      66   71409   71406      67   71418   71415      66
   71421   71415      66   71421   71418      67   71430   71427      66   71433
   71427      66   71433   71430      67   71442   71439      66   71445   71439
      66   71445   71442      67   71454   71451      66   71457   71451      66
   71457   71454      67   71466   71463      66   71469   71463      66   71469
   71466      67   71478   71475      66   71481   71475      66   71481   71478
      67   71490   71487      66   71493   71487      66   71493   71490      67
   71502   71499      66   71505   71499      66   71505   71502      67   71514
   71511      66   71517   71511      66   71517   71514      67   71526   71523
      66   71529   71523      66   71529   71526      67   71538   71535      66
   71541   71535      66   71541   71538      67   71550   71547      66   71553
   71547      66   71553   71550      67   71562   71559      66   71565   71559
      66   71565   71562      67   71574   71571      66   71577   71571      66
   71577   71574      67   71586   71583      66   71589   71583      66   71589
   71586      67   71598   71595      66   71601   71595      66   71601   71598
      67   71610   71607      66   71613   71607      66   71613   71610      67
   71622   71619      66   71625   71619      66   71625   71622      67   71634
   71631      66   71637   71631      66   71637   71634      67   71646   71643
      66   71649   71643      66   71649   71646      67   71658   71655      66
   71661   71655      66   71661   71658      67   71670   71667      66   71673
   71667      66   71673   71670      67   71682   71679      66   71685   71679
      66   71685   71682      67   71694   71691      66   71697   71691      66
   71697   71694      67   71706   71703      66   71709   71703      66   71709
   71706      67   71718   71715      66   71721   71715      66   71721   71718
      67   71730   71727      66   71733   71727      66   71733   71730      67
   71742   71739      66   71745   71739      66   71745   71742      67   71754
   71751      66   71757   71751      66   71757   71754      67   71766   71763
      66   71769   71763      66   71769   71766      67   71778   71775      66
   71781   71775      66   71781   71778      67   71790   71787      66   71793
   71787      66   71793   71790      67   71802   71799      66   71805   71799
      66   71805   71802      67   71814   71811      66   71817   71811      66
   71817   71814      67   71826   71823      66   71829   71823      66   71829
   71826      67   71838   71835      66   71841   71835      66   71841   71838
      67   71850   71847      66   71853   71847      66   71853   71850      67
   71862   71859      66   71865   71859      66   71865   71862      67   71874
   71871      66   71877   71871      66   71877   71874      67   71886   71883
      66   71889   71883      66   71889   71886      67   71898   71895      66
   71901   71895      66   71901   71898      67   71910   71907      66   71913
   71907      66   71913   71910      67   71922   71919      66   71925   71919
      66   71925   71922      67   71934   71931      66   71937   71931      66
   71937   71934      67   71946   71943      66   71949   71943      66   71949
   71946      67   71958   71955      66   71961   71955      66   71961   71958
      67   71970   71967      66   71973   71967      66   71973   71970      67
   71982   71979      66   71985   71979      66   71985   71982      67   71994
   71991      66   71997   71991      66   71997   71994      67   72006   72003
      66   72009   72003      66   72009   72006      67   72018   72015      66
   72021   72015      66   72021   72018      67   72030   72027      66   72033
   72027      66   72033   72030      67   72042   72039      66   72045   72039
      66   72045   72042      67   72054   72051      66   72057   72051      66
   72057   72054      67   72066   72063      66   72069   72063      66   72069
   72066      67   72078   72075      66   72081   72075      66   72081   72078
      67   72090   72087      66   72093   72087      66   72093   72090      67
   72102   72099      66   72105   72099      66   72105   72102      67   72114
   72111      66   72117   72111      66   72117   72114      67   72126   72123
      66   72129   72123      66   72129   72126      67   72138   72135      66
   72141   72135      66   72141   72138      67   72150   72147      66   72153
   72147      66   72153   72150      67   72162   72159      66   72165   72159
      66   72165   72162      67   72174   72171      66   72177   72171      66
   72177   72174      67   72186   72183      66   72189   72183      66   72189
   72186      67   72198   72195      66   72201   72195      66   72201   72198
      67   72210   72207      66   72213   72207      66   72213   72210      67
   72222   72219      66   72225   72219      66   72225   72222      67   72234
   72231      66   72237   72231      66   72237   72234      67   72246   72243
      66   72249   72243      66   72249   72246      67   72258   72255      66
   72261   72255      66   72261   72258      67   72270   72267      66   72273
   72267      66   72273   72270      67   72282   72279      66   72285   72279
      66   72285   72282      67   72294   72291      66   72297   72291      66
   72297   72294      67   72306   72303      66   72309   72303      66   72309
   72306      67   72318   72315      66   72321   72315      66   72321   72318
      67   72330   72327      66   72333   72327      66   72333   72330      67
   72342   72339      66   72345   72339      66   72345   72342      67   72354
   72351      66   72357   72351      66   72357   72354      67   72366   72363
      66   72369   72363      66   72369   72366      67   72378   72375      66
   72381   72375      66   72381   72378      67   72390   72387      66   72393
   72387      66   72393   72390      67   72402   72399      66   72405   72399
      66   72405   72402      67   72414   72411      66   72417   72411      66
   72417   72414      67   72426   72423      66   72429   72423      66   72429
   72426      67   72438   72435      66   72441   72435      66   72441   72438
      67   72450   72447      66   72453   72447      66   72453   72450      67
   72462   72459      66   72465   72459      66   72465   72462      67   72474
   72471      66   72477   72471      66   72477   72474      67   72486   72483
      66   72489   72483      66   72489   72486      67   72498   72495      66
   72501   72495      66   72501   72498      67   72510   72507      66   72513
   72507      66   72513   72510      67   72522   72519      66   72525   72519
      66   72525   72522      67   72534   72531      66   72537   72531      66
   72537   72534      67   72546   72543      66   72549   72543      66   72549
   72546      67   72558   72555      66   72561   72555      66   72561   72558
      67   72570   72567      66   72573   72567      66   72573   72570      67
   72582   72579      66   72585   72579      66   72585   72582      67   72594
   72591      66   72597   72591      66   72597   72594      67   72606   72603
      66   72609   72603      66   72609   72606      67   72618   72615      66
   72621   72615      66   72621   72618      67   72630   72627      66   72633
   72627      66   72633   72630      67   72642   72639      66   72645   72639
      66   72645   72642      67   72654   72651      66   72657   72651      66
   72657   72654      67   72666   72663      66   72669   72663      66   72669
   72666      67   72678   72675      66   72681   72675      66   72681   72678
      67   72690   72687      66   72693   72687      66   72693   72690      67
   72702   72699      66   72705   72699      66   72705   72702      67   72714
   72711      66   72717   72711      66   72717   72714      67   72726   72723
      66   72729   72723      66   72729   72726      67   72738   72735      66
   72741   72735      66   72741   72738      67   72750   72747      66   72753
   72747      66   72753   72750      67   72762   72759      66   72765   72759
      66   72765   72762      67   72774   72771      66   72777   72771      66
   72777   72774      67   72786   72783      66   72789   72783      66   72789
   72786      67   72798   72795      66   72801   72795      66   72801   72798
      67   72810   72807      66   72813   72807      66   72813   72810      67
   72822   72819      66   72825   72819      66   72825   72822      67   72834
   72831      66   72837   72831      66   72837   72834      67   72846   72843
      66   72849   72843      66   72849   72846      67   72858   72855      66
   72861   72855      66   72861   72858      67   72870   72867      66   72873
   72867      66   72873   72870      67   72882   72879      66   72885   72879
      66   72885   72882      67   72894   72891      66   72897   72891      66
   72897   72894      67   72906   72903      66   72909   72903      66   72909
   72906      67   72918   72915      66   72921   72915      66   72921   72918
      67   72930   72927      66   72933   72927      66   72933   72930      67
   72942   72939      66   72945   72939      66   72945   72942      67   72954
   72951      66   72957   72951      66   72957   72954      67   72966   72963
      66   72969   72963      66   72969   72966      67   72978   72975      66
   72981   72975      66   72981   72978      67   72990   72987      66   72993
   72987      66   72993   72990      67   73002   72999      66   73005   72999
      66   73005   73002      67   73014   73011      66   73017   73011      66
   73017   73014      67   73026   73023      66   73029   73023      66   73029
   73026      67   73038   73035      66   73041   73035      66   73041   73038
      67   73050   73047      66   73053   73047      66   73053   73050      67
   73062   73059      66   73065   73059      66   73065   73062      67   73074
   73071      66   73077   73071      66   73077   73074      67   73086   73083
      66   73089   73083      66   73089   73086      67   73098   73095      66
   73101   73095      66   73101   73098      67   73110   73107      66   73113
   73107      66   73113   73110      67   73122   73119      66   73125   73119
      66   73125   73122      67   73134   73131      66   73137   73131      66
   73137   73134      67   73146   73143      66   73149   73143      66   73149
   73146      67   73158   73155      66   73161   73155      66   73161   73158
      67   73170   73167      66   73173   73167      66   73173   73170      67
   73182   73179      66   73185   73179      66   73185   73182      67   73194
   73191      66   73197   73191      66   73197   73194      67   73206   73203
      66   73209   73203      66   73209   73206      67   73218   73215      66
   73221   73215      66   73221   73218      67   73230   73227      66   73233
   73227      66   73233   73230      67   73242   73239      66   73245   73239
      66   73245   73242      67   73254   73251      66   73257   73251      66
   73257   73254      67   73266   73263      66   73269   73263      66   73269
   73266      67   73278   73275      66   73281   73275      66   73281   73278
      67   73290   73287      66   73293   73287      66   73293   73290      67
   73302   73299      66   73305   73299      66   73305   73302      67   73314
   73311      66   73317   73311      66   73317   73314      67   73326   73323
      66   73329   73323      66   73329   73326      67   73338   73335      66
   73341   73335      66   73341   73338      67   73350   73347      66   73353
   73347      66   73353   73350      67   73362   73359      66   73365   73359
      66   73365   73362      67   73374   73371      66   73377   73371      66
   73377   73374      67   73386   73383      66   73389   73383      66   73389
   73386      67   73398   73395      66   73401   73395      66   73401   73398
      67   73410   73407      66   73413   73407      66   73413   73410      67
   73422   73419      66   73425   73419      66   73425   73422      67   73434
   73431      66   73437   73431      66   73437   73434      67   73446   73443
      66   73449   73443      66   73449   73446      67   73458   73455      66
   73461   73455      66   73461   73458      67   73470   73467      66   73473
   73467      66   73473   73470      67   73482   73479      66   73485   73479
      66   73485   73482      67   73494   73491      66   73497   73491      66
   73497   73494      67   73506   73503      66   73509   73503      66   73509
   73506      67   73518   73515      66   73521   73515      66   73521   73518
      67   73530   73527      66   73533   73527      66   73533   73530      67
   73542   73539      66   73545   73539      66   73545   73542      67   73554
   73551      66   73557   73551      66   73557   73554      67   73566   73563
      66   73569   73563      66   73569   73566      67   73578   73575      66
   73581   73575      66   73581   73578      67   73590   73587      66   73593
   73587      66   73593   73590      67   73602   73599      66   73605   73599
      66   73605   73602      67   73614   73611      66   73617   73611      66
   73617   73614      67   73626   73623      66   73629   73623      66   73629
   73626      67   73638   73635      66   73641   73635      66   73641   73638
      67   73650   73647      66   73653   73647      66   73653   73650      67
   73662   73659      66   73665   73659      66   73665   73662      67   73674
   73671      66   73677   73671      66   73677   73674      67   73686   73683
      66   73689   73683      66   73689   73686      67   73698   73695      66
   73701   73695      66   73701   73698      67   73710   73707      66   73713
   73707      66   73713   73710      67   73722   73719      66   73725   73719
      66   73725   73722      67   73734   73731      66   73737   73731      66
   73737   73734      67   73746   73743      66   73749   73743      66   73749
   73746      67   73758   73755      66   73761   73755      66   73761   73758
      67   73770   73767      66   73773   73767      66   73773   73770      67
   73782   73779      66   73785   73779      66   73785   73782      67   73794
   73791      66   73797   73791      66   73797   73794      67   73806   73803
      66   73809   73803      66   73809   73806      67   73818   73815      66
   73821   73815      66   73821   73818      67   73830   73827      66   73833
   73827      66   73833   73830      67   73842   73839      66   73845   73839
      66   73845   73842      67   73854   73851      66   73857   73851      66
   73857   73854      67   73866   73863      66   73869   73863      66   73869
   73866      67   73878   73875      66   73881   73875      66   73881   73878
      67   73890   73887      66   73893   73887      66   73893   73890      67
   73902   73899      66   73905   73899      66   73905   73902      67   73914
   73911      66   73917   73911      66   73917   73914      67   73926   73923
      66   73929   73923      66   73929   73926      67   73938   73935      66
   73941   73935      66   73941   73938      67   73950   73947      66   73953
   73947      66   73953   73950      67   73962   73959      66   73965   73959
      66   73965   73962      67   73974   73971      66   73977   73971      66
   73977   73974      67   73986   73983      66   73989   73983      66   73989
   73986      67   73998   73995      66   74001   73995      66   74001   73998
      67   74010   74007      66   74013   74007      66   74013   74010      67
   74022   74019      66   74025   74019      66   74025   74022      67   74034
   74031      66   74037   74031      66   74037   74034      67   74046   74043
      66   74049   74043      66   74049   74046      67   74058   74055      66
   74061   74055      66   74061   74058      67   74070   74067      66   74073
   74067      66   74073   74070      67   74082   74079      66   74085   74079
      66   74085   74082      67   74094   74091      66   74097   74091      66
   74097   74094      67   74106   74103      66   74109   74103      66   74109
   74106      67   74118   74115      66   74121   74115      66   74121   74118
      67   74130   74127      66   74133   74127      66   74133   74130      67
   74142   74139      66   74145   74139      66   74145   74142      67   74154
   74151      66   74157   74151      66   74157   74154      67   74166   74163
      66   74169   74163      66   74169   74166      67   74178   74175      66
   74181   74175      66   74181   74178      67   74190   74187      66   74193
   74187      66   74193   74190      67   74202   74199      66   74205   74199
      66   74205   74202      67   74214   74211      66   74217   74211      66
   74217   74214      67   74226   74223      66   74229   74223      66   74229
   74226      67   74238   74235      66   74241   74235      66   74241   74238
      67   74250   74247      66   74253   74247      66   74253   74250      67
   74262   74259      66   74265   74259      66   74265   74262      67   74274
   74271      66   74277   74271      66   74277   74274      67   74286   74283
      66   74289   74283      66   74289   74286      67   74298   74295      66
   74301   74295      66   74301   74298      67   74310   74307      66   74313
   74307      66   74313   74310      67   74322   74319      66   74325   74319
      66   74325   74322      67   74334   74331      66   74337   74331      66
   74337   74334      67   74346   74343      66   74349   74343      66   74349
   74346      67   74358   74355      66   74361   74355      66   74361   74358
      67   74370   74367      66   74373   74367      66   74373   74370      67
   74382   74379      66   74385   74379      66   74385   74382      67   74394
   74391      66   74397   74391      66   74397   74394      67   74406   74403
      66   74409   74403      66   74409   74406      67   74418   74415      66
   74421   74415      66   74421   74418      67   74430   74427      66   74433
   74427      66   74433   74430      67   74442   74439      66   74445   74439
      66   74445   74442      67   74454   74451      66   74457   74451      66
   74457   74454      67   74466   74463      66   74469   74463      66   74469
   74466      67   74478   74475      66   74481   74475      66   74481   74478
      67   74490   74487      66   74493   74487      66   74493   74490      67
   74502   74499      66   74505   74499      66   74505   74502      67   74514
   74511      66   74517   74511      66   74517   74514      67   74526   74523
      66   74529   74523      66   74529   74526      67   74538   74535      66
   74541   74535      66   74541   74538      67   74550   74547      66   74553
   74547      66   74553   74550      67   74562   74559      66   74565   74559
      66   74565   74562      67   74574   74571      66   74577   74571      66
   74577   74574      67   74586   74583      66   74589   74583      66   74589
   74586      67   74598   74595      66   74601   74595      66   74601   74598
      67   74610   74607      66   74613   74607      66   74613   74610      67
   74622   74619      66   74625   74619      66   74625   74622      67   74634
   74631      66   74637   74631      66   74637   74634      67   74646   74643
      66   74649   74643      66   74649   74646      67   74658   74655      66
   74661   74655      66   74661   74658      67   74670   74667      66   74673
   74667      66   74673   74670      67   74682   74679      66   74685   74679
      66   74685   74682      67   74694   74691      66   74697   74691      66
   74697   74694      67   74706   74703      66   74709   74703      66   74709
   74706      67   74718   74715      66   74721   74715      66   74721   74718
      67   74730   74727      66   74733   74727      66   74733   74730      67
   74742   74739      66   74745   74739      66   74745   74742      67   74754
   74751      66   74757   74751      66   74757   74754      67   74766   74763
      66   74769   74763      66   74769   74766      67   74778   74775      66
   74781   74775      66   74781   74778      67   74790   74787      66   74793
   74787      66   74793   74790      67   74802   74799      66   74805   74799
      66   74805   74802      67   74814   74811      66   74817   74811      66
   74817   74814      67   74826   74823      66   74829   74823      66   74829
   74826      67   74838   74835      66   74841   74835      66   74841   74838
      67   74850   74847      66   74853   74847      66   74853   74850      67
   74862   74859      66   74865   74859      66   74865   74862      67   74874
   74871      66   74877   74871      66   74877   74874      67   74886   74883
      66   74889   74883      66   74889   74886      67   74898   74895      66
   74901   74895      66   74901   74898      67   74910   74907      66   74913
   74907      66   74913   74910      67   74922   74919      66   74925   74919
      66   74925   74922      67   74934   74931      66   74937   74931      66
   74937   74934      67   74946   74943      66   74949   74943      66   74949
   74946      67   74958   74955      66   74961   74955      66   74961   74958
      67   74970   74967      66   74973   74967      66   74973   74970      67
   74982   74979      66   74985   74979      66   74985   74982      67   74994
   74991      66   74997   74991      66   74997   74994      67   75006   75003
      66   75009   75003      66   75009   75006      67   75018   75015      66
   75021   75015      66   75021   75018      67   75030   75027      66   75033
   75027      66   75033   75030      67   75042   75039      66   75045   75039
      66   75045   75042      67   75054   75051      66   75057   75051      66
   75057   75054      67   75066   75063      66   75069   75063      66   75069
   75066      67   75078   75075      66   75081   75075      66   75081   75078
      67   75090   75087      66   75093   75087      66   75093   75090      67
   75102   75099      66   75105   75099      66   75105   75102      67   75114
   75111      66   75117   75111      66   75117   75114      67   75126   75123
      66   75129   75123      66   75129   75126      67   75138   75135      66
   75141   75135      66   75141   75138      67   75150   75147      66   75153
   75147      66   75153   75150      67   75162   75159      66   75165   75159
      66   75165   75162      67   75174   75171      66   75177   75171      66
   75177   75174      67   75186   75183      66   75189   75183      66   75189
   75186      67   75198   75195      66   75201   75195      66   75201   75198
      67   75210   75207      66   75213   75207      66   75213   75210      67
   75222   75219      66   75225   75219      66   75225   75222      67   75234
   75231      66   75237   75231      66   75237   75234      67   75246   75243
      66   75249   75243      66   75249   75246      67   75258   75255      66
   75261   75255      66   75261   75258      67   75270   75267      66   75273
   75267      66   75273   75270      67   75282   75279      66   75285   75279
      66   75285   75282      67   75294   75291      66   75297   75291      66
   75297   75294      67   75306   75303      66   75309   75303      66   75309
   75306      67   75318   75315      66   75321   75315      66   75321   75318
      67   75330   75327      66   75333   75327      66   75333   75330      67
   75342   75339      66   75345   75339      66   75345   75342      67   75354
   75351      66   75357   75351      66   75357   75354      67   75366   75363
      66   75369   75363      66   75369   75366      67   75378   75375      66
   75381   75375      66   75381   75378      67   75390   75387      66   75393
   75387      66   75393   75390      67   75402   75399      66   75405   75399
      66   75405   75402      67   75414   75411      66   75417   75411      66
   75417   75414      67   75426   75423      66   75429   75423      66   75429
   75426      67   75438   75435      66   75441   75435      66   75441   75438
      67   75450   75447      66   75453   75447      66   75453   75450      67
   75462   75459      66   75465   75459      66   75465   75462      67   75474
   75471      66   75477   75471      66   75477   75474      67   75486   75483
      66   75489   75483      66   75489   75486      67   75498   75495      66
   75501   75495      66   75501   75498      67   75510   75507      66   75513
   75507      66   75513   75510      67   75522   75519      66   75525   75519
      66   75525   75522      67   75534   75531      66   75537   75531      66
   75537   75534      67   75546   75543      66   75549   75543      66   75549
   75546      67   75558   75555      66   75561   75555      66   75561   75558
      67   75570   75567      66   75573   75567      66   75573   75570      67
   75582   75579      66   75585   75579      66   75585   75582      67   75594
   75591      66   75597   75591      66   75597   75594      67   75606   75603
      66   75609   75603      66   75609   75606      67   75618   75615      66
   75621   75615      66   75621   75618      67   75630   75627      66   75633
   75627      66   75633   75630      67   75642   75639      66   75645   75639
      66   75645   75642      67   75654   75651      66   75657   75651      66
   75657   75654      67   75666   75663      66   75669   75663      66   75669
   75666      67   75678   75675      66   75681   75675      66   75681   75678
      67   75690   75687      66   75693   75687      66   75693   75690      67
   75702   75699      66   75705   75699      66   75705   75702      67   75714
   75711      66   75717   75711      66   75717   75714      67   75726   75723
      66   75729   75723      66   75729   75726      67   75738   75735      66
   75741   75735      66   75741   75738      67   75750   75747      66   75753
   75747      66   75753   75750      67   75762   75759      66   75765   75759
      66   75765   75762      67   75774   75771      66   75777   75771      66
   75777   75774      67   75786   75783      66   75789   75783      66   75789
   75786      67   75798   75795      66   75801   75795      66   75801   75798
      67   75810   75807      66   75813   75807      66   75813   75810      67
   75822   75819      66   75825   75819      66   75825   75822      67   75834
   75831      66   75837   75831      66   75837   75834      67   75846   75843
      66   75849   75843      66   75849   75846      67   75858   75855      66
   75861   75855      66   75861   75858      67   75870   75867      66   75873
   75867      66   75873   75870      67   75882   75879      66   75885   75879
      66   75885   75882      67   75894   75891      66   75897   75891      66
   75897   75894      67   75906   75903      66   75909   75903      66   75909
   75906      67   75918   75915      66   75921   75915      66   75921   75918
      67   75930   75927      66   75933   75927      66   75933   75930      67
   75942   75939      66   75945   75939      66   75945   75942      67   75954
   75951      66   75957   75951      66   75957   75954      67   75966   75963
      66   75969   75963      66   75969   75966      67   75978   75975      66
   75981   75975      66   75981   75978      67   75990   75987      66   75993
   75987      66   75993   75990      67   76002   75999      66   76005   75999
      66   76005   76002      67   76014   76011      66   76017   76011      66
   76017   76014      67   76026   76023      66   76029   76023      66   76029
   76026      67   76038   76035      66   76041   76035      66   76041   76038
      67   76050   76047      66   76053   76047      66   76053   76050      67
   76062   76059      66   76065   76059      66   76065   76062      67   76074
   76071      66   76077   76071      66   76077   76074      67   76086   76083
      66   76089   76083      66   76089   76086      67   76098   76095      66
   76101   76095      66   76101   76098      67   76110   76107      66   76113
   76107      66   76113   76110      67   76122   76119      66   76125   76119
      66   76125   76122      67   76134   76131      66   76137   76131      66
   76137   76134      67   76146   76143      66   76149   76143      66   76149
   76146      67   76158   76155      66   76161   76155      66   76161   76158
      67   76170   76167      66   76173   76167      66   76173   76170      67
   76182   76179      66   76185   76179      66   76185   76182      67   76194
   76191      66   76197   76191      66   76197   76194      67   76206   76203
      66   76209   76203      66   76209   76206      67   76218   76215      66
   76221   76215      66   76221   76218      67   76230   76227      66   76233
   76227      66   76233   76230      67   76242   76239      66   76245   76239
      66   76245   76242      67   76254   76251      66   76257   76251      66
   76257   76254      67   76266   76263      66   76269   76263      66   76269
   76266      67   76278   76275      66   76281   76275      66   76281   76278
      67   76290   76287      66   76293   76287      66   76293   76290      67
   76302   76299      66   76305   76299      66   76305   76302      67   76314
   76311      66   76317   76311      66   76317   76314      67   76326   76323
      66   76329   76323      66   76329   76326      67   76338   76335      66
   76341   76335      66   76341   76338      67   76350   76347      66   76353
   76347      66   76353   76350      67   76362   76359      66   76365   76359
      66   76365   76362      67   76374   76371      66   76377   76371      66
   76377   76374      67   76386   76383      66   76389   76383      66   76389
   76386      67   76398   76395      66   76401   76395      66   76401   76398
      67   76410   76407      66   76413   76407      66   76413   76410      67
   76422   76419      66   76425   76419      66   76425   76422      67   76434
   76431      66   76437   76431      66   76437   76434      67   76446   76443
      66   76449   76443      66   76449   76446      67   76458   76455      66
   76461   76455      66   76461   76458      67   76470   76467      66   76473
   76467      66   76473   76470      67   76482   76479      66   76485   76479
      66   76485   76482      67   76494   76491      66   76497   76491      66
   76497   76494      67   76506   76503      66   76509   76503      66   76509
   76506      67   76518   76515      66   76521   76515      66   76521   76518
      67   76530   76527      66   76533   76527      66   76533   76530      67
   76542   76539      66   76545   76539      66   76545   76542      67   76554
   76551      66   76557   76551      66   76557   76554      67   76566   76563
      66   76569   76563      66   76569   76566      67   76578   76575      66
   76581   76575      66   76581   76578      67   76590   76587      66   76593
   76587      66   76593   76590      67   76602   76599      66   76605   76599
      66   76605   76602      67   76614   76611      66   76617   76611      66
   76617   76614      67   76626   76623      66   76629   76623      66   76629
   76626      67   76638   76635      66   76641   76635      66   76641   76638
      67   76650   76647      66   76653   76647      66   76653   76650      67
   76662   76659      66   76665   76659      66   76665   76662      67   76674
   76671      66   76677   76671      66   76677   76674      67   76686   76683
      66   76689   76683      66   76689   76686      67   76698   76695      66
   76701   76695      66   76701   76698      67   76710   76707      66   76713
   76707      66   76713   76710      67   76722   76719      66   76725   76719
      66   76725   76722      67   76734   76731      66   76737   76731      66
   76737   76734      67   76746   76743      66   76749   76743      66   76749
   76746      67   76758   76755      66   76761   76755      66   76761   76758
      67   76770   76767      66   76773   76767      66   76773   76770      67
   76782   76779      66   76785   76779      66   76785   76782      67   76794
   76791      66   76797   76791      66   76797   76794      67   76806   76803
      66   76809   76803      66   76809   76806      67   76818   76815      66
   76821   76815      66   76821   76818      67   76830   76827      66   76833
   76827      66   76833   76830      67   76842   76839      66   76845   76839
      66   76845   76842      67   76854   76851      66   76857   76851      66
   76857   76854      67   76866   76863      66   76869   76863      66   76869
   76866      67   76878   76875      66   76881   76875      66   76881   76878
      67   76890   76887      66   76893   76887      66   76893   76890      67
   76902   76899      66   76905   76899      66   76905   76902      67   76914
   76911      66   76917   76911      66   76917   76914      67   76926   76923
      66   76929   76923      66   76929   76926      67   76938   76935      66
   76941   76935      66   76941   76938      67   76950   76947      66   76953
   76947      66   76953   76950      67   76962   76959      66   76965   76959
      66   76965   76962      67   76974   76971      66   76977   76971      66
   76977   76974      67   76986   76983      66   76989   76983      66   76989
   76986      67   76998   76995      66   77001   76995      66   77001   76998
      67   77010   77007      66   77013   77007      66   77013   77010      67
   77022   77019      66   77025   77019      66   77025   77022      67   77034
   77031      66   77037   77031      66   77037   77034      67   77046   77043
      66   77049   77043      66   77049   77046      67   77058   77055      66
   77061   77055      66   77061   77058      67   77070   77067      66   77073
   77067      66   77073   77070      67   77082   77079      66   77085   77079
      66   77085   77082      67   77094   77091      66   77097   77091      66
   77097   77094      67   77106   77103      66   77109   77103      66   77109
   77106      67   77118   77115      66   77121   77115      66   77121   77118
      67   77130   77127      66   77133   77127      66   77133   77130      67
   77142   77139      66   77145   77139      66   77145   77142      67   77154
   77151      66   77157   77151      66   77157   77154      67   77166   77163
      66   77169   77163      66   77169   77166      67   77178   77175      66
   77181   77175      66   77181   77178      67   77190   77187      66   77193
   77187      66   77193   77190      67   77202   77199      66   77205   77199
      66   77205   77202      67   77214   77211      66   77217   77211      66
   77217   77214      67   77226   77223      66   77229   77223      66   77229
   77226      67   77238   77235      66   77241   77235      66   77241   77238
      67   77250   77247      66   77253   77247      66   77253   77250      67
   77262   77259      66   77265   77259      66   77265   77262      67   77274
   77271      66   77277   77271      66   77277   77274      67   77286   77283
      66   77289   77283      66   77289   77286      67   77298   77295      66
   77301   77295      66   77301   77298      67   77310   77307      66   77313
   77307      66   77313   77310      67   77322   77319      66   77325   77319
      66   77325   77322      67   77334   77331      66   77337   77331      66
   77337   77334      67   77346   77343      66   77349   77343      66   77349
   77346      67   77358   77355      66   77361   77355      66   77361   77358
      67   77370   77367      66   77373   77367      66   77373   77370      67
   77382   77379      66   77385   77379      66   77385   77382      67   77394
   77391      66   77397   77391      66   77397   77394      67   77406   77403
      66   77409   77403      66   77409   77406      67   77418   77415      66
   77421   77415      66   77421   77418      67   77430   77427      66   77433
   77427      66   77433   77430      67   77442   77439      66   77445   77439
      66   77445   77442      67   77454   77451      66   77457   77451      66
   77457   77454      67   77466   77463      66   77469   77463      66   77469
   77466      67   77478   77475      66   77481   77475      66   77481   77478
      67   77490   77487      66   77493   77487      66   77493   77490      67
   77502   77499      66   77505   77499      66   77505   77502      67   77514
   77511      66   77517   77511      66   77517   77514      67   77526   77523
      66   77529   77523      66   77529   77526      67   77538   77535      66
   77541   77535      66   77541   77538      67   77550   77547      66   77553
   77547      66   77553   77550      67   77562   77559      66   77565   77559
      66   77565   77562      67   77574   77571      66   77577   77571      66
   77577   77574      67   77586   77583      66   77589   77583      66   77589
   77586      67   77598   77595      66   77601   77595      66   77601   77598
      67   77610   77607      66   77613   77607      66   77613   77610      67
   77622   77619      66   77625   77619      66   77625   77622      67   77634
   77631      66   77637   77631      66   77637   77634      67   77646   77643
      66   77649   77643      66   77649   77646      67   77658   77655      66
   77661   77655      66   77661   77658      67   77670   77667      66   77673
   77667      66   77673   77670      67   77682   77679      66   77685   77679
      66   77685   77682      67   77694   77691      66   77697   77691      66
   77697   77694      67   77706   77703      66   77709   77703      66   77709
   77706      67   77718   77715      66   77721   77715      66   77721   77718
      67   77730   77727      66   77733   77727      66   77733   77730      67
   77742   77739      66   77745   77739      66   77745   77742      67   77754
   77751      66   77757   77751      66   77757   77754      67   77766   77763
      66   77769   77763      66   77769   77766      67   77778   77775      66
   77781   77775      66   77781   77778      67   77790   77787      66   77793
   77787      66   77793   77790      67   77802   77799      66   77805   77799
      66   77805   77802      67   77814   77811      66   77817   77811      66
   77817   77814      67   77826   77823      66   77829   77823      66   77829
   77826      67   77838   77835      66   77841   77835      66   77841   77838
      67   77850   77847      66   77853   77847      66   77853   77850      67
   77862   77859      66   77865   77859      66   77865   77862      67   77874
   77871      66   77877   77871      66   77877   77874      67   77886   77883
      66   77889   77883      66   77889   77886      67   77898   77895      66
   77901   77895      66   77901   77898      67   77910   77907      66   77913
   77907      66   77913   77910      67   77922   77919      66   77925   77919
      66   77925   77922      67   77934   77931      66   77937   77931      66
   77937   77934      67   77946   77943      66   77949   77943      66   77949
   77946      67   77958   77955      66   77961   77955      66   77961   77958
      67   77970   77967      66   77973   77967      66   77973   77970      67
   77982   77979      66   77985   77979      66   77985   77982      67   77994
   77991      66   77997   77991      66   77997   77994      67   78006   78003
      66   78009   78003      66   78009   78006      67   78018   78015      66
   78021   78015      66   78021   78018      67   78030   78027      66   78033
   78027      66   78033   78030      67   78042   78039      66   78045   78039
      66   78045   78042      67   78054   78051      66   78057   78051      66
   78057   78054      67   78066   78063      66   78069   78063      66   78069
   78066      67   78078   78075      66   78081   78075      66   78081   78078
      67   78090   78087      66   78093   78087      66   78093   78090      67
   78102   78099      66   78105   78099      66   78105   78102      67   78114
   78111      66   78117   78111      66   78117   78114      67   78126   78123
      66   78129   78123      66   78129   78126      67   78138   78135      66
   78141   78135      66   78141   78138      67   78150   78147      66   78153
   78147      66   78153   78150      67   78162   78159      66   78165   78159
      66   78165   78162      67   78174   78171      66   78177   78171      66
   78177   78174      67   78186   78183      66   78189   78183      66   78189
   78186      67   78198   78195      66   78201   78195      66   78201   78198
      67   78210   78207      66   78213   78207      66   78213   78210      67
   78222   78219      66   78225   78219      66   78225   78222      67   78234
   78231      66   78237   78231      66   78237   78234      67   78246   78243
      66   78249   78243      66   78249   78246      67   78258   78255      66
   78261   78255      66   78261   78258      67   78270   78267      66   78273
   78267      66   78273   78270      67   78282   78279      66   78285   78279
      66   78285   78282      67   78294   78291      66   78297   78291      66
   78297   78294      67   78306   78303      66   78309   78303      66   78309
   78306      67   78318   78315      66   78321   78315      66   78321   78318
      67   78330   78327      66   78333   78327      66   78333   78330      67
   78342   78339      66   78345   78339      66   78345   78342      67   78354
   78351      66   78357   78351      66   78357   78354      67   78366   78363
      66   78369   78363      66   78369   78366      67   78378   78375      66
   78381   78375      66   78381   78378      67   78390   78387      66   78393
   78387      66   78393   78390      67   78402   78399      66   78405   78399
      66   78405   78402      67   78414   78411      66   78417   78411      66
   78417   78414      67   78426   78423      66   78429   78423      66   78429
   78426      67   78438   78435      66   78441   78435      66   78441   78438
      67   78450   78447      66   78453   78447      66   78453   78450      67
   78462   78459      66   78465   78459      66   78465   78462      67   78474
   78471      66   78477   78471      66   78477   78474      67   78486   78483
      66   78489   78483      66   78489   78486      67   78498   78495      66
   78501   78495      66   78501   78498      67   78510   78507      66   78513
   78507      66   78513   78510      67   78522   78519      66   78525   78519
      66   78525   78522      67   78534   78531      66   78537   78531      66
   78537   78534      67   78546   78543      66   78549   78543      66   78549
   78546      67   78558   78555      66   78561   78555      66   78561   78558
      67   78570   78567      66   78573   78567      66   78573   78570      67
   78582   78579      66   78585   78579      66   78585   78582      67   78594
   78591      66   78597   78591      66   78597   78594      67   78606   78603
      66   78609   78603      66   78609   78606      67   78618   78615      66
   78621   78615      66   78621   78618      67   78630   78627      66   78633
   78627      66   78633   78630      67   78642   78639      66   78645   78639
      66   78645   78642      67   78654   78651      66   78657   78651      66
   78657   78654      67   78666   78663      66   78669   78663      66   78669
   78666      67   78678   78675      66   78681   78675      66   78681   78678
      67   78690   78687      66   78693   78687      66   78693   78690      67
   78702   78699      66   78705   78699      66   78705   78702      67   78714
   78711      66   78717   78711      66   78717   78714      67   78726   78723
      66   78729   78723      66   78729   78726      67   78738   78735      66
   78741   78735      66   78741   78738      67   78750   78747      66   78753
   78747      66   78753   78750      67   78762   78759      66   78765   78759
      66   78765   78762      67   78774   78771      66   78777   78771      66
   78777   78774      67   78786   78783      66   78789   78783      66   78789
   78786      67   78798   78795      66   78801   78795      66   78801   78798
      67   78810   78807      66   78813   78807      66   78813   78810      67
   78822   78819      66   78825   78819      66   78825   78822      67   78834
   78831      66   78837   78831      66   78837   78834      67   78846   78843
      66   78849   78843      66   78849   78846      67   78858   78855      66
   78861   78855      66   78861   78858      67   78870   78867      66   78873
   78867      66   78873   78870      67   78882   78879      66   78885   78879
      66   78885   78882      67   78894   78891      66   78897   78891      66
   78897   78894      67   78906   78903      66   78909   78903      66   78909
   78906      67   78918   78915      66   78921   78915      66   78921   78918
      67   78930   78927      66   78933   78927      66   78933   78930      67
   78942   78939      66   78945   78939      66   78945   78942      67   78954
   78951      66   78957   78951      66   78957   78954      67   78966   78963
      66   78969   78963      66   78969   78966      67   78978   78975      66
   78981   78975      66   78981   78978      67   78990   78987      66   78993
   78987      66   78993   78990      67   79002   78999      66   79005   78999
      66   79005   79002      67   79014   79011      66   79017   79011      66
   79017   79014      67   79026   79023      66   79029   79023      66   79029
   79026      67   79038   79035      66   79041   79035      66   79041   79038
      67   79050   79047      66   79053   79047      66   79053   79050      67
   79062   79059      66   79065   79059      66   79065   79062      67   79074
   79071      66   79077   79071      66   79077   79074      67   79086   79083
      66   79089   79083      66   79089   79086      67   79098   79095      66
   79101   79095      66   79101   79098      67   79110   79107      66   79113
   79107      66   79113   79110      67   79122   79119      66   79125   79119
      66   79125   79122      67   79134   79131      66   79137   79131      66
   79137   79134      67   79146   79143      66   79149   79143      66   79149
   79146      67   79158   79155      66   79161   79155      66   79161   79158
      67   79170   79167      66   79173   79167      66   79173   79170      67
   79182   79179      66   79185   79179      66   79185   79182      67   79194
   79191      66   79197   79191      66   79197   79194      67   79206   79203
      66   79209   79203      66   79209   79206      67   79218   79215      66
   79221   79215      66   79221   79218      67   79230   79227      66   79233
   79227      66   79233   79230      67   79242   79239      66   79245   79239
      66   79245   79242      67   79254   79251      66   79257   79251      66
   79257   79254      67   79266   79263      66   79269   79263      66   79269
   79266      67   79278   79275      66   79281   79275      66   79281   79278
      67   79290   79287      66   79293   79287      66   79293   79290      67
   79302   79299      66   79305   79299      66   79305   79302      67   79314
   79311      66   79317   79311      66   79317   79314      67   79326   79323
      66   79329   79323      66   79329   79326      67   79338   79335      66
   79341   79335      66   79341   79338      67   79350   79347      66   79353
   79347      66   79353   79350      67   79362   79359      66   79365   79359
      66   79365   79362      67   79374   79371      66   79377   79371      66
   79377   79374      67   79386   79383      66   79389   79383      66   79389
   79386      67   79398   79395      66   79401   79395      66   79401   79398
      67   79410   79407      66   79413   79407      66   79413   79410      67
   79422   79419      66   79425   79419      66   79425   79422      67   79434
   79431      66   79437   79431      66   79437   79434      67   79446   79443
      66   79449   79443      66   79449   79446      67   79458   79455      66
   79461   79455      66   79461   79458      67   79470   79467      66   79473
   79467      66   79473   79470      67   79482   79479      66   79485   79479
      66   79485   79482      67   79494   79491      66   79497   79491      66
   79497   79494      67   79506   79503      66   79509   79503      66   79509
   79506      67   79518   79515      66   79521   79515      66   79521   79518
      67   79530   79527      66   79533   79527      66   79533   79530      67
   79542   79539      66   79545   79539      66   79545   79542      67   79554
   79551      66   79557   79551      66   79557   79554      67   79566   79563
      66   79569   79563      66   79569   79566      67   79578   79575      66
   79581   79575      66   79581   79578      67   79590   79587      66   79593
   79587      66   79593   79590      67   79602   79599      66   79605   79599
      66   79605   79602      67   79614   79611      66   79617   79611      66
   79617   79614      67   79626   79623      66   79629   79623      66   79629
   79626      67   79638   79635      66   79641   79635      66   79641   79638
      67   79650   79647      66   79653   79647      66   79653   79650      67
   79662   79659      66   79665   79659      66   79665   79662      67   79674
   79671      66   79677   79671      66   79677   79674      67   79686   79683
      66   79689   79683      66   79689   79686      67   79698   79695      66
   79701   79695      66   79701   79698      67   79710   79707      66   79713
   79707      66   79713   79710      67   79722   79719      66   79725   79719
      66   79725   79722      67   79734   79731      66   79737   79731      66
   79737   79734      67   79746   79743      66   79749   79743      66   79749
   79746      67   79758   79755      66   79761   79755      66   79761   79758
      67   79770   79767      66   79773   79767      66   79773   79770      67
   79782   79779      66   79785   79779      66   79785   79782      67   79794
   79791      66   79797   79791      66   79797   79794      67   79806   79803
      66   79809   79803      66   79809   79806      67   79818   79815      66
   79821   79815      66   79821   79818      67   79830   79827      66   79833
   79827      66   79833   79830      67   79842   79839      66   79845   79839
      66   79845   79842      67   79854   79851      66   79857   79851      66
   79857   79854      67   79866   79863      66   79869   79863      66   79869
   79866      67   79878   79875      66   79881   79875      66   79881   79878
      67   79890   79887      66   79893   79887      66   79893   79890      67
   79902   79899      66   79905   79899      66   79905   79902      67   79914
   79911      66   79917   79911      66   79917   79914      67   79926   79923
      66   79929   79923      66   79929   79926      67   79938   79935      66
   79941   79935      66   79941   79938      67   79950   79947      66   79953
   79947      66   79953   79950      67   79962   79959      66   79965   79959
      66   79965   79962      67   79974   79971      66   79977   79971      66
   79977   79974      67   79986   79983      66   79989   79983      66   79989
   79986      67   79998   79995      66   80001   79995      66   80001   79998
      67   80010   80007      66   80013   80007      66   80013   80010      67
   80022   80019      66   80025   80019      66   80025   80022      67   80034
   80031      66   80037   80031      66   80037   80034      67   80046   80043
      66   80049   80043      66   80049   80046      67   80058   80055      66
   80061   80055      66   80061   80058      67   80070   80067      66   80073
   80067      66   80073   80070      67   80082   80079      66   80085   80079
      66   80085   80082      67   80094   80091      66   80097   80091      66
   80097   80094      67   80106   80103      66   80109   80103      66   80109
   80106      67   80118   80115      66   80121   80115      66   80121   80118
      67   80130   80127      66   80133   80127      66   80133   80130      67
   80142   80139      66   80145   80139      66   80145   80142      67   80154
   80151      66   80157   80151      66   80157   80154      67   80166   80163
      66   80169   80163      66   80169   80166      67   80178   80175      66
   80181   80175      66   80181   80178      67   80190   80187      66   80193
   80187      66   80193   80190      67   80202   80199      66   80205   80199
      66   80205   80202      67   80214   80211      66   80217   80211      66
   80217   80214      67   80226   80223      66   80229   80223      66   80229
   80226      67   80238   80235      66   80241   80235      66   80241   80238
      67   80250   80247      66   80253   80247      66   80253   80250      67
   80262   80259      66   80265   80259      66   80265   80262      67   80274
   80271      66   80277   80271      66   80277   80274      67   80286   80283
      66   80289   80283      66   80289   80286      67   80298   80295      66
   80301   80295      66   80301   80298      67   80310   80307      66   80313
   80307      66   80313   80310      67   80322   80319      66   80325   80319
      66   80325   80322      67   80334   80331      66   80337   80331      66
   80337   80334      67   80346   80343      66   80349   80343      66   80349
   80346      67   80358   80355      66   80361   80355      66   80361   80358
      67   80370   80367      66   80373   80367      66   80373   80370      67
   80382   80379      66   80385   80379      66   80385   80382      67   80394
   80391      66   80397   80391      66   80397   80394      67   80406   80403
      66   80409   80403      66   80409   80406      67   80418   80415      66
   80421   80415      66   80421   80418      67   80430   80427      66   80433
   80427      66   80433   80430      67   80442   80439      66   80445   80439
      66   80445   80442      67   80454   80451      66   80457   80451      66
   80457   80454      67   80466   80463      66   80469   80463      66   80469
   80466      67   80478   80475      66   80481   80475      66   80481   80478
      67   80490   80487      66   80493   80487      66   80493   80490      67
   80502   80499      66   80505   80499      66   80505   80502      67   80514
   80511      66   80517   80511      66   80517   80514      67   80526   80523
      66   80529   80523      66   80529   80526      67   80538   80535      66
   80541   80535      66   80541   80538      67   80550   80547      66   80553
   80547      66   80553   80550      67   80562   80559      66   80565   80559
      66   80565   80562      67   80574   80571      66   80577   80571      66
   80577   80574      67   80586   80583      66   80589   80583      66   80589
   80586      67   80598   80595      66   80601   80595      66   80601   80598
      67   80610   80607      66   80613   80607      66   80613   80610      67
   80622   80619      66   80625   80619      66   80625   80622      67   80634
   80631      66   80637   80631      66   80637   80634      67   80646   80643
      66   80649   80643      66   80649   80646      67   80658   80655      66
   80661   80655      66   80661   80658      67   80670   80667      66   80673
   80667      66   80673   80670      67   80682   80679      66   80685   80679
      66   80685   80682      67   80694   80691      66   80697   80691      66
   80697   80694      67   80706   80703      66   80709   80703      66   80709
   80706      67   80718   80715      66   80721   80715      66   80721   80718
      67   80730   80727      66   80733   80727      66   80733   80730      67
   80742   80739      66   80745   80739      66   80745   80742      67   80754
   80751      66   80757   80751      66   80757   80754      67   80766   80763
      66   80769   80763      66   80769   80766      67   80778   80775      66
   80781   80775      66   80781   80778      67   80790   80787      66   80793
   80787      66   80793   80790      67   80802   80799      66   80805   80799
      66   80805   80802      67   80814   80811      66   80817   80811      66
   80817   80814      67   80826   80823      66   80829   80823      66   80829
   80826      67   80838   80835      66   80841   80835      66   80841   80838
      67   80850   80847      66   80853   80847      66   80853   80850      67
   80862   80859      66   80865   80859      66   80865   80862      67   80874
   80871      66   80877   80871      66   80877   80874      67   80886   80883
      66   80889   80883      66   80889   80886      67   80898   80895      66
   80901   80895      66   80901   80898      67   80910   80907      66   80913
   80907      66   80913   80910      67   80922   80919      66   80925   80919
      66   80925   80922      67   80934   80931      66   80937   80931      66
   80937   80934      67   80946   80943      66   80949   80943      66   80949
   80946      67   80958   80955      66   80961   80955      66   80961   80958
      67   80970   80967      66   80973   80967      66   80973   80970      67
   80982   80979      66   80985   80979      66   80985   80982      67   80994
   80991      66   80997   80991      66   80997   80994      67   81006   81003
      66   81009   81003      66   81009   81006      67   81018   81015      66
   81021   81015      66   81021   81018      67   81030   81027      66   81033
   81027      66   81033   81030      67   81042   81039      66   81045   81039
      66   81045   81042      67   81054   81051      66   81057   81051      66
   81057   81054      67   81066   81063      66   81069   81063      66   81069
   81066      67   81078   81075      66   81081   81075      66   81081   81078
      67   81090   81087      66   81093   81087      66   81093   81090      67
   81102   81099      66   81105   81099      66   81105   81102      67   81114
   81111      66   81117   81111      66   81117   81114      67   81126   81123
      66   81129   81123      66   81129   81126      67   81138   81135      66
   81141   81135      66   81141   81138      67   81150   81147      66   81153
   81147      66   81153   81150      67   81162   81159      66   81165   81159
      66   81165   81162      67   81174   81171      66   81177   81171      66
   81177   81174      67   81186   81183      66   81189   81183      66   81189
   81186      67   81198   81195      66   81201   81195      66   81201   81198
      67   81210   81207      66   81213   81207      66   81213   81210      67
   81222   81219      66   81225   81219      66   81225   81222      67   81234
   81231      66   81237   81231      66   81237   81234      67   81246   81243
      66   81249   81243      66   81249   81246      67   81258   81255      66
   81261   81255      66   81261   81258      67   81270   81267      66   81273
   81267      66   81273   81270      67   81282   81279      66   81285   81279
      66   81285   81282      67   81294   81291      66   81297   81291      66
   81297   81294      67   81306   81303      66   81309   81303      66   81309
   81306      67   81318   81315      66   81321   81315      66   81321   81318
      67   81330   81327      66   81333   81327      66   81333   81330      67
   81342   81339      66   81345   81339      66   81345   81342      67   81354
   81351      66   81357   81351      66   81357   81354      67   81366   81363
      66   81369   81363      66   81369   81366      67   81378   81375      66
   81381   81375      66   81381   81378      67   81390   81387      66   81393
   81387      66   81393   81390      67   81402   81399      66   81405   81399
      66   81405   81402      67   81414   81411      66   81417   81411      66
   81417   81414      67   81426   81423      66   81429   81423      66   81429
   81426      67   81438   81435      66   81441   81435      66   81441   81438
      67   81450   81447      66   81453   81447      66   81453   81450      67
   81462   81459      66   81465   81459      66   81465   81462      67   81474
   81471      66   81477   81471      66   81477   81474      67   81486   81483
      66   81489   81483      66   81489   81486      67   81498   81495      66
   81501   81495      66   81501   81498      67   81510   81507      66   81513
   81507      66   81513   81510      67   81522   81519      66   81525   81519
      66   81525   81522      67   81534   81531      66   81537   81531      66
   81537   81534      67   81546   81543      66   81549   81543      66   81549
   81546      67   81558   81555      66   81561   81555      66   81561   81558
      67   81570   81567      66   81573   81567      66   81573   81570      67
   81582   81579      66   81585   81579      66   81585   81582      67   81594
   81591      66   81597   81591      66   81597   81594      67   81606   81603
      66   81609   81603      66   81609   81606      67   81618   81615      66
   81621   81615      66   81621   81618      67   81630   81627      66   81633
   81627      66   81633   81630      67   81642   81639      66   81645   81639
      66   81645   81642      67   81654   81651      66   81657   81651      66
   81657   81654      67   81666   81663      66   81669   81663      66   81669
   81666      67   81678   81675      66   81681   81675      66   81681   81678
      67   81690   81687      66   81693   81687      66   81693   81690      67
   81702   81699      66   81705   81699      66   81705   81702      67   81714
   81711      66   81717   81711      66   81717   81714      67   81726   81723
      66   81729   81723      66   81729   81726      67   81738   81735      66
   81741   81735      66   81741   81738      67   81750   81747      66   81753
   81747      66   81753   81750      67   81762   81759      66   81765   81759
      66   81765   81762      67   81774   81771      66   81777   81771      66
   81777   81774      67   81786   81783      66   81789   81783      66   81789
   81786      67   81798   81795      66   81801   81795      66   81801   81798
      67   81810   81807      66   81813   81807      66   81813   81810      67
   81822   81819      66   81825   81819      66   81825   81822      67   81834
   81831      66   81837   81831      66   81837   81834      67   81846   81843
      66   81849   81843      66   81849   81846      67   81858   81855      66
   81861   81855      66   81861   81858      67   81870   81867      66   81873
   81867      66   81873   81870      67   81882   81879      66   81885   81879
      66   81885   81882      67   81894   81891      66   81897   81891      66
   81897   81894      67   81906   81903      66   81909   81903      66   81909
   81906      67   81918   81915      66   81921   81915      66   81921   81918
      67   81930   81927      66   81933   81927      66   81933   81930      67
   81942   81939      66   81945   81939      66   81945   81942      67   81954
   81951      66   81957   81951      66   81957   81954      67   81966   81963
      66   81969   81963      66   81969   81966      67   81978   81975      66
   81981   81975      66   81981   81978      67   81990   81987      66   81993
   81987      66   81993   81990      67   82002   81999      66   82005   81999
      66   82005   82002      67   82014   82011      66   82017   82011      66
   82017   82014      67   82026   82023      66   82029   82023      66   82029
   82026      67   82038   82035      66   82041   82035      66   82041   82038
      67   82050   82047      66   82053   82047      66   82053   82050      67
   82062   82059      66   82065   82059      66   82065   82062      67   82074
   82071      66   82077   82071      66   82077   82074      67   82086   82083
      66   82089   82083      66   82089   82086      67   82098   82095      66
   82101   82095      66   82101   82098      67   82110   82107      66   82113
   82107      66   82113   82110      67   82122   82119      66   82125   82119
      66   82125   82122      67   82134   82131      66   82137   82131      66
   82137   82134      67   82146   82143      66   82149   82143      66   82149
   82146      67   82158   82155      66   82161   82155      66   82161   82158
      67   82170   82167      66   82173   82167      66   82173   82170      67
   82182   82179      66   82185   82179      66   82185   82182      67   82194
   82191      66   82197   82191      66   82197   82194      67   82206   82203
      66   82209   82203      66   82209   82206      67   82218   82215      66
   82221   82215      66   82221   82218      67   82230   82227      66   82233
   82227      66   82233   82230      67   82242   82239      66   82245   82239
      66   82245   82242      67   82254   82251      66   82257   82251      66
   82257   82254      67   82266   82263      66   82269   82263      66   82269
   82266      67   82278   82275      66   82281   82275      66   82281   82278
      67   82290   82287      66   82293   82287      66   82293   82290      67
   82302   82299      66   82305   82299      66   82305   82302      67   82314
   82311      66   82317   82311      66   82317   82314      67   82326   82323
      66   82329   82323      66   82329   82326      67   82338   82335      66
   82341   82335      66   82341   82338      67   82350   82347      66   82353
   82347      66   82353   82350      67   82362   82359      66   82365   82359
      66   82365   82362      67   82374   82371      66   82377   82371      66
   82377   82374      67   82386   82383      66   82389   82383      66   82389
   82386      67   82398   82395      66   82401   82395      66   82401   82398
      67   82410   82407      66   82413   82407      66   82413   82410      67
   82422   82419      66   82425   82419      66   82425   82422      67   82434
   82431      66   82437   82431      66   82437   82434      67   82446   82443
      66   82449   82443      66   82449   82446      67   82458   82455      66
   82461   82455      66   82461   82458      67   82470   82467      66   82473
   82467      66   82473   82470      67   82482   82479      66   82485   82479
      66   82485   82482      67   82494   82491      66   82497   82491      66
   82497   82494      67   82506   82503      66   82509   82503      66   82509
   82506      67   82518   82515      66   82521   82515      66   82521   82518
      67   82530   82527      66   82533   82527      66   82533   82530      67
   82542   82539      66   82545   82539      66   82545   82542      67   82554
   82551      66   82557   82551      66   82557   82554      67   82566   82563
      66   82569   82563      66   82569   82566      67   82578   82575      66
   82581   82575      66   82581   82578      67   82590   82587      66   82593
   82587      66   82593   82590      67   82602   82599      66   82605   82599
      66   82605   82602      67   82614   82611      66   82617   82611      66
   82617   82614      67   82626   82623      66   82629   82623      66   82629
   82626      67   82638   82635      66   82641   82635      66   82641   82638
      67   82650   82647      66   82653   82647      66   82653   82650      67
   82662   82659      66   82665   82659      66   82665   82662      67   82674
   82671      66   82677   82671      66   82677   82674      67   82686   82683
      66   82689   82683      66   82689   82686      67   82698   82695      66
   82701   82695      66   82701   82698      67   82710   82707      66   82713
   82707      66   82713   82710      67   82722   82719      66   82725   82719
      66   82725   82722      67   82734   82731      66   82737   82731      66
   82737   82734      67   82746   82743      66   82749   82743      66   82749
   82746      67   82758   82755      66   82761   82755      66   82761   82758
      67   82770   82767      66   82773   82767      66   82773   82770      67
   82782   82779      66   82785   82779      66   82785   82782      67   82794
   82791      66   82797   82791      66   82797   82794      67   82806   82803
      66   82809   82803      66   82809   82806      67   82818   82815      66
   82821   82815      66   82821   82818      67   82830   82827      66   82833
   82827      66   82833   82830      67   82842   82839      66   82845   82839
      66   82845   82842      67   82854   82851      66   82857   82851      66
   82857   82854      67   82866   82863      66   82869   82863      66   82869
   82866      67   82878   82875      66   82881   82875      66   82881   82878
      67   82890   82887      66   82893   82887      66   82893   82890      67
   82902   82899      66   82905   82899      66   82905   82902      67   82914
   82911      66   82917   82911      66   82917   82914      67   82926   82923
      66   82929   82923      66   82929   82926      67   82938   82935      66
   82941   82935      66   82941   82938      67   82950   82947      66   82953
   82947      66   82953   82950      67   82962   82959      66   82965   82959
      66   82965   82962      67   82974   82971      66   82977   82971      66
   82977   82974      67   82986   82983      66   82989   82983      66   82989
   82986      67   82998   82995      66   83001   82995      66   83001   82998
      67   83010   83007      66   83013   83007      66   83013   83010      67
   83022   83019      66   83025   83019      66   83025   83022      67   83034
   83031      66   83037   83031      66   83037   83034      67   83046   83043
      66   83049   83043      66   83049   83046      67   83058   83055      66
   83061   83055      66   83061   83058      67   83070   83067      66   83073
   83067      66   83073   83070      67   83082   83079      66   83085   83079
      66   83085   83082      67   83094   83091      66   83097   83091      66
   83097   83094      67   83106   83103      66   83109   83103      66   83109
   83106      67   83118   83115      66   83121   83115      66   83121   83118
      67   83130   83127      66   83133   83127      66   83133   83130      67
   83142   83139      66   83145   83139      66   83145   83142      67   83154
   83151      66   83157   83151      66   83157   83154      67   83166   83163
      66   83169   83163      66   83169   83166      67   83178   83175      66
   83181   83175      66   83181   83178      67   83190   83187      66   83193
   83187      66   83193   83190      67   83202   83199      66   83205   83199
      66   83205   83202      67   83214   83211      66   83217   83211      66
   83217   83214      67   83226   83223      66   83229   83223      66   83229
   83226      67   83238   83235      66   83241   83235      66   83241   83238
      67   83250   83247      66   83253   83247      66   83253   83250      67
   83262   83259      66   83265   83259      66   83265   83262      67   83274
   83271      66   83277   83271      66   83277   83274      67   83286   83283
      66   83289   83283      66   83289   83286      67   83298   83295      66
   83301   83295      66   83301   83298      67   83310   83307      66   83313
   83307      66   83313   83310      67   83322   83319      66   83325   83319
      66   83325   83322      67   83334   83331      66   83337   83331      66
   83337   83334      67   83346   83343      66   83349   83343      66   83349
   83346      67   83358   83355      66   83361   83355      66   83361   83358
      67   83370   83367      66   83373   83367      66   83373   83370      67
   83382   83379      66   83385   83379      66   83385   83382      67   83394
   83391      66   83397   83391      66   83397   83394      67   83406   83403
      66   83409   83403      66   83409   83406      67   83418   83415      66
   83421   83415      66   83421   83418      67   83430   83427      66   83433
   83427      66   83433   83430      67   83442   83439      66   83445   83439
      66   83445   83442      67   83454   83451      66   83457   83451      66
   83457   83454      67   83466   83463      66   83469   83463      66   83469
   83466      67   83478   83475      66   83481   83475      66   83481   83478
      67   83490   83487      66   83493   83487      66   83493   83490      67
   83502   83499      66   83505   83499      66   83505   83502      67   83514
   83511      66   83517   83511      66   83517   83514      67   83526   83523
      66   83529   83523      66   83529   83526      67   83538   83535      66
   83541   83535      66   83541   83538      67   83550   83547      66   83553
   83547      66   83553   83550      67   83562   83559      66   83565   83559
      66   83565   83562      67   83574   83571      66   83577   83571      66
   83577   83574      67   83586   83583      66   83589   83583      66   83589
   83586      67   83598   83595      66   83601   83595      66   83601   83598
      67   83610   83607      66   83613   83607      66   83613   83610      67
   83622   83619      66   83625   83619      66   83625   83622      67   83634
   83631      66   83637   83631      66   83637   83634      67   83646   83643
      66   83649   83643      66   83649   83646      67   83658   83655      66
   83661   83655      66   83661   83658      67   83670   83667      66   83673
   83667      66   83673   83670      67   83682   83679      66   83685   83679
      66   83685   83682      67   83694   83691      66   83697   83691      66
   83697   83694      67   83706   83703      66   83709   83703      66   83709
   83706      67   83718   83715      66   83721   83715      66   83721   83718
      67   83730   83727      66   83733   83727      66   83733   83730      67
   83742   83739      66   83745   83739      66   83745   83742      67   83754
   83751      66   83757   83751      66   83757   83754      67   83766   83763
      66   83769   83763      66   83769   83766      67   83778   83775      66
   83781   83775      66   83781   83778      67   83790   83787      66   83793
   83787      66   83793   83790      67   83802   83799      66   83805   83799
      66   83805   83802      67   83814   83811      66   83817   83811      66
   83817   83814      67   83826   83823      66   83829   83823      66   83829
   83826      67   83838   83835      66   83841   83835      66   83841   83838
      67   83850   83847      66   83853   83847      66   83853   83850      67
   83862   83859      66   83865   83859      66   83865   83862      67   83874
   83871      66   83877   83871      66   83877   83874      67   83886   83883
      66   83889   83883      66   83889   83886      67   83898   83895      66
   83901   83895      66   83901   83898      67   83910   83907      66   83913
   83907      66   83913   83910      67   83922   83919      66   83925   83919
      66   83925   83922      67   83934   83931      66   83937   83931      66
   83937   83934      67   83946   83943      66   83949   83943      66   83949
   83946      67   83958   83955      66   83961   83955      66   83961   83958
      67   83970   83967      66   83973   83967      66   83973   83970      67
   83982   83979      66   83985   83979      66   83985   83982      67   83994
   83991      66   83997   83991      66   83997   83994      67   84006   84003
      66   84009   84003      66   84009   84006      67   84018   84015      66
   84021   84015      66   84021   84018      67   84030   84027      66   84033
   84027      66   84033   84030      67   84042   84039      66   84045   84039
      66   84045   84042      67   84054   84051      66   84057   84051      66
   84057   84054      67   84066   84063      66   84069   84063      66   84069
   84066      67   84078   84075      66   84081   84075      66   84081   84078
      67   84090   84087      66   84093   84087      66   84093   84090      67
   84102   84099      66   84105   84099      66   84105   84102      67   84114
   84111      66   84117   84111      66   84117   84114      67   84126   84123
      66   84129   84123      66   84129   84126      67   84138   84135      66
   84141   84135      66   84141   84138      67   84150   84147      66   84153
   84147      66   84153   84150      67   84162   84159      66   84165   84159
      66   84165   84162      67   84174   84171      66   84177   84171      66
   84177   84174      67   84186   84183      66   84189   84183      66   84189
   84186      67   84198   84195      66   84201   84195      66   84201   84198
      67   84210   84207      66   84213   84207      66   84213   84210      67
   84222   84219      66   84225   84219      66   84225   84222      67   84234
   84231      66   84237   84231      66   84237   84234      67   84246   84243
      66   84249   84243      66   84249   84246      67   84258   84255      66
   84261   84255      66   84261   84258      67   84270   84267      66   84273
   84267      66   84273   84270      67   84282   84279      66   84285   84279
      66   84285   84282      67   84294   84291      66   84297   84291      66
   84297   84294      67   84306   84303      66   84309   84303      66   84309
   84306      67   84318   84315      66   84321   84315      66   84321   84318
      67   84330   84327      66   84333   84327      66   84333   84330      67
   84342   84339      66   84345   84339      66   84345   84342      67   84354
   84351      66   84357   84351      66   84357   84354      67   84366   84363
      66   84369   84363      66   84369   84366      67   84378   84375      66
   84381   84375      66   84381   84378      67   84390   84387      66   84393
   84387      66   84393   84390      67   84402   84399      66   84405   84399
      66   84405   84402      67   84414   84411      66   84417   84411      66
   84417   84414      67   84426   84423      66   84429   84423      66   84429
   84426      67   84438   84435      66   84441   84435      66   84441   84438
      67   84450   84447      66   84453   84447      66   84453   84450      67
   84462   84459      66   84465   84459      66   84465   84462      67   84474
   84471      66   84477   84471      66   84477   84474      67   84486   84483
      66   84489   84483      66   84489   84486      67   84498   84495      66
   84501   84495      66   84501   84498      67   84510   84507      66   84513
   84507      66   84513   84510      67   84522   84519      66   84525   84519
      66   84525   84522      67   84534   84531      66   84537   84531      66
   84537   84534      67   84546   84543      66   84549   84543      66   84549
   84546      67   84558   84555      66   84561   84555      66   84561   84558
      67   84570   84567      66   84573   84567      66   84573   84570      67
   84582   84579      66   84585   84579      66   84585   84582      67   84594
   84591      66   84597   84591      66   84597   84594      67   84606   84603
      66   84609   84603      66   84609   84606      67   84618   84615      66
   84621   84615      66   84621   84618      67   84630   84627      66   84633
   84627      66   84633   84630      67   84642   84639      66   84645   84639
      66   84645   84642      67   84654   84651      66   84657   84651      66
   84657   84654      67   84666   84663      66   84669   84663      66   84669
   84666      67   84678   84675      66   84681   84675      66   84681   84678
      67   84690   84687      66   84693   84687      66   84693   84690      67
   84702   84699      66   84705   84699      66   84705   84702      67   84714
   84711      66   84717   84711      66   84717   84714      67   84726   84723
      66   84729   84723      66   84729   84726      67   84738   84735      66
   84741   84735      66   84741   84738      67   84750   84747      66   84753
   84747      66   84753   84750      67   84762   84759      66   84765   84759
      66   84765   84762      67   84774   84771      66   84777   84771      66
   84777   84774      67   84786   84783      66   84789   84783      66   84789
   84786      67   84798   84795      66   84801   84795      66   84801   84798
      67   84810   84807      66   84813   84807      66   84813   84810      67
   84822   84819      66   84825   84819      66   84825   84822      67   84834
   84831      66   84837   84831      66   84837   84834      67   84846   84843
      66   84849   84843      66   84849   84846      67   84858   84855      66
   84861   84855      66   84861   84858      67   84870   84867      66   84873
   84867      66   84873   84870      67   84882   84879      66   84885   84879
      66   84885   84882      67   84894   84891      66   84897   84891      66
   84897   84894      67   84906   84903      66   84909   84903      66   84909
   84906      67   84918   84915      66   84921   84915      66   84921   84918
      67   84930   84927      66   84933   84927      66   84933   84930      67
   84942   84939      66   84945   84939      66   84945   84942      67   84954
   84951      66   84957   84951      66   84957   84954      67   84966   84963
      66   84969   84963      66   84969   84966      67   84978   84975      66
   84981   84975      66   84981   84978      67   84990   84987      66   84993
   84987      66   84993   84990      67   85002   84999      66   85005   84999
      66   85005   85002      67   85014   85011      66   85017   85011      66
   85017   85014      67   85026   85023      66   85029   85023      66   85029
   85026      67   85038   85035      66   85041   85035      66   85041   85038
      67   85050   85047      66   85053   85047      66   85053   85050      67
   85062   85059      66   85065   85059      66   85065   85062      67   85074
   85071      66   85077   85071      66   85077   85074      67   85086   85083
      66   85089   85083      66   85089   85086      67   85098   85095      66
   85101   85095      66   85101   85098      67   85110   85107      66   85113
   85107      66   85113   85110      67   85122   85119      66   85125   85119
      66   85125   85122      67   85134   85131      66   85137   85131      66
   85137   85134      67   85146   85143      66   85149   85143      66   85149
   85146      67   85158   85155      66   85161   85155      66   85161   85158
      67   85170   85167      66   85173   85167      66   85173   85170      67
   85182   85179      66   85185   85179      66   85185   85182      67   85194
   85191      66   85197   85191      66   85197   85194      67   85206   85203
      66   85209   85203      66   85209   85206      67   85218   85215      66
   85221   85215      66   85221   85218      67   85230   85227      66   85233
   85227      66   85233   85230      67   85242   85239      66   85245   85239
      66   85245   85242      67   85254   85251      66   85257   85251      66
   85257   85254      67   85266   85263      66   85269   85263      66   85269
   85266      67   85278   85275      66   85281   85275      66   85281   85278
      67   85290   85287      66   85293   85287      66   85293   85290      67
   85302   85299      66   85305   85299      66   85305   85302      67   85314
   85311      66   85317   85311      66   85317   85314      67   85326   85323
      66   85329   85323      66   85329   85326      67   85338   85335      66
   85341   85335      66   85341   85338      67   85350   85347      66   85353
   85347      66   85353   85350      67   85362   85359      66   85365   85359
      66   85365   85362      67   85374   85371      66   85377   85371      66
   85377   85374      67   85386   85383      66   85389   85383      66   85389
   85386      67   85398   85395      66   85401   85395      66   85401   85398
      67   85410   85407      66   85413   85407      66   85413   85410      67
   85422   85419      66   85425   85419      66   85425   85422      67   85434
   85431      66   85437   85431      66   85437   85434      67   85446   85443
      66   85449   85443      66   85449   85446      67   85458   85455      66
   85461   85455      66   85461   85458      67   85470   85467      66   85473
   85467      66   85473   85470      67   85482   85479      66   85485   85479
      66   85485   85482      67   85494   85491      66   85497   85491      66
   85497   85494      67   85506   85503      66   85509   85503      66   85509
   85506      67   85518   85515      66   85521   85515      66   85521   85518
      67   85530   85527      66   85533   85527      66   85533   85530      67
   85542   85539      66   85545   85539      66   85545   85542      67   85554
   85551      66   85557   85551      66   85557   85554      67   85566   85563
      66   85569   85563      66   85569   85566      67   85578   85575      66
   85581   85575      66   85581   85578      67   85590   85587      66   85593
   85587      66   85593   85590      67   85602   85599      66   85605   85599
      66   85605   85602      67   85614   85611      66   85617   85611      66
   85617   85614      67   85626   85623      66   85629   85623      66   85629
   85626      67   85638   85635      66   85641   85635      66   85641   85638
      67   85650   85647      66   85653   85647      66   85653   85650      67
   85662   85659      66   85665   85659      66   85665   85662      67   85674
   85671      66   85677   85671      66   85677   85674      67   85686   85683
      66   85689   85683      66   85689   85686      67   85698   85695      66
   85701   85695      66   85701   85698      67   85710   85707      66   85713
   85707      66   85713   85710      67   85722   85719      66   85725   85719
      66   85725   85722      67   85734   85731      66   85737   85731      66
   85737   85734      67   85746   85743      66   85749   85743      66   85749
   85746      67   85758   85755      66   85761   85755      66   85761   85758
      67   85770   85767      66   85773   85767      66   85773   85770      67
   85782   85779      66   85785   85779      66   85785   85782      67   85794
   85791      66   85797   85791      66   85797   85794      67   85806   85803
      66   85809   85803      66   85809   85806      67   85818   85815      66
   85821   85815      66   85821   85818      67   85830   85827      66   85833
   85827      66   85833   85830      67   85842   85839      66   85845   85839
      66   85845   85842      67   85854   85851      66   85857   85851      66
   85857   85854      67   85866   85863      66   85869   85863      66   85869
   85866      67   85878   85875      66   85881   85875      66   85881   85878
      67   85890   85887      66   85893   85887      66   85893   85890      67
   85902   85899      66   85905   85899      66   85905   85902      67   85914
   85911      66   85917   85911      66   85917   85914      67   85926   85923
      66   85929   85923      66   85929   85926      67   85938   85935      66
   85941   85935      66   85941   85938      67   85950   85947      66   85953
   85947      66   85953   85950      67   85962   85959      66   85965   85959
      66   85965   85962      67   85974   85971      66   85977   85971      66
   85977   85974      67   85986   85983      66   85989   85983      66   85989
   85986      67   85998   85995      66   86001   85995      66   86001   85998
      67   86010   86007      66   86013   86007      66   86013   86010      67
   86022   86019      66   86025   86019      66   86025   86022      67   86034
   86031      66   86037   86031      66   86037   86034      67   86046   86043
      66   86049   86043      66   86049   86046      67   86058   86055      66
   86061   86055      66   86061   86058      67   86070   86067      66   86073
   86067      66   86073   86070      67   86082   86079      66   86085   86079
      66   86085   86082      67   86094   86091      66   86097   86091      66
   86097   86094      67   86106   86103      66   86109   86103      66   86109
   86106      67   86118   86115      66   86121   86115      66   86121   86118
      67   86130   86127      66   86133   86127      66   86133   86130      67
   86142   86139      66   86145   86139      66   86145   86142      67   86154
   86151      66   86157   86151      66   86157   86154      67   86166   86163
      66   86169   86163      66   86169   86166      67   86178   86175      66
   86181   86175      66   86181   86178      67   86190   86187      66   86193
   86187      66   86193   86190      67   86202   86199      66   86205   86199
      66   86205   86202      67   86214   86211      66   86217   86211      66
   86217   86214      67   86226   86223      66   86229   86223      66   86229
   86226      67   86238   86235      66   86241   86235      66   86241   86238
      67   86250   86247      66   86253   86247      66   86253   86250      67
   86262   86259      66   86265   86259      66   86265   86262      67   86274
   86271      66   86277   86271      66   86277   86274      67   86286   86283
      66   86289   86283      66   86289   86286      67   86298   86295      66
   86301   86295      66   86301   86298      67   86310   86307      66   86313
   86307      66   86313   86310      67   86322   86319      66   86325   86319
      66   86325   86322      67   86334   86331      66   86337   86331      66
   86337   86334      67   86346   86343      66   86349   86343      66   86349
   86346      67   86358   86355      66   86361   86355      66   86361   86358
      67   86370   86367      66   86373   86367      66   86373   86370      67
   86382   86379      66   86385   86379      66   86385   86382      67   86394
   86391      66   86397   86391      66   86397   86394      67   86406   86403
      66   86409   86403      66   86409   86406      67   86418   86415      66
   86421   86415      66   86421   86418      67   86430   86427      66   86433
   86427      66   86433   86430      67   86442   86439      66   86445   86439
      66   86445   86442      67   86454   86451      66   86457   86451      66
   86457   86454      67   86466   86463      66   86469   86463      66   86469
   86466      67   86478   86475      66   86481   86475      66   86481   86478
      67   86490   86487      66   86493   86487      66   86493   86490      67
   86502   86499      66   86505   86499      66   86505   86502      67   86514
   86511      66   86517   86511      66   86517   86514      67   86526   86523
      66   86529   86523      66   86529   86526      67   86538   86535      66
   86541   86535      66   86541   86538      67   86550   86547      66   86553
   86547      66   86553   86550      67   86562   86559      66   86565   86559
      66   86565   86562      67   86574   86571      66   86577   86571      66
   86577   86574      67   86586   86583      66   86589   86583      66   86589
   86586      67   86598   86595      66   86601   86595      66   86601   86598
      67   86610   86607      66   86613   86607      66   86613   86610      67
   86622   86619      66   86625   86619      66   86625   86622      67   86634
   86631      66   86637   86631      66   86637   86634      67   86646   86643
      66   86649   86643      66   86649   86646      67   86658   86655      66
   86661   86655      66   86661   86658      67   86670   86667      66   86673
   86667      66   86673   86670      67   86682   86679      66   86685   86679
      66   86685   86682      67   86694   86691      66   86697   86691      66
   86697   86694      67   86706   86703      66   86709   86703      66   86709
   86706      67   86718   86715      66   86721   86715      66   86721   86718
      67   86730   86727      66   86733   86727      66   86733   86730      67
   86742   86739      66   86745   86739      66   86745   86742      67   86754
   86751      66   86757   86751      66   86757   86754      67   86766   86763
      66   86769   86763      66   86769   86766      67   86778   86775      66
   86781   86775      66   86781   86778      67   86790   86787      66   86793
   86787      66   86793   86790      67   86802   86799      66   86805   86799
      66   86805   86802      67   86814   86811      66   86817   86811      66
   86817   86814      67   86826   86823      66   86829   86823      66   86829
   86826      67   86838   86835      66   86841   86835      66   86841   86838
      67   86850   86847      66   86853   86847      66   86853   86850      67
   86862   86859      66   86865   86859      66   86865   86862      67   86874
   86871      66   86877   86871      66   86877   86874      67   86886   86883
      66   86889   86883      66   86889   86886      67   86898   86895      66
   86901   86895      66   86901   86898      67   86910   86907      66   86913
   86907      66   86913   86910      67   86922   86919      66   86925   86919
      66   86925   86922      67   86934   86931      66   86937   86931      66
   86937   86934      67   86946   86943      66   86949   86943      66   86949
   86946      67   86958   86955      66   86961   86955      66   86961   86958
      67   86970   86967      66   86973   86967      66   86973   86970      67
   86982   86979      66   86985   86979      66   86985   86982      67   86994
   86991      66   86997   86991      66   86997   86994      67   87006   87003
      66   87009   87003      66   87009   87006      67   87018   87015      66
   87021   87015      66   87021   87018      67   87030   87027      66   87033
   87027      66   87033   87030      67   87042   87039      66   87045   87039
      66   87045   87042      67   87054   87051      66   87057   87051      66
   87057   87054      67   87066   87063      66   87069   87063      66   87069
   87066      67   87078   87075      66   87081   87075      66   87081   87078
      67   87090   87087      66   87093   87087      66   87093   87090      67
   87102   87099      66   87105   87099      66   87105   87102      67   87114
   87111      66   87117   87111      66   87117   87114      67   87126   87123
      66   87129   87123      66   87129   87126      67   87138   87135      66
   87141   87135      66   87141   87138      67   87150   87147      66   87153
   87147      66   87153   87150      67   87162   87159      66   87165   87159
      66   87165   87162      67   87174   87171      66   87177   87171      66
   87177   87174      67   87186   87183      66   87189   87183      66   87189
   87186      67   87198   87195      66   87201   87195      66   87201   87198
      67   87210   87207      66   87213   87207      66   87213   87210      67
   87222   87219      66   87225   87219      66   87225   87222      67   87234
   87231      66   87237   87231      66   87237   87234      67   87246   87243
      66   87249   87243      66   87249   87246      67   87258   87255      66
   87261   87255      66   87261   87258      67   87270   87267      66   87273
   87267      66   87273   87270      67   87282   87279      66   87285   87279
      66   87285   87282      67   87294   87291      66   87297   87291      66
   87297   87294      67   87306   87303      66   87309   87303      66   87309
   87306      67   87318   87315      66   87321   87315      66   87321   87318
      67   87330   87327      66   87333   87327      66   87333   87330      67
   87342   87339      66   87345   87339      66   87345   87342      67   87354
   87351      66   87357   87351      66   87357   87354      67   87366   87363
      66   87369   87363      66   87369   87366      67   87378   87375      66
   87381   87375      66   87381   87378      67   87390   87387      66   87393
   87387      66   87393   87390      67   87402   87399      66   87405   87399
      66   87405   87402      67   87414   87411      66   87417   87411      66
   87417   87414      67   87426   87423      66   87429   87423      66   87429
   87426      67   87438   87435      66   87441   87435      66   87441   87438
      67   87450   87447      66   87453   87447      66   87453   87450      67
   87462   87459      66   87465   87459      66   87465   87462      67   87474
   87471      66   87477   87471      66   87477   87474      67   87486   87483
      66   87489   87483      66   87489   87486      67   87498   87495      66
   87501   87495      66   87501   87498      67   87510   87507      66   87513
   87507      66   87513   87510      67   87522   87519      66   87525   87519
      66   87525   87522      67   87534   87531      66   87537   87531      66
   87537   87534      67   87546   87543      66   87549   87543      66   87549
   87546      67   87558   87555      66   87561   87555      66   87561   87558
      67   87570   87567      66   87573   87567      66   87573   87570      67
   87582   87579      66   87585   87579      66   87585   87582      67   87594
   87591      66   87597   87591      66   87597   87594      67   87606   87603
      66   87609   87603      66   87609   87606      67   87618   87615      66
   87621   87615      66   87621   87618      67   87630   87627      66   87633
   87627      66   87633   87630      67   87642   87639      66   87645   87639
      66   87645   87642      67   87654   87651      66   87657   87651      66
   87657   87654      67   87666   87663      66   87669   87663      66   87669
   87666      67   87678   87675      66   87681   87675      66   87681   87678
      67   87690   87687      66   87693   87687      66   87693   87690      67
   87702   87699      66   87705   87699      66   87705   87702      67   87714
   87711      66   87717   87711      66   87717   87714      67   87726   87723
      66   87729   87723      66   87729   87726      67   87738   87735      66
   87741   87735      66   87741   87738      67   87750   87747      66   87753
   87747      66   87753   87750      67   87762   87759      66   87765   87759
      66   87765   87762      67   87774   87771      66   87777   87771      66
   87777   87774      67   87786   87783      66   87789   87783      66   87789
   87786      67   87798   87795      66   87801   87795      66   87801   87798
      67   87810   87807      66   87813   87807      66   87813   87810      67
   87822   87819      66   87825   87819      66   87825   87822      67   87834
   87831      66   87837   87831      66   87837   87834      67   87846   87843
      66   87849   87843      66   87849   87846      67   87858   87855      66
   87861   87855      66   87861   87858      67   87870   87867      66   87873
   87867      66   87873   87870      67   87882   87879      66   87885   87879
      66   87885   87882      67   87894   87891      66   87897   87891      66
   87897   87894      67   87906   87903      66   87909   87903      66   87909
   87906      67   87918   87915      66   87921   87915      66   87921   87918
      67   87930   87927      66   87933   87927      66   87933   87930      67
   87942   87939      66   87945   87939      66   87945   87942      67   87954
   87951      66   87957   87951      66   87957   87954      67   87966   87963
      66   87969   87963      66   87969   87966      67   87978   87975      66
   87981   87975      66   87981   87978      67   87990   87987      66   87993
   87987      66   87993   87990      67   88002   87999      66   88005   87999
      66   88005   88002      67   88014   88011      66   88017   88011      66
   88017   88014      67   88026   88023      66   88029   88023      66   88029
   88026      67   88038   88035      66   88041   88035      66   88041   88038
      67   88050   88047      66   88053   88047      66   88053   88050      67
   88062   88059      66   88065   88059      66   88065   88062      67   88074
   88071      66   88077   88071      66   88077   88074      67   88086   88083
      66   88089   88083      66   88089   88086      67   88098   88095      66
   88101   88095      66   88101   88098      67   88110   88107      66   88113
   88107      66   88113   88110      67   88122   88119      66   88125   88119
      66   88125   88122      67   88134   88131      66   88137   88131      66
   88137   88134      67   88146   88143      66   88149   88143      66   88149
   88146      67   88158   88155      66   88161   88155      66   88161   88158
      67   88170   88167      66   88173   88167      66   88173   88170      67
   88182   88179      66   88185   88179      66   88185   88182      67   88194
   88191      66   88197   88191      66   88197   88194      67   88206   88203
      66   88209   88203      66   88209   88206      67   88218   88215      66
   88221   88215      66   88221   88218      67   88230   88227      66   88233
   88227      66   88233   88230      67   88242   88239      66   88245   88239
      66   88245   88242      67   88254   88251      66   88257   88251      66
   88257   88254      67   88266   88263      66   88269   88263      66   88269
   88266      67   88278   88275      66   88281   88275      66   88281   88278
      67   88290   88287      66   88293   88287      66   88293   88290      67
   88302   88299      66   88305   88299      66   88305   88302      67   88314
   88311      66   88317   88311      66   88317   88314      67   88326   88323
      66   88329   88323      66   88329   88326      67   88338   88335      66
   88341   88335      66   88341   88338      67   88350   88347      66   88353
   88347      66   88353   88350      67   88362   88359      66   88365   88359
      66   88365   88362      67   88374   88371      66   88377   88371      66
   88377   88374      67   88386   88383      66   88389   88383      66   88389
   88386      67   88398   88395      66   88401   88395      66   88401   88398
      67   88410   88407      66   88413   88407      66   88413   88410      67
   88422   88419      66   88425   88419      66   88425   88422      67   88434
   88431      66   88437   88431      66   88437   88434      67   88446   88443
      66   88449   88443      66   88449   88446      67   88458   88455      66
   88461   88455      66   88461   88458      67   88470   88467      66   88473
   88467      66   88473   88470      67   88482   88479      66   88485   88479
      66   88485   88482      67   88494   88491      66   88497   88491      66
   88497   88494      67   88506   88503      66   88509   88503      66   88509
   88506      67   88518   88515      66   88521   88515      66   88521   88518
      67   88530   88527      66   88533   88527      66   88533   88530      67
   88542   88539      66   88545   88539      66   88545   88542      67   88554
   88551      66   88557   88551      66   88557   88554      67   88566   88563
      66   88569   88563      66   88569   88566      67   88578   88575      66
   88581   88575      66   88581   88578      67   88590   88587      66   88593
   88587      66   88593   88590      67   88602   88599      66   88605   88599
      66   88605   88602      67   88614   88611      66   88617   88611      66
   88617   88614      67   88626   88623      66   88629   88623      66   88629
   88626      67   88638   88635      66   88641   88635      66   88641   88638
      67   88650   88647      66   88653   88647      66   88653   88650      67
   88662   88659      66   88665   88659      66   88665   88662      67   88674
   88671      66   88677   88671      66   88677   88674      67   88686   88683
      66   88689   88683      66   88689   88686      67   88698   88695      66
   88701   88695      66   88701   88698      67   88710   88707      66   88713
   88707      66   88713   88710      67   88722   88719      66   88725   88719
      66   88725   88722      67   88734   88731      66   88737   88731      66
   88737   88734      67   88746   88743      66   88749   88743      66   88749
   88746      67   88758   88755      66   88761   88755      66   88761   88758
      67   88770   88767      66   88773   88767      66   88773   88770      67
   88782   88779      66   88785   88779      66   88785   88782      67   88794
   88791      66   88797   88791      66   88797   88794      67   88806   88803
      66   88809   88803      66   88809   88806      67   88818   88815      66
   88821   88815      66   88821   88818      67   88830   88827      66   88833
   88827      66   88833   88830      67   88842   88839      66   88845   88839
      66   88845   88842      67   88854   88851      66   88857   88851      66
   88857   88854      67   88866   88863      66   88869   88863      66   88869
   88866      67   88878   88875      66   88881   88875      66   88881   88878
      67   88890   88887      66   88893   88887      66   88893   88890      67
   88902   88899      66   88905   88899      66   88905   88902      67   88914
   88911      66   88917   88911      66   88917   88914      67   88926   88923
      66   88929   88923      66   88929   88926      67   88938   88935      66
   88941   88935      66   88941   88938      67   88950   88947      66   88953
   88947      66   88953   88950      67   88962   88959      66   88965   88959
      66   88965   88962      67   88974   88971      66   88977   88971      66
   88977   88974      67   88986   88983      66   88989   88983      66   88989
   88986      67   88998   88995      66   89001   88995      66   89001   88998
      67   89010   89007      66   89013   89007      66   89013   89010      67
   89022   89019      66   89025   89019      66   89025   89022      67   89034
   89031      66   89037   89031      66   89037   89034      67   89046   89043
      66   89049   89043      66   89049   89046      67   89058   89055      66
   89061   89055      66   89061   89058      67   89070   89067      66   89073
   89067      66   89073   89070      67   89082   89079      66   89085   89079
      66   89085   89082      67   89094   89091      66   89097   89091      66
   89097   89094      67   89106   89103      66   89109   89103      66   89109
   89106      67   89118   89115      66   89121   89115      66   89121   89118
      67   89130   89127      66   89133   89127      66   89133   89130      67
   89142   89139      66   89145   89139      66   89145   89142      67   89154
   89151      66   89157   89151      66   89157   89154      67   89166   89163
      66   89169   89163      66   89169   89166      67   89178   89175      66
   89181   89175      66   89181   89178      67   89190   89187      66   89193
   89187      66   89193   89190      67   89202   89199      66   89205   89199
      66   89205   89202      67   89214   89211      66   89217   89211      66
   89217   89214      67   89226   89223      66   89229   89223      66   89229
   89226      67   89238   89235      66   89241   89235      66   89241   89238
      67   89250   89247      66   89253   89247      66   89253   89250      67
   89262   89259      66   89265   89259      66   89265   89262      67   89274
   89271      66   89277   89271      66   89277   89274      67   89286   89283
      66   89289   89283      66   89289   89286      67   89298   89295      66
   89301   89295      66   89301   89298      67   89310   89307      66   89313
   89307      66   89313   89310      67   89322   89319      66   89325   89319
      66   89325   89322      67   89334   89331      66   89337   89331      66
   89337   89334      67   89346   89343      66   89349   89343      66   89349
   89346      67   89358   89355      66   89361   89355      66   89361   89358
      67   89370   89367      66   89373   89367      66   89373   89370      67
   89382   89379      66   89385   89379      66   89385   89382      67   89394
   89391      66   89397   89391      66   89397   89394      67   89406   89403
      66   89409   89403      66   89409   89406      67   89418   89415      66
   89421   89415      66   89421   89418      67   89430   89427      66   89433
   89427      66   89433   89430      67   89442   89439      66   89445   89439
      66   89445   89442      67   89454   89451      66   89457   89451      66
   89457   89454      67   89466   89463      66   89469   89463      66   89469
   89466      67   89478   89475      66   89481   89475      66   89481   89478
      67   89490   89487      66   89493   89487      66   89493   89490      67
   89502   89499      66   89505   89499      66   89505   89502      67   89514
   89511      66   89517   89511      66   89517   89514      67   89526   89523
      66   89529   89523      66   89529   89526      67   89538   89535      66
   89541   89535      66   89541   89538      67   89550   89547      66   89553
   89547      66   89553   89550      67   89562   89559      66   89565   89559
      66   89565   89562      67   89574   89571      66   89577   89571      66
   89577   89574      67   89586   89583      66   89589   89583      66   89589
   89586      67   89598   89595      66   89601   89595      66   89601   89598
      67   89610   89607      66   89613   89607      66   89613   89610      67
   89622   89619      66   89625   89619      66   89625   89622      67   89634
   89631      66   89637   89631      66   89637   89634      67   89646   89643
      66   89649   89643      66   89649   89646      67   89658   89655      66
   89661   89655      66   89661   89658      67   89670   89667      66   89673
   89667      66   89673   89670      67   89682   89679      66   89685   89679
      66   89685   89682      67   89694   89691      66   89697   89691      66
   89697   89694      67   89706   89703      66   89709   89703      66   89709
   89706      67   89718   89715      66   89721   89715      66   89721   89718
      67   89730   89727      66   89733   89727      66   89733   89730      67
   89742   89739      66   89745   89739      66   89745   89742      67   89754
   89751      66   89757   89751      66   89757   89754      67   89766   89763
      66   89769   89763      66   89769   89766      67   89778   89775      66
   89781   89775      66   89781   89778      67   89790   89787      66   89793
   89787      66   89793   89790      67   89802   89799      66   89805   89799
      66   89805   89802      67   89814   89811      66   89817   89811      66
   89817   89814      67   89826   89823      66   89829   89823      66   89829
   89826      67   89838   89835      66   89841   89835      66   89841   89838
      67   89850   89847      66   89853   89847      66   89853   89850      67
   89862   89859      66   89865   89859      66   89865   89862      67   89874
   89871      66   89877   89871      66   89877   89874      67   89886   89883
      66   89889   89883      66   89889   89886      67   89898   89895      66
   89901   89895      66   89901   89898      67   89910   89907      66   89913
   89907      66   89913   89910      67   89922   89919      66   89925   89919
      66   89925   89922      67   89934   89931      66   89937   89931      66
   89937   89934      67   89946   89943      66   89949   89943      66   89949
   89946      67   89958   89955      66   89961   89955      66   89961   89958
      67   89970   89967      66   89973   89967      66   89973   89970      67
   89982   89979      66   89985   89979      66   89985   89982      67   89994
   89991      66   89997   89991      66   89997   89994      67   90006   90003
      66   90009   90003      66   90009   90006      67   90018   90015      66
   90021   90015      66   90021   90018      67   90030   90027      66   90033
   90027      66   90033   90030      67   90042   90039      66   90045   90039
      66   90045   90042      67   90054   90051      66   90057   90051      66
   90057   90054      67   90066   90063      66   90069   90063      66   90069
   90066      67   90078   90075      66   90081   90075      66   90081   90078
      67   90090   90087      66   90093   90087      66   90093   90090      67
   90102   90099      66   90105   90099      66   90105   90102      67   90114
   90111      66   90117   90111      66   90117   90114      67   90126   90123
      66   90129   90123      66   90129   90126      67   90138   90135      66
   90141   90135      66   90141   90138      67   90150   90147      66   90153
   90147      66   90153   90150      67   90162   90159      66   90165   90159
      66   90165   90162      67   90174   90171      66   90177   90171      66
   90177   90174      67   90186   90183      66   90189   90183      66   90189
   90186      67   90198   90195      66   90201   90195      66   90201   90198
      67   90210   90207      66   90213   90207      66   90213   90210      67
   90222   90219      66   90225   90219      66   90225   90222      67   90234
   90231      66   90237   90231      66   90237   90234      67   90246   90243
      66   90249   90243      66   90249   90246      67   90258   90255      66
   90261   90255      66   90261   90258      67   90270   90267      66   90273
   90267      66   90273   90270      67   90282   90279      66   90285   90279
      66   90285   90282      67   90294   90291      66   90297   90291      66
   90297   90294      67   90306   90303      66   90309   90303      66   90309
   90306      67   90318   90315      66   90321   90315      66   90321   90318
      67   90330   90327      66   90333   90327      66   90333   90330      67
   90342   90339      66   90345   90339      66   90345   90342      67   90354
   90351      66   90357   90351      66   90357   90354      67   90366   90363
      66   90369   90363      66   90369   90366      67   90378   90375      66
   90381   90375      66   90381   90378      67   90390   90387      66   90393
   90387      66   90393   90390      67   90402   90399      66   90405   90399
      66   90405   90402      67   90414   90411      66   90417   90411      66
   90417   90414      67   90426   90423      66   90429   90423      66   90429
   90426      67   90438   90435      66   90441   90435      66   90441   90438
      67   90450   90447      66   90453   90447      66   90453   90450      67
   90462   90459      66   90465   90459      66   90465   90462      67   90474
   90471      66   90477   90471      66   90477   90474      67   90486   90483
      66   90489   90483      66   90489   90486      67   90498   90495      66
   90501   90495      66   90501   90498      67   90510   90507      66   90513
   90507      66   90513   90510      67   90522   90519      66   90525   90519
      66   90525   90522      67   90534   90531      66   90537   90531      66
   90537   90534      67   90546   90543      66   90549   90543      66   90549
   90546      67   90558   90555      66   90561   90555      66   90561   90558
      67   90570   90567      66   90573   90567      66   90573   90570      67
   90582   90579      66   90585   90579      66   90585   90582      67   90594
   90591      66   90597   90591      66   90597   90594      67   90606   90603
      66   90609   90603      66   90609   90606      67   90618   90615      66
   90621   90615      66   90621   90618      67   90630   90627      66   90633
   90627      66   90633   90630      67   90642   90639      66   90645   90639
      66   90645   90642      67   90654   90651      66   90657   90651      66
   90657   90654      67   90666   90663      66   90669   90663      66   90669
   90666      67   90678   90675      66   90681   90675      66   90681   90678
      67   90690   90687      66   90693   90687      66   90693   90690      67
   90702   90699      66   90705   90699      66   90705   90702      67   90714
   90711      66   90717   90711      66   90717   90714      67   90726   90723
      66   90729   90723      66   90729   90726      67   90738   90735      66
   90741   90735      66   90741   90738      67   90750   90747      66   90753
   90747      66   90753   90750      67   90762   90759      66   90765   90759
      66   90765   90762      67   90774   90771      66   90777   90771      66
   90777   90774      67   90786   90783      66   90789   90783      66   90789
   90786      67   90798   90795      66   90801   90795      66   90801   90798
      67   90810   90807      66   90813   90807      66   90813   90810      67
   90822   90819      66   90825   90819      66   90825   90822      67   90834
   90831      66   90837   90831      66   90837   90834      67   90846   90843
      66   90849   90843      66   90849   90846      67   90858   90855      66
   90861   90855      66   90861   90858      67   90870   90867      66   90873
   90867      66   90873   90870      67   90882   90879      66   90885   90879
      66   90885   90882      67   90894   90891      66   90897   90891      66
   90897   90894      67   90906   90903      66   90909   90903      66   90909
   90906      67   90918   90915      66   90921   90915      66   90921   90918
      67   90930   90927      66   90933   90927      66   90933   90930      67
   90942   90939      66   90945   90939      66   90945   90942      67   90954
   90951      66   90957   90951      66   90957   90954      67   90966   90963
      66   90969   90963      66   90969   90966      67   90978   90975      66
   90981   90975      66   90981   90978      67   90990   90987      66   90993
   90987      66   90993   90990      67   91002   90999      66   91005   90999
      66   91005   91002      67   91014   91011      66   91017   91011      66
   91017   91014      67   91026   91023      66   91029   91023      66   91029
   91026      67   91038   91035      66   91041   91035      66   91041   91038
      67   91050   91047      66   91053   91047      66   91053   91050      67
   91062   91059      66   91065   91059      66   91065   91062      67   91074
   91071      66   91077   91071      66   91077   91074      67   91086   91083
      66   91089   91083      66   91089   91086      67   91098   91095      66
   91101   91095      66   91101   91098      67   91110   91107      66   91113
   91107      66   91113   91110      67   91122   91119      66   91125   91119
      66   91125   91122      67   91134   91131      66   91137   91131      66
   91137   91134      67   91146   91143      66   91149   91143      66   91149
   91146      67   91158   91155      66   91161   91155      66   91161   91158
      67   91170   91167      66   91173   91167      66   91173   91170      67
   91182   91179      66   91185   91179      66   91185   91182      67   91194
   91191      66   91197   91191      66   91197   91194      67   91206   91203
      66   91209   91203      66   91209   91206      67   91218   91215      66
   91221   91215      66   91221   91218      67   91230   91227      66   91233
   91227      66   91233   91230      67   91242   91239      66   91245   91239
      66   91245   91242      67   91254   91251      66   91257   91251      66
   91257   91254      67   91266   91263      66   91269   91263      66   91269
   91266      67   91278   91275      66   91281   91275      66   91281   91278
      67   91290   91287      66   91293   91287      66   91293   91290      67
   91302   91299      66   91305   91299      66   91305   91302      67   91314
   91311      66   91317   91311      66   91317   91314      67   91326   91323
      66   91329   91323      66   91329   91326      67   91338   91335      66
   91341   91335      66   91341   91338      67   91350   91347      66   91353
   91347      66   91353   91350      67   91362   91359      66   91365   91359
      66   91365   91362      67   91374   91371      66   91377   91371      66
   91377   91374      67   91386   91383      66   91389   91383      66   91389
   91386      67   91398   91395      66   91401   91395      66   91401   91398
      67   91410   91407      66   91413   91407      66   91413   91410      67
   91422   91419      66   91425   91419      66   91425   91422      67   91434
   91431      66   91437   91431      66   91437   91434      67   91446   91443
      66   91449   91443      66   91449   91446      67   91458   91455      66
   91461   91455      66   91461   91458      67   91470   91467      66   91473
   91467      66   91473   91470      67   91482   91479      66   91485   91479
      66   91485   91482      67   91494   91491      66   91497   91491      66
   91497   91494      67   91506   91503      66   91509   91503      66   91509
   91506      67   91518   91515      66   91521   91515      66   91521   91518
      67   91530   91527      66   91533   91527      66   91533   91530      67
   91542   91539      66   91545   91539      66   91545   91542      67   91554
   91551      66   91557   91551      66   91557   91554      67   91566   91563
      66   91569   91563      66   91569   91566      67   91578   91575      66
   91581   91575      66   91581   91578      67   91590   91587      66   91593
   91587      66   91593   91590      67   91602   91599      66   91605   91599
      66   91605   91602      67   91614   91611      66   91617   91611      66
   91617   91614      67   91626   91623      66   91629   91623      66   91629
   91626      67   91638   91635      66   91641   91635      66   91641   91638
      67   91650   91647      66   91653   91647      66   91653   91650      67
   91662   91659      66   91665   91659      66   91665   91662      67   91674
   91671      66   91677   91671      66   91677   91674      67   91686   91683
      66   91689   91683      66   91689   91686      67   91698   91695      66
   91701   91695      66   91701   91698      67   91710   91707      66   91713
   91707      66   91713   91710      67   91722   91719      66   91725   91719
      66   91725   91722      67   91734   91731      66   91737   91731      66
   91737   91734      67   91746   91743      66   91749   91743      66   91749
   91746      67   91758   91755      66   91761   91755      66   91761   91758
      67   91770   91767      66   91773   91767      66   91773   91770      67
   91782   91779      66   91785   91779      66   91785   91782      67   91794
   91791      66   91797   91791      66   91797   91794      67   91806   91803
      66   91809   91803      66   91809   91806      67   91818   91815      66
   91821   91815      66   91821   91818      67   91830   91827      66   91833
   91827      66   91833   91830      67   91842   91839      66   91845   91839
      66   91845   91842      67   91854   91851      66   91857   91851      66
   91857   91854      67   91866   91863      66   91869   91863      66   91869
   91866      67   91878   91875      66   91881   91875      66   91881   91878
      67   91890   91887      66   91893   91887      66   91893   91890      67
   91902   91899      66   91905   91899      66   91905   91902      67   91914
   91911      66   91917   91911      66   91917   91914      67   91926   91923
      66   91929   91923      66   91929   91926      67   91938   91935      66
   91941   91935      66   91941   91938      67   91950   91947      66   91953
   91947      66   91953   91950      67   91962   91959      66   91965   91959
      66   91965   91962      67   91974   91971      66   91977   91971      66
   91977   91974      67   91986   91983      66   91989   91983      66   91989
   91986      67   91998   91995      66   92001   91995      66   92001   91998
      67   92010   92007      66   92013   92007      66   92013   92010      67
   92022   92019      66   92025   92019      66   92025   92022      67   92034
   92031      66   92037   92031      66   92037   92034      67   92046   92043
      66   92049   92043      66   92049   92046      67   92058   92055      66
   92061   92055      66   92061   92058      67   92070   92067      66   92073
   92067      66   92073   92070      67   92082   92079      66   92085   92079
      66   92085   92082      67   92094   92091      66   92097   92091      66
   92097   92094      67   92106   92103      66   92109   92103      66   92109
   92106      67   92118   92115      66   92121   92115      66   92121   92118
      67   92130   92127      66   92133   92127      66   92133   92130      67
   92142   92139      66   92145   92139      66   92145   92142      67   92154
   92151      66   92157   92151      66   92157   92154      67   92166   92163
      66   92169   92163      66   92169   92166      67   92178   92175      66
   92181   92175      66   92181   92178      67   92190   92187      66   92193
   92187      66   92193   92190      67   92202   92199      66   92205   92199
      66   92205   92202      67   92214   92211      66   92217   92211      66
   92217   92214      67   92226   92223      66   92229   92223      66   92229
   92226      67   92238   92235      66   92241   92235      66   92241   92238
      67   92250   92247      66   92253   92247      66   92253   92250      67
   92262   92259      66   92265   92259      66   92265   92262      67   92274
   92271      66   92277   92271      66   92277   92274      67   92286   92283
      66   92289   92283      66   92289   92286      67   92298   92295      66
   92301   92295      66   92301   92298      67   92310   92307      66   92313
   92307      66   92313   92310      67   92322   92319      66   92325   92319
      66   92325   92322      67   92334   92331      66   92337   92331      66
   92337   92334      67   92346   92343      66   92349   92343      66   92349
   92346      67   92358   92355      66   92361   92355      66   92361   92358
      67   92370   92367      66   92373   92367      66   92373   92370      67
   92382   92379      66   92385   92379      66   92385   92382      67   92394
   92391      66   92397   92391      66   92397   92394      67   92406   92403
      66   92409   92403      66   92409   92406      67   92418   92415      66
   92421   92415      66   92421   92418      67   92430   92427      66   92433
   92427      66   92433   92430      67   92442   92439      66   92445   92439
      66   92445   92442      67   92454   92451      66   92457   92451      66
   92457   92454      67   92466   92463      66   92469   92463      66   92469
   92466      67   92478   92475      66   92481   92475      66   92481   92478
      67   92490   92487      66   92493   92487      66   92493   92490      67
   92502   92499      66   92505   92499      66   92505   92502      67   92514
   92511      66   92517   92511      66   92517   92514      67   92526   92523
      66   92529   92523      66   92529   92526      67   92538   92535      66
   92541   92535      66   92541   92538      67   92550   92547      66   92553
   92547      66   92553   92550      67   92562   92559      66   92565   92559
      66   92565   92562      67   92574   92571      66   92577   92571      66
   92577   92574      67   92586   92583      66   92589   92583      66   92589
   92586      67   92598   92595      66   92601   92595      66   92601   92598
      67   92610   92607      66   92613   92607      66   92613   92610      67
   92622   92619      66   92625   92619      66   92625   92622      67   92634
   92631      66   92637   92631      66   92637   92634      67   92646   92643
      66   92649   92643      66   92649   92646      67   92658   92655      66
   92661   92655      66   92661   92658      67   92670   92667      66   92673
   92667      66   92673   92670      67   92682   92679      66   92685   92679
      66   92685   92682      67   92694   92691      66   92697   92691      66
   92697   92694      67   92706   92703      66   92709   92703      66   92709
   92706      67   92718   92715      66   92721   92715      66   92721   92718
      67   92730   92727      66   92733   92727      66   92733   92730      67
   92742   92739      66   92745   92739      66   92745   92742      67   92754
   92751      66   92757   92751      66   92757   92754      67   92766   92763
      66   92769   92763      66   92769   92766      67   92778   92775      66
   92781   92775      66   92781   92778      67   92790   92787      66   92793
   92787      66   92793   92790      67   92802   92799      66   92805   92799
      66   92805   92802      67   92814   92811      66   92817   92811      66
   92817   92814      67   92826   92823      66   92829   92823      66   92829
   92826      67   92838   92835      66   92841   92835      66   92841   92838
      67   92850   92847      66   92853   92847      66   92853   92850      67
   92862   92859      66   92865   92859      66   92865   92862      67   92874
   92871      66   92877   92871      66   92877   92874      67   92886   92883
      66   92889   92883      66   92889   92886      67   92898   92895      66
   92901   92895      66   92901   92898      67   92910   92907      66   92913
   92907      66   92913   92910      67   92922   92919      66   92925   92919
      66   92925   92922      67   92934   92931      66   92937   92931      66
   92937   92934      67   92946   92943      66   92949   92943      66   92949
   92946      67   92958   92955      66   92961   92955      66   92961   92958
      67   92970   92967      66   92973   92967      66   92973   92970      67
   92982   92979      66   92985   92979      66   92985   92982      67   92994
   92991      66   92997   92991      66   92997   92994      67   93006   93003
      66   93009   93003      66   93009   93006      67   93018   93015      66
   93021   93015      66   93021   93018      67   93030   93027      66   93033
   93027      66   93033   93030      67   93042   93039      66   93045   93039
      66   93045   93042      67   93054   93051      66   93057   93051      66
   93057   93054      67   93066   93063      66   93069   93063      66   93069
   93066      67   93078   93075      66   93081   93075      66   93081   93078
      67   93090   93087      66   93093   93087      66   93093   93090      67
   93102   93099      66   93105   93099      66   93105   93102      67   93114
   93111      66   93117   93111      66   93117   93114      67   93126   93123
      66   93129   93123      66   93129   93126      67   93138   93135      66
   93141   93135      66   93141   93138      67   93150   93147      66   93153
   93147      66   93153   93150      67   93162   93159      66   93165   93159
      66   93165   93162      67   93174   93171      66   93177   93171      66
   93177   93174      67   93186   93183      66   93189   93183      66   93189
   93186      67   93198   93195      66   93201   93195      66   93201   93198
      67   93210   93207      66   93213   93207      66   93213   93210      67
   93222   93219      66   93225   93219      66   93225   93222      67   93234
   93231      66   93237   93231      66   93237   93234      67   93246   93243
      66   93249   93243      66   93249   93246      67   93258   93255      66
   93261   93255      66   93261   93258      67   93270   93267      66   93273
   93267      66   93273   93270      67   93282   93279      66   93285   93279
      66   93285   93282      67   93294   93291      66   93297   93291      66
   93297   93294      67   93306   93303      66   93309   93303      66   93309
   93306      67   93318   93315      66   93321   93315      66   93321   93318
      67   93330   93327      66   93333   93327      66   93333   93330      67
   93342   93339      66   93345   93339      66   93345   93342      67   93354
   93351      66   93357   93351      66   93357   93354      67   93366   93363
      66   93369   93363      66   93369   93366      67   93378   93375      66
   93381   93375      66   93381   93378      67   93390   93387      66   93393
   93387      66   93393   93390      67   93402   93399      66   93405   93399
      66   93405   93402      67   93414   93411      66   93417   93411      66
   93417   93414      67   93426   93423      66   93429   93423      66   93429
   93426      67   93438   93435      66   93441   93435      66   93441   93438
      67   93450   93447      66   93453   93447      66   93453   93450      67
   93462   93459      66   93465   93459      66   93465   93462      67   93474
   93471      66   93477   93471      66   93477   93474      67   93486   93483
      66   93489   93483      66   93489   93486      67   93498   93495      66
   93501   93495      66   93501   93498      67   93510   93507      66   93513
   93507      66   93513   93510      67   93522   93519      66   93525   93519
      66   93525   93522      67   93534   93531      66   93537   93531      66
   93537   93534      67   93546   93543      66   93549   93543      66   93549
   93546      67   93558   93555      66   93561   93555      66   93561   93558
      67   93570   93567      66   93573   93567      66   93573   93570      67
   93582   93579      66   93585   93579      66   93585   93582      67   93594
   93591      66   93597   93591      66   93597   93594      67   93606   93603
      66   93609   93603      66   93609   93606      67   93618   93615      66
   93621   93615      66   93621   93618      67   93630   93627      66   93633
   93627      66   93633   93630      67   93642   93639      66   93645   93639
      66   93645   93642      67   93654   93651      66   93657   93651      66
   93657   93654      67   93666   93663      66   93669   93663      66   93669
   93666      67   93678   93675      66   93681   93675      66   93681   93678
      67   93690   93687      66   93693   93687      66   93693   93690      67
   93702   93699      66   93705   93699      66   93705   93702      67   93714
   93711      66   93717   93711      66   93717   93714      67   93726   93723
      66   93729   93723      66   93729   93726      67   93738   93735      66
   93741   93735      66   93741   93738      67   93750   93747      66   93753
   93747      66   93753   93750      67   93762   93759      66   93765   93759
      66   93765   93762      67   93774   93771      66   93777   93771      66
   93777   93774      67   93786   93783      66   93789   93783      66   93789
   93786      67   93798   93795      66   93801   93795      66   93801   93798
      67   93810   93807      66   93813   93807      66   93813   93810      67
   93822   93819      66   93825   93819      66   93825   93822      67   93834
   93831      66   93837   93831      66   93837   93834      67   93846   93843
      66   93849   93843      66   93849   93846      67   93858   93855      66
   93861   93855      66   93861   93858      67   93870   93867      66   93873
   93867      66   93873   93870      67   93882   93879      66   93885   93879
      66   93885   93882      67   93894   93891      66   93897   93891      66
   93897   93894      67   93906   93903      66   93909   93903      66   93909
   93906      67   93918   93915      66   93921   93915      66   93921   93918
      67   93930   93927      66   93933   93927      66   93933   93930      67
   93942   93939      66   93945   93939      66   93945   93942      67   93954
   93951      66   93957   93951      66   93957   93954      67   93966   93963
      66   93969   93963      66   93969   93966      67   93978   93975      66
   93981   93975      66   93981   93978      67   93990   93987      66   93993
   93987      66   93993   93990      67   94002   93999      66   94005   93999
      66   94005   94002      67   94014   94011      66   94017   94011      66
   94017   94014      67   94026   94023      66   94029   94023      66   94029
   94026      67   94038   94035      66   94041   94035      66   94041   94038
      67   94050   94047      66   94053   94047      66   94053   94050      67
   94062   94059      66   94065   94059      66   94065   94062      67   94074
   94071      66   94077   94071      66   94077   94074      67   94086   94083
      66   94089   94083      66   94089   94086      67   94098   94095      66
   94101   94095      66   94101   94098      67   94110   94107      66   94113
   94107      66   94113   94110      67   94122   94119      66   94125   94119
      66   94125   94122      67   94134   94131      66   94137   94131      66
   94137   94134      67   94146   94143      66   94149   94143      66   94149
   94146      67   94158   94155      66   94161   94155      66   94161   94158
      67   94170   94167      66   94173   94167      66   94173   94170      67
   94182   94179      66   94185   94179      66   94185   94182      67   94194
   94191      66   94197   94191      66   94197   94194      67   94206   94203
      66   94209   94203      66   94209   94206      67   94218   94215      66
   94221   94215      66   94221   94218      67   94230   94227      66   94233
   94227      66   94233   94230      67   94242   94239      66   94245   94239
      66   94245   94242      67   94254   94251      66   94257   94251      66
   94257   94254      67   94266   94263      66   94269   94263      66   94269
   94266      67   94278   94275      66   94281   94275      66   94281   94278
      67   94290   94287      66   94293   94287      66   94293   94290      67
   94302   94299      66   94305   94299      66   94305   94302      67   94314
   94311      66   94317   94311      66   94317   94314      67   94326   94323
      66   94329   94323      66   94329   94326      67   94338   94335      66
   94341   94335      66   94341   94338      67   94350   94347      66   94353
   94347      66   94353   94350      67   94362   94359      66   94365   94359
      66   94365   94362      67   94374   94371      66   94377   94371      66
   94377   94374      67   94386   94383      66   94389   94383      66   94389
   94386      67   94398   94395      66   94401   94395      66   94401   94398
      67   94410   94407      66   94413   94407      66   94413   94410      67
   94422   94419      66   94425   94419      66   94425   94422      67   94434
   94431      66   94437   94431      66   94437   94434      67   94446   94443
      66   94449   94443      66   94449   94446      67   94458   94455      66
   94461   94455      66   94461   94458      67   94470   94467      66   94473
   94467      66   94473   94470      67   94482   94479      66   94485   94479
      66   94485   94482      67   94494   94491      66   94497   94491      66
   94497   94494      67   94506   94503      66   94509   94503      66   94509
   94506      67   94518   94515      66   94521   94515      66   94521   94518
      67   94530   94527      66   94533   94527      66   94533   94530      67
   94542   94539      66   94545   94539      66   94545   94542      67   94554
   94551      66   94557   94551      66   94557   94554      67   94566   94563
      66   94569   94563      66   94569   94566      67   94578   94575      66
   94581   94575      66   94581   94578      67   94590   94587      66   94593
   94587      66   94593   94590      67   94602   94599      66   94605   94599
      66   94605   94602      67   94614   94611      66   94617   94611      66
   94617   94614      67   94626   94623      66   94629   94623      66   94629
   94626      67   94638   94635      66   94641   94635      66   94641   94638
      67   94650   94647      66   94653   94647      66   94653   94650      67
   94662   94659      66   94665   94659      66   94665   94662      67   94674
   94671      66   94677   94671      66   94677   94674      67   94686   94683
      66   94689   94683      66   94689   94686      67   94698   94695      66
   94701   94695      66   94701   94698      67   94710   94707      66   94713
   94707      66   94713   94710      67   94722   94719      66   94725   94719
      66   94725   94722      67   94734   94731      66   94737   94731      66
   94737   94734      67   94746   94743      66   94749   94743      66   94749
   94746      67   94758   94755      66   94761   94755      66   94761   94758
      67   94770   94767      66   94773   94767      66   94773   94770      67
   94782   94779      66   94785   94779      66   94785   94782      67   94794
   94791      66   94797   94791      66   94797   94794      67   94806   94803
      66   94809   94803      66   94809   94806      67   94818   94815      66
   94821   94815      66   94821   94818      67   94830   94827      66   94833
   94827      66   94833   94830      67   94842   94839      66   94845   94839
      66   94845   94842      67   94854   94851      66   94857   94851      66
   94857   94854      67   94866   94863      66   94869   94863      66   94869
   94866      67   94878   94875      66   94881   94875      66   94881   94878
      67   94890   94887      66   94893   94887      66   94893   94890      67
   94902   94899      66   94905   94899      66   94905   94902      67   94914
   94911      66   94917   94911      66   94917   94914      67   94926   94923
      66   94929   94923      66   94929   94926      67   94938   94935      66
   94941   94935      66   94941   94938      67   94950   94947      66   94953
   94947      66   94953   94950      67   94962   94959      66   94965   94959
      66   94965   94962      67   94974   94971      66   94977   94971      66
   94977   94974      67   94986   94983      66   94989   94983      66   94989
   94986      67   94998   94995      66   95001   94995      66   95001   94998
      67   95010   95007      66   95013   95007      66   95013   95010      67
   95022   95019      66   95025   95019      66   95025   95022      67   95034
   95031      66   95037   95031      66   95037   95034      67   95046   95043
      66   95049   95043      66   95049   95046      67   95058   95055      66
   95061   95055      66   95061   95058      67   95070   95067      66   95073
   95067      66   95073   95070      67   95082   95079      66   95085   95079
      66   95085   95082      67   95094   95091      66   95097   95091      66
   95097   95094      67   95106   95103      66   95109   95103      66   95109
   95106      67   95118   95115      66   95121   95115      66   95121   95118
      67   95130   95127      66   95133   95127      66   95133   95130      67
   95142   95139      66   95145   95139      66   95145   95142      67   95154
   95151      66   95157   95151      66   95157   95154      67   95166   95163
      66   95169   95163      66   95169   95166      67   95178   95175      66
   95181   95175      66   95181   95178      67   95190   95187      66   95193
   95187      66   95193   95190      67   95202   95199      66   95205   95199
      66   95205   95202      67   95214   95211      66   95217   95211      66
   95217   95214      67   95226   95223      66   95229   95223      66   95229
   95226      67   95238   95235      66   95241   95235      66   95241   95238
      67   95250   95247      66   95253   95247      66   95253   95250      67
   95262   95259      66   95265   95259      66   95265   95262      67   95274
   95271      66   95277   95271      66   95277   95274      67   95286   95283
      66   95289   95283      66   95289   95286      67   95298   95295      66
   95301   95295      66   95301   95298      67   95310   95307      66   95313
   95307      66   95313   95310      67   95322   95319      66   95325   95319
      66   95325   95322      67   95334   95331      66   95337   95331      66
   95337   95334      67   95346   95343      66   95349   95343      66   95349
   95346      67   95358   95355      66   95361   95355      66   95361   95358
      67   95370   95367      66   95373   95367      66   95373   95370      67
   95382   95379      66   95385   95379      66   95385   95382      67   95394
   95391      66   95397   95391      66   95397   95394      67   95406   95403
      66   95409   95403      66   95409   95406      67   95418   95415      66
   95421   95415      66   95421   95418      67   95430   95427      66   95433
   95427      66   95433   95430      67   95442   95439      66   95445   95439
      66   95445   95442      67   95454   95451      66   95457   95451      66
   95457   95454      67   95466   95463      66   95469   95463      66   95469
   95466      67   95478   95475      66   95481   95475      66   95481   95478
      67   95490   95487      66   95493   95487      66   95493   95490      67
   95502   95499      66   95505   95499      66   95505   95502      67   95514
   95511      66   95517   95511      66   95517   95514      67   95526   95523
      66   95529   95523      66   95529   95526      67   95538   95535      66
   95541   95535      66   95541   95538      67   95550   95547      66   95553
   95547      66   95553   95550      67   95562   95559      66   95565   95559
      66   95565   95562      67   95574   95571      66   95577   95571      66
   95577   95574      67   95586   95583      66   95589   95583      66   95589
   95586      67   95598   95595      66   95601   95595      66   95601   95598
      67   95610   95607      66   95613   95607      66   95613   95610      67
   95622   95619      66   95625   95619      66   95625   95622      67   95634
   95631      66   95637   95631      66   95637   95634      67   95646   95643
      66   95649   95643      66   95649   95646      67   95658   95655      66
   95661   95655      66   95661   95658      67   95670   95667      66   95673
   95667      66   95673   95670      67   95682   95679      66   95685   95679
      66   95685   95682      67   95694   95691      66   95697   95691      66
   95697   95694      67   95706   95703      66   95709   95703      66   95709
   95706      67   95718   95715      66   95721   95715      66   95721   95718
      67   95730   95727      66   95733   95727      66   95733   95730      67
   95742   95739      66   95745   95739      66   95745   95742      67   95754
   95751      66   95757   95751      66   95757   95754      67   95766   95763
      66   95769   95763      66   95769   95766      67   95778   95775      66
   95781   95775      66   95781   95778      67   95790   95787      66   95793
   95787      66   95793   95790      67   95802   95799      66   95805   95799
      66   95805   95802      67   95814   95811      66   95817   95811      66
   95817   95814      67   95826   95823      66   95829   95823      66   95829
   95826      67   95838   95835      66   95841   95835      66   95841   95838
      67   95850   95847      66   95853   95847      66   95853   95850      67
   95862   95859      66   95865   95859      66   95865   95862      67   95874
   95871      66   95877   95871      66   95877   95874      67   95886   95883
      66   95889   95883      66   95889   95886      67   95898   95895      66
   95901   95895      66   95901   95898      67   95910   95907      66   95913
   95907      66   95913   95910      67   95922   95919      66   95925   95919
      66   95925   95922      67   95934   95931      66   95937   95931      66
   95937   95934      67   95946   95943      66   95949   95943      66   95949
   95946      67   95958   95955      66   95961   95955      66   95961   95958
      67   95970   95967      66   95973   95967      66   95973   95970      67
   95982   95979      66   95985   95979      66   95985   95982      67   95994
   95991      66   95997   95991      66   95997   95994      67   96006   96003
      66   96009   96003      66   96009   96006      67   96018   96015      66
   96021   96015      66   96021   96018      67   96030   96027      66   96033
   96027      66   96033   96030      67   96042   96039      66   96045   96039
      66   96045   96042      67   96054   96051      66   96057   96051      66
   96057   96054      67   96066   96063      66   96069   96063      66   96069
   96066      67   96078   96075      66   96081   96075      66   96081   96078
      67   96090   96087      66   96093   96087      66   96093   96090      67
   96102   96099      66   96105   96099      66   96105   96102      67   96114
   96111      66   96117   96111      66   96117   96114      67   96126   96123
      66   96129   96123      66   96129   96126      67   96138   96135      66
   96141   96135      66   96141   96138      67   96150   96147      66   96153
   96147      66   96153   96150      67   96162   96159      66   96165   96159
      66   96165   96162      67   96174   96171      66   96177   96171      66
   96177   96174      67   96186   96183      66   96189   96183      66   96189
   96186      67   96198   96195      66   96201   96195      66   96201   96198
      67   96210   96207      66   96213   96207      66   96213   96210      67
   96222   96219      66   96225   96219      66   96225   96222      67   96234
   96231      66   96237   96231      66   96237   96234      67   96246   96243
      66   96249   96243      66   96249   96246      67   96258   96255      66
   96261   96255      66   96261   96258      67   96270   96267      66   96273
   96267      66   96273   96270      67   96282   96279      66   96285   96279
      66   96285   96282      67   96294   96291      66   96297   96291      66
   96297   96294      67   96306   96303      66   96309   96303      66   96309
   96306      67   96318   96315      66   96321   96315      66   96321   96318
      67   96330   96327      66   96333   96327      66   96333   96330      67
   96342   96339      66   96345   96339      66   96345   96342      67   96354
   96351      66   96357   96351      66   96357   96354      67   96366   96363
      66   96369   96363      66   96369   96366      67   96378   96375      66
   96381   96375      66   96381   96378      67   96390   96387      66   96393
   96387      66   96393   96390      67   96402   96399      66   96405   96399
      66   96405   96402      67   96414   96411      66   96417   96411      66
   96417   96414      67   96426   96423      66   96429   96423      66   96429
   96426      67   96438   96435      66   96441   96435      66   96441   96438
      67   96450   96447      66   96453   96447      66   96453   96450      67
   96462   96459      66   96465   96459      66   96465   96462      67   96474
   96471      66   96477   96471      66   96477   96474      67   96486   96483
      66   96489   96483      66   96489   96486      67   96498   96495      66
   96501   96495      66   96501   96498      67   96510   96507      66   96513
   96507      66   96513   96510      67   96522   96519      66   96525   96519
      66   96525   96522      67   96534   96531      66   96537   96531      66
   96537   96534      67   96546   96543      66   96549   96543      66   96549
   96546      67   96558   96555      66   96561   96555      66   96561   96558
      67   96570   96567      66   96573   96567      66   96573   96570      67
   96582   96579      66   96585   96579      66   96585   96582      67   96594
   96591      66   96597   96591      66   96597   96594      67   96606   96603
      66   96609   96603      66   96609   96606      67   96618   96615      66
   96621   96615      66   96621   96618      67   96630   96627      66   96633
   96627      66   96633   96630      67   96642   96639      66   96645   96639
      66   96645   96642      67   96654   96651      66   96657   96651      66
   96657   96654      67   96666   96663      66   96669   96663      66   96669
   96666      67   96678   96675      66   96681   96675      66   96681   96678
      67   96690   96687      66   96693   96687      66   96693   96690      67
   96702   96699      66   96705   96699      66   96705   96702      67   96714
   96711      66   96717   96711      66   96717   96714      67   96726   96723
      66   96729   96723      66   96729   96726      67   96738   96735      66
   96741   96735      66   96741   96738      67   96750   96747      66   96753
   96747      66   96753   96750      67   96762   96759      66   96765   96759
      66   96765   96762      67   96774   96771      66   96777   96771      66
   96777   96774      67   96786   96783      66   96789   96783      66   96789
   96786      67   96798   96795      66   96801   96795      66   96801   96798
      67   96810   96807      66   96813   96807      66   96813   96810      67
   96822   96819      66   96825   96819      66   96825   96822      67   96834
   96831      66   96837   96831      66   96837   96834      67   96846   96843
      66   96849   96843      66   96849   96846      67   96858   96855      66
   96861   96855      66   96861   96858      67   96870   96867      66   96873
   96867      66   96873   96870      67   96882   96879      66   96885   96879
      66   96885   96882      67   96894   96891      66   96897   96891      66
   96897   96894      67   96906   96903      66   96909   96903      66   96909
   96906      67   96918   96915      66   96921   96915      66   96921   96918
      67   96930   96927      66   96933   96927      66   96933   96930      67
   96942   96939      66   96945   96939      66   96945   96942      67   96954
   96951      66   96957   96951      66   96957   96954      67   96966   96963
      66   96969   96963      66   96969   96966      67   96978   96975      66
   96981   96975      66   96981   96978      67   96990   96987      66   96993
   96987      66   96993   96990      67   97002   96999      66   97005   96999
      66   97005   97002      67   97014   97011      66   97017   97011      66
   97017   97014      67   97026   97023      66   97029   97023      66   97029
   97026      67   97038   97035      66   97041   97035      66   97041   97038
      67   97050   97047      66   97053   97047      66   97053   97050      67
   97062   97059      66   97065   97059      66   97065   97062      67   97074
   97071      66   97077   97071      66   97077   97074      67   97086   97083
      66   97089   97083      66   97089   97086      67   97098   97095      66
   97101   97095      66   97101   97098      67   97110   97107      66   97113
   97107      66   97113   97110      67   97122   97119      66   97125   97119
      66   97125   97122      67   97134   97131      66   97137   97131      66
   97137   97134      67   97146   97143      66   97149   97143      66   97149
   97146      67   97158   97155      66   97161   97155      66   97161   97158
      67   97170   97167      66   97173   97167      66   97173   97170      67
   97182   97179      66   97185   97179      66   97185   97182      67   97194
   97191      66   97197   97191      66   97197   97194      67   97206   97203
      66   97209   97203      66   97209   97206      67   97218   97215      66
   97221   97215      66   97221   97218      67   97230   97227      66   97233
   97227      66   97233   97230      67   97242   97239      66   97245   97239
      66   97245   97242      67   97254   97251      66   97257   97251      66
   97257   97254      67   97266   97263      66   97269   97263      66   97269
   97266      67   97278   97275      66   97281   97275      66   97281   97278
      67   97290   97287      66   97293   97287      66   97293   97290      67
   97302   97299      66   97305   97299      66   97305   97302      67   97314
   97311      66   97317   97311      66   97317   97314      67   97326   97323
      66   97329   97323      66   97329   97326      67   97338   97335      66
   97341   97335      66   97341   97338      67   97350   97347      66   97353
   97347      66   97353   97350      67   97362   97359      66   97365   97359
      66   97365   97362      67   97374   97371      66   97377   97371      66
   97377   97374      67   97386   97383      66   97389   97383      66   97389
   97386      67   97398   97395      66   97401   97395      66   97401   97398
      67   97410   97407      66   97413   97407      66   97413   97410      67
   97422   97419      66   97425   97419      66   97425   97422      67   97434
   97431      66   97437   97431      66   97437   97434      67   97446   97443
      66   97449   97443      66   97449   97446      67   97458   97455      66
   97461   97455      66   97461   97458      67   97470   97467      66   97473
   97467      66   97473   97470      67   97482   97479      66   97485   97479
      66   97485   97482      67   97494   97491      66   97497   97491      66
   97497   97494      67   97506   97503      66   97509   97503      66   97509
   97506      67   97518   97515      66   97521   97515      66   97521   97518
      67   97530   97527      66   97533   97527      66   97533   97530      67
   97542   97539      66   97545   97539      66   97545   97542      67   97554
   97551      66   97557   97551      66   97557   97554      67   97566   97563
      66   97569   97563      66   97569   97566      67   97578   97575      66
   97581   97575      66   97581   97578      67   97590   97587      66   97593
   97587      66   97593   97590      67   97602   97599      66   97605   97599
      66   97605   97602      67   97614   97611      66   97617   97611      66
   97617   97614      67   97626   97623      66   97629   97623      66   97629
   97626      67   97638   97635      66   97641   97635      66   97641   97638
      67   97650   97647      66   97653   97647      66   97653   97650      67
   97662   97659      66   97665   97659      66   97665   97662      67   97674
   97671      66   97677   97671      66   97677   97674      67   97686   97683
      66   97689   97683      66   97689   97686      67   97698   97695      66
   97701   97695      66   97701   97698      67   97710   97707      66   97713
   97707      66   97713   97710      67   97722   97719      66   97725   97719
      66   97725   97722      67   97734   97731      66   97737   97731      66
   97737   97734      67   97746   97743      66   97749   97743      66   97749
   97746      67   97758   97755      66   97761   97755      66   97761   97758
      67   97770   97767      66   97773   97767      66   97773   97770      67
   97782   97779      66   97785   97779      66   97785   97782      67   97794
   97791      66   97797   97791      66   97797   97794      67   97806   97803
      66   97809   97803      66   97809   97806      67   97818   97815      66
   97821   97815      66   97821   97818      67   97830   97827      66   97833
   97827      66   97833   97830      67   97842   97839      66   97845   97839
      66   97845   97842      67   97854   97851      66   97857   97851      66
   97857   97854      67   97866   97863      66   97869   97863      66   97869
   97866      67   97878   97875      66   97881   97875      66   97881   97878
      67   97890   97887      66   97893   97887      66   97893   97890      67
   97902   97899      66   97905   97899      66   97905   97902      67   97914
   97911      66   97917   97911      66   97917   97914      67   97926   97923
      66   97929   97923      66   97929   97926      67   97938   97935      66
   97941   97935      66   97941   97938      67   97950   97947      66   97953
   97947      66   97953   97950      67   97962   97959      66   97965   97959
      66   97965   97962      67   97974   97971      66   97977   97971      66
   97977   97974      67   97986   97983      66   97989   97983      66   97989
   97986      67   97998   97995      66   98001   97995      66   98001   97998
      67   98010   98007      66   98013   98007      66   98013   98010      67
   98022   98019      66   98025   98019      66   98025   98022      67   98034
   98031      66   98037   98031      66   98037   98034      67   98046   98043
      66   98049   98043      66   98049   98046      67   98058   98055      66
   98061   98055      66   98061   98058      67   98070   98067      66   98073
   98067      66   98073   98070      67   98082   98079      66   98085   98079
      66   98085   98082      67   98094   98091      66   98097   98091      66
   98097   98094      67   98106   98103      66   98109   98103      66   98109
   98106      67   98118   98115      66   98121   98115      66   98121   98118
      67   98130   98127      66   98133   98127      66   98133   98130      67
   98142   98139      66   98145   98139      66   98145   98142      67   98154
   98151      66   98157   98151      66   98157   98154      67   98166   98163
      66   98169   98163      66   98169   98166      67   98178   98175      66
   98181   98175      66   98181   98178      67   98190   98187      66   98193
   98187      66   98193   98190      67   98202   98199      66   98205   98199
      66   98205   98202      67   98214   98211      66   98217   98211      66
   98217   98214      67   98226   98223      66   98229   98223      66   98229
   98226      67   98238   98235      66   98241   98235      66   98241   98238
      67   98250   98247      66   98253   98247      66   98253   98250      67
   98262   98259      66   98265   98259      66   98265   98262      67   98274
   98271      66   98277   98271      66   98277   98274      67   98286   98283
      66   98289   98283      66   98289   98286      67   98298   98295      66
   98301   98295      66   98301   98298      67   98310   98307      66   98313
   98307      66   98313   98310      67   98322   98319      66   98325   98319
      66   98325   98322      67   98334   98331      66   98337   98331      66
   98337   98334      67   98346   98343      66   98349   98343      66   98349
   98346      67   98358   98355      66   98361   98355      66   98361   98358
      67   98370   98367      66   98373   98367      66   98373   98370      67
   98382   98379      66   98385   98379      66   98385   98382      67   98394
   98391      66   98397   98391      66   98397   98394      67   98406   98403
      66   98409   98403      66   98409   98406      67   98418   98415      66
   98421   98415      66   98421   98418      67   98430   98427      66   98433
   98427      66   98433   98430      67   98442   98439      66   98445   98439
      66   98445   98442      67   98454   98451      66   98457   98451      66
   98457   98454      67   98466   98463      66   98469   98463      66   98469
   98466      67   98478   98475      66   98481   98475      66   98481   98478
      67   98490   98487      66   98493   98487      66   98493   98490      67
   98502   98499      66   98505   98499      66   98505   98502      67   98514
   98511      66   98517   98511      66   98517   98514      67   98526   98523
      66   98529   98523      66   98529   98526      67   98538   98535      66
   98541   98535      66   98541   98538      67   98550   98547      66   98553
   98547      66   98553   98550      67   98562   98559      66   98565   98559
      66   98565   98562      67   98574   98571      66   98577   98571      66
   98577   98574      67   98586   98583      66   98589   98583      66   98589
   98586      67   98598   98595      66   98601   98595      66   98601   98598
      67   98610   98607      66   98613   98607      66   98613   98610      67
   98622   98619      66   98625   98619      66   98625   98622      67   98634
   98631      66   98637   98631      66   98637   98634      67   98646   98643
      66   98649   98643      66   98649   98646      67   98658   98655      66
   98661   98655      66   98661   98658      67   98670   98667      66   98673
   98667      66   98673   98670      67   98682   98679      66   98685   98679
      66   98685   98682      67   98694   98691      66   98697   98691      66
   98697   98694      67   98706   98703      66   98709   98703      66   98709
   98706      67   98718   98715      66   98721   98715      66   98721   98718
      67   98730   98727      66   98733   98727      66   98733   98730      67
   98742   98739      66   98745   98739      66   98745   98742      67   98754
   98751      66   98757   98751      66   98757   98754      67   98766   98763
      66   98769   98763      66   98769   98766      67   98778   98775      66
   98781   98775      66   98781   98778      67   98790   98787      66   98793
   98787      66   98793   98790      67   98802   98799      66   98805   98799
      66   98805   98802      67   98814   98811      66   98817   98811      66
   98817   98814      67   98826   98823      66   98829   98823      66   98829
   98826      67   98838   98835      66   98841   98835      66   98841   98838
      67   98850   98847      66   98853   98847      66   98853   98850      67
   98862   98859      66   98865   98859      66   98865   98862      67   98874
   98871      66   98877   98871      66   98877   98874      67   98886   98883
      66   98889   98883      66   98889   98886      67   98898   98895      66
   98901   98895      66   98901   98898      67   98910   98907      66   98913
   98907      66   98913   98910      67   98922   98919      66   98925   98919
      66   98925   98922      67   98934   98931      66   98937   98931      66
   98937   98934      67   98946   98943      66   98949   98943      66   98949
   98946      67   98958   98955      66   98961   98955      66   98961   98958
      67   98970   98967      66   98973   98967      66   98973   98970      67
   98982   98979      66   98985   98979      66   98985   98982      67   98994
   98991      66   98997   98991      66   98997   98994      67   99006   99003
      66   99009   99003      66   99009   99006      67   99018   99015      66
   99021   99015      66   99021   99018      67   99030   99027      66   99033
   99027      66   99033   99030      67   99042   99039      66   99045   99039
      66   99045   99042      67   99054   99051      66   99057   99051      66
   99057   99054      67   99066   99063      66   99069   99063      66   99069
   99066      67   99078   99075      66   99081   99075      66   99081   99078
      67   99090   99087      66   99093   99087      66   99093   99090      67
   99102   99099      66   99105   99099      66   99105   99102      67   99114
   99111      66   99117   99111      66   99117   99114      67   99126   99123
      66   99129   99123      66   99129   99126      67   99138   99135      66
   99141   99135      66   99141   99138      67   99150   99147      66   99153
   99147      66   99153   99150      67   99162   99159      66   99165   99159
      66   99165   99162      67   99174   99171      66   99177   99171      66
   99177   99174      67   99186   99183      66   99189   99183      66   99189
   99186      67   99198   99195      66   99201   99195      66   99201   99198
      67   99210   99207      66   99213   99207      66   99213   99210      67
   99222   99219      66   99225   99219      66   99225   99222      67   99234
   99231      66   99237   99231      66   99237   99234      67   99246   99243
      66   99249   99243      66   99249   99246      67   99258   99255      66
   99261   99255      66   99261   99258      67   99270   99267      66   99273
   99267      66   99273   99270      67   99282   99279      66   99285   99279
      66   99285   99282      67   99294   99291      66   99297   99291      66
   99297   99294      67   99306   99303      66   99309   99303      66   99309
   99306      67   99318   99315      66   99321   99315      66   99321   99318
      67   99330   99327      66   99333   99327      66   99333   99330      67
   99342   99339      66   99345   99339      66   99345   99342      67   99354
   99351      66   99357   99351      66   99357   99354      67   99366   99363
      66   99369   99363      66   99369   99366      67   99378   99375      66
   99381   99375      66   99381   99378      67   99390   99387      66   99393
   99387      66   99393   99390      67   99402   99399      66   99405   99399
      66   99405   99402      67   99414   99411      66   99417   99411      66
   99417   99414      67   99426   99423      66   99429   99423      66   99429
   99426      67   99438   99435      66   99441   99435      66   99441   99438
      67   99450   99447      66   99453   99447      66   99453   99450      67
   99462   99459      66   99465   99459      66   99465   99462      67   99474
   99471      66   99477   99471      66   99477   99474      67   99486   99483
      66   99489   99483      66   99489   99486      67   99498   99495      66
   99501   99495      66   99501   99498      67   99510   99507      66   99513
   99507      66   99513   99510      67   99522   99519      66   99525   99519
      66   99525   99522      67   99534   99531      66   99537   99531      66
   99537   99534      67   99546   99543      66   99549   99543      66   99549
   99546      67   99558   99555      66   99561   99555      66   99561   99558
      67   99570   99567      66   99573   99567      66   99573   99570      67
   99582   99579      66   99585   99579      66   99585   99582      67   99594
   99591      66   99597   99591      66   99597   99594      67   99606   99603
      66   99609   99603      66   99609   99606      67   99618   99615      66
   99621   99615      66   99621   99618      67   99630   99627      66   99633
   99627      66   99633   99630      67   99642   99639      66   99645   99639
      66   99645   99642      67   99654   99651      66   99657   99651      66
   99657   99654      67   99666   99663      66   99669   99663      66   99669
   99666      67   99678   99675      66   99681   99675      66   99681   99678
      67   99690   99687      66   99693   99687      66   99693   99690      67
   99702   99699      66   99705   99699      66   99705   99702      67   99714
   99711      66   99717   99711      66   99717   99714      67   99726   99723
      66   99729   99723      66   99729   99726      67   99738   99735      66
   99741   99735      66   99741   99738      67   99750   99747      66   99753
   99747      66   99753   99750      67   99762   99759      66   99765   99759
      66   99765   99762      67   99774   99771      66   99777   99771      66
   99777   99774      67   99786   99783      66   99789   99783      66   99789
   99786      67   99798   99795      66   99801   99795      66   99801   99798
      67   99810   99807      66   99813   99807      66   99813   99810      67
   99822   99819      66   99825   99819      66   99825   99822      67   99834
   99831      66   99837   99831      66   99837   99834      67   99846   99843
      66   99849   99843      66   99849   99846      67   99858   99855      66
   99861   99855      66   99861   99858      67   99870   99867      66   99873
   99867      66   99873   99870      67   99882   99879      66   99885   99879
      66   99885   99882      67   99894   99891      66   99897   99891      66
   99897   99894      67   99906   99903      66   99909   99903      66   99909
   99906      67   99918   99915      66   99921   99915      66   99921   99918
      67   99930   99927      66   99933   99927      66   99933   99930      67
   99942   99939      66   99945   99939      66   99945   99942      67   99954
   99951      66   99957   99951      66   99957   99954      67   99966   99963
      66   99969   99963      66   99969   99966      67   99978   99975      66
   99981   99975      66   99981   99978      67   99990   99987      66   99993
   99987      66   99993   99990      67  100002   99999      66  100005   99999
      66  100005  100002      67  100014  100011      66  100017  100011      66
  100017  100014      67  100026  100023      66  100029  100023      66  100029
  100026      67  100038  100035      66  100041  100035      66  100041  100038
      67  100050  100047      66  100053  100047      66  100053  100050      67
  100062  100059      66  100065  100059      66  100065  100062      67  100074
  100071      66  100077  100071      66  100077  100074      67  100086  100083
      66  100089  100083      66  100089  100086      67  100098  100095      66
  100101  100095      66  100101  100098      67  100110  100107      66  100113
  100107      66  100113  100110      67  100122  100119      66  100125  100119
      66  100125  100122      67  100134  100131      66  100137  100131      66
  100137  100134      67  100146  100143      66  100149  100143      66  100149
  100146      67  100158  100155      66  100161  100155      66  100161  100158
      67  100170  100167      66  100173  100167      66  100173  100170      67
  100182  100179      66  100185  100179      66  100185  100182      67  100194
  100191      66  100197  100191      66  100197  100194      67  100206  100203
      66  100209  100203      66  100209  100206      67  100218  100215      66
  100221  100215      66  100221  100218      67  100230  100227      66  100233
  100227      66  100233  100230      67  100242  100239      66  100245  100239
      66  100245  100242      67  100254  100251      66  100257  100251      66
  100257  100254      67  100266  100263      66  100269  100263      66  100269
  100266      67  100278  100275      66  100281  100275      66  100281  100278
      67  100290  100287      66  100293  100287      66  100293  100290      67
  100302  100299      66  100305  100299      66  100305  100302      67  100314
  100311      66  100317  100311      66  100317  100314      67  100326  100323
      66  100329  100323      66  100329  100326      67  100338  100335      66
  100341  100335      66  100341  100338      67  100350  100347      66  100353
  100347      66  100353  100350      67  100362  100359      66  100365  100359
      66  100365  100362      67  100374  100371      66  100377  100371      66
  100377  100374      67  100386  100383      66  100389  100383      66  100389
  100386      67  100398  100395      66  100401  100395      66  100401  100398
      67  100410  100407      66  100413  100407      66  100413  100410      67
  100422  100419      66  100425  100419      66  100425  100422      67  100434
  100431      66  100437  100431      66  100437  100434      67  100446  100443
      66  100449  100443      66  100449  100446      67  100458  100455      66
  100461  100455      66  100461  100458      67  100470  100467      66  100473
  100467      66  100473  100470      67  100482  100479      66  100485  100479
      66  100485  100482      67  100494  100491      66  100497  100491      66
  100497  100494      67  100506  100503      66  100509  100503      66  100509
  100506      67  100518  100515      66  100521  100515      66  100521  100518
      67  100530  100527      66  100533  100527      66  100533  100530      67
  100542  100539      66  100545  100539      66  100545  100542      67  100554
  100551      66  100557  100551      66  100557  100554      67  100566  100563
      66  100569  100563      66  100569  100566      67  100578  100575      66
  100581  100575      66  100581  100578      67  100590  100587      66  100593
  100587      66  100593  100590      67  100602  100599      66  100605  100599
      66  100605  100602      67  100614  100611      66  100617  100611      66
  100617  100614      67  100626  100623      66  100629  100623      66  100629
  100626      67  100638  100635      66  100641  100635      66  100641  100638
      67  100650  100647      66  100653  100647      66  100653  100650      67
  100662  100659      66  100665  100659      66  100665  100662      67  100674
  100671      66  100677  100671      66  100677  100674      67  100686  100683
      66  100689  100683      66  100689  100686      67  100698  100695      66
  100701  100695      66  100701  100698      67  100710  100707      66  100713
  100707      66  100713  100710      67  100722  100719      66  100725  100719
      66  100725  100722      67  100734  100731      66  100737  100731      66
  100737  100734      67  100746  100743      66  100749  100743      66  100749
  100746      67  100758  100755      66  100761  100755      66  100761  100758
      67  100770  100767      66  100773  100767      66  100773  100770      67
  100782  100779      66  100785  100779      66  100785  100782      67  100794
  100791      66  100797  100791      66  100797  100794      67  100806  100803
      66  100809  100803      66  100809  100806      67  100818  100815      66
  100821  100815      66  100821  100818      67  100830  100827      66  100833
  100827      66  100833  100830      67  100842  100839      66  100845  100839
      66  100845  100842      67  100854  100851      66  100857  100851      66
  100857  100854      67  100866  100863      66  100869  100863      66  100869
  100866      67  100878  100875      66  100881  100875      66  100881  100878
      67  100890  100887      66  100893  100887      66  100893  100890      67
  100902  100899      66  100905  100899      66  100905  100902      67  100914
  100911      66  100917  100911      66  100917  100914      67  100926  100923
      66  100929  100923      66  100929  100926      67  100938  100935      66
  100941  100935      66  100941  100938      67  100950  100947      66  100953
  100947      66  100953  100950      67  100962  100959      66  100965  100959
      66  100965  100962      67  100974  100971      66  100977  100971      66
  100977  100974      67  100986  100983      66  100989  100983      66  100989
  100986      67  100998  100995      66  101001  100995      66  101001  100998
      67  101010  101007      66  101013  101007      66  101013  101010      67
  101022  101019      66  101025  101019      66  101025  101022      67  101034
  101031      66  101037  101031      66  101037  101034      67  101046  101043
      66  101049  101043      66  101049  101046      67  101058  101055      66
  101061  101055      66  101061  101058      67  101070  101067      66  101073
  101067      66  101073  101070      67  101082  101079      66  101085  101079
      66  101085  101082      67  101094  101091      66  101097  101091      66
  101097  101094      67  101106  101103      66  101109  101103      66  101109
  101106      67  101118  101115      66  101121  101115      66  101121  101118
      67  101130  101127      66  101133  101127      66  101133  101130      67
  101142  101139      66  101145  101139      66  101145  101142      67  101154
  101151      66  101157  101151      66  101157  101154      67  101166  101163
      66  101169  101163      66  101169  101166      67  101178  101175      66
  101181  101175      66  101181  101178      67  101190  101187      66  101193
  101187      66  101193  101190      67  101202  101199      66  101205  101199
      66  101205  101202      67  101214  101211      66  101217  101211      66
  101217  101214      67  101226  101223      66  101229  101223      66  101229
  101226      67  101238  101235      66  101241  101235      66  101241  101238
      67  101250  101247      66  101253  101247      66  101253  101250      67
  101262  101259      66  101265  101259      66  101265  101262      67  101274
  101271      66  101277  101271      66  101277  101274      67  101286  101283
      66  101289  101283      66  101289  101286      67  101298  101295      66
  101301  101295      66  101301  101298      67  101310  101307      66  101313
  101307      66  101313  101310      67  101322  101319      66  101325  101319
      66  101325  101322      67  101334  101331      66  101337  101331      66
  101337  101334      67  101346  101343      66  101349  101343      66  101349
  101346      67  101358  101355      66  101361  101355      66  101361  101358
      67  101370  101367      66  101373  101367      66  101373  101370      67
  101382  101379      66  101385  101379      66  101385  101382      67  101394
  101391      66  101397  101391      66  101397  101394      67  101406  101403
      66  101409  101403      66  101409  101406      67  101418  101415      66
  101421  101415      66  101421  101418      67  101430  101427      66  101433
  101427      66  101433  101430      67  101442  101439      66  101445  101439
      66  101445  101442      67  101454  101451      66  101457  101451      66
  101457  101454      67  101466  101463      66  101469  101463      66  101469
  101466      67  101478  101475      66  101481  101475      66  101481  101478
      67  101490  101487      66  101493  101487      66  101493  101490      67
  101502  101499      66  101505  101499      66  101505  101502      67  101514
  101511      66  101517  101511      66  101517  101514      67  101526  101523
      66  101529  101523      66  101529  101526      67  101538  101535      66
  101541  101535      66  101541  101538      67  101550  101547      66  101553
  101547      66  101553  101550      67  101562  101559      66  101565  101559
      66  101565  101562      67  101574  101571      66  101577  101571      66
  101577  101574      67  101586  101583      66  101589  101583      66  101589
  101586      67  101598  101595      66  101601  101595      66  101601  101598
      67  101610  101607      66  101613  101607      66  101613  101610      67
  101622  101619      66  101625  101619      66  101625  101622      67  101634
  101631      66  101637  101631      66  101637  101634      67  101646  101643
      66  101649  101643      66  101649  101646      67  101658  101655      66
  101661  101655      66  101661  101658      67  101670  101667      66  101673
  101667      66  101673  101670      67  101682  101679      66  101685  101679
      66  101685  101682      67  101694  101691      66  101697  101691      66
  101697  101694      67  101706  101703      66  101709  101703      66  101709
  101706      67  101718  101715      66  101721  101715      66  101721  101718
      67  101730  101727      66  101733  101727      66  101733  101730      67
  101742  101739      66  101745  101739      66  101745  101742      67  101754
  101751      66  101757  101751      66  101757  101754      67  101766  101763
      66  101769  101763      66  101769  101766      67  101778  101775      66
  101781  101775      66  101781  101778      67  101790  101787      66  101793
  101787      66  101793  101790      67  101802  101799      66  101805  101799
      66  101805  101802      67  101814  101811      66  101817  101811      66
  101817  101814      67  101826  101823      66  101829  101823      66  101829
  101826      67  101838  101835      66  101841  101835      66  101841  101838
      67  101850  101847      66  101853  101847      66  101853  101850      67
  101862  101859      66  101865  101859      66  101865  101862      67  101874
  101871      66  101877  101871      66  101877  101874      67  101886  101883
      66  101889  101883      66  101889  101886      67  101898  101895      66
  101901  101895      66  101901  101898      67  101910  101907      66  101913
  101907      66  101913  101910      67  101922  101919      66  101925  101919
      66  101925  101922      67  101934  101931      66  101937  101931      66
  101937  101934      67  101946  101943      66  101949  101943      66  101949
  101946      67  101958  101955      66  101961  101955      66  101961  101958
      67  101970  101967      66  101973  101967      66  101973  101970      67
  101982  101979      66  101985  101979      66  101985  101982      67  101994
  101991      66  101997  101991      66  101997  101994      67  102006  102003
      66  102009  102003      66  102009  102006      67  102018  102015      66
  102021  102015      66  102021  102018      67  102030  102027      66  102033
  102027      66  102033  102030      67  102042  102039      66  102045  102039
      66  102045  102042      67  102054  102051      66  102057  102051      66
  102057  102054      67  102066  102063      66  102069  102063      66  102069
  102066      67  102078  102075      66  102081  102075      66  102081  102078
      67  102090  102087      66  102093  102087      66  102093  102090      67
  102102  102099      66  102105  102099      66  102105  102102      67  102114
  102111      66  102117  102111      66  102117  102114      67  102126  102123
      66  102129  102123      66  102129  102126      67  102138  102135      66
  102141  102135      66  102141  102138      67  102150  102147      66  102153
  102147      66  102153  102150      67  102162  102159      66  102165  102159
      66  102165  102162      67  102174  102171      66  102177  102171      66
  102177  102174      67  102186  102183      66  102189  102183      66  102189
  102186      67  102198  102195      66  102201  102195      66  102201  102198
      67  102210  102207      66  102213  102207      66  102213  102210      67
  102222  102219      66  102225  102219      66  102225  102222      67  102234
  102231      66  102237  102231      66  102237  102234      67  102246  102243
      66  102249  102243      66  102249  102246      67  102258  102255      66
  102261  102255      66  102261  102258      67  102270  102267      66  102273
  102267      66  102273  102270      67  102282  102279      66  102285  102279
      66  102285  102282      67  102294  102291      66  102297  102291      66
  102297  102294      67  102306  102303      66  102309  102303      66  102309
  102306      67  102318  102315      66  102321  102315      66  102321  102318
      67  102330  102327      66  102333  102327      66  102333  102330      67
  102342  102339      66  102345  102339      66  102345  102342      67  102354
  102351      66  102357  102351      66  102357  102354      67  102366  102363
      66  102369  102363      66  102369  102366      67  102378  102375      66
  102381  102375      66  102381  102378      67  102390  102387      66  102393
  102387      66  102393  102390      67  102402  102399      66  102405  102399
      66  102405  102402      67  102414  102411      66  102417  102411      66
  102417  102414      67  102426  102423      66  102429  102423      66  102429
  102426      67  102438  102435      66  102441  102435      66  102441  102438
      67  102450  102447      66  102453  102447      66  102453  102450      67
  102462  102459      66  102465  102459      66  102465  102462      67  102474
  102471      66  102477  102471      66  102477  102474      67  102486  102483
      66  102489  102483      66  102489  102486      67  102498  102495      66
  102501  102495      66  102501  102498      67  102510  102507      66  102513
  102507      66  102513  102510      67  102522  102519      66  102525  102519
      66  102525  102522      67  102534  102531      66  102537  102531      66
  102537  102534      67  102546  102543      66  102549  102543      66  102549
  102546      67  102558  102555      66  102561  102555      66  102561  102558
      67  102570  102567      66  102573  102567      66  102573  102570      67
  102582  102579      66  102585  102579      66  102585  102582      67  102594
  102591      66  102597  102591      66  102597  102594      67  102606  102603
      66  102609  102603      66  102609  102606      67  102618  102615      66
  102621  102615      66  102621  102618      67  102630  102627      66  102633
  102627      66  102633  102630      67  102642  102639      66  102645  102639
      66  102645  102642      67  102654  102651      66  102657  102651      66
  102657  102654      67  102666  102663      66  102669  102663      66  102669
  102666      67  102678  102675      66  102681  102675      66  102681  102678
      67  102690  102687      66  102693  102687      66  102693  102690      67
  102702  102699      66  102705  102699      66  102705  102702      67  102714
  102711      66  102717  102711      66  102717  102714      67  102726  102723
      66  102729  102723      66  102729  102726      67  102738  102735      66
  102741  102735      66  102741  102738      67  102750  102747      66  102753
  102747      66  102753  102750      67  102762  102759      66  102765  102759
      66  102765  102762      67  102774  102771      66  102777  102771      66
  102777  102774      67  102786  102783      66  102789  102783      66  102789
  102786      67  102798  102795      66  102801  102795      66  102801  102798
      67  102810  102807      66  102813  102807      66  102813  102810      67
  102822  102819      66  102825  102819      66  102825  102822      67  102834
  102831      66  102837  102831      66  102837  102834      67  102846  102843
      66  102849  102843      66  102849  102846      67  102858  102855      66
  102861  102855      66  102861  102858      67  102870  102867      66  102873
  102867      66  102873  102870      67  102882  102879      66  102885  102879
      66  102885  102882      67  102894  102891      66  102897  102891      66
  102897  102894      67  102906  102903      66  102909  102903      66  102909
  102906      67  102918  102915      66  102921  102915      66  102921  102918
      67  102930  102927      66  102933  102927      66  102933  102930      67
  102942  102939      66  102945  102939      66  102945  102942      67  102954
  102951      66  102957  102951      66  102957  102954      67  102966  102963
      66  102969  102963      66  102969  102966      67  102978  102975      66
  102981  102975      66  102981  102978      67  102990  102987      66  102993
  102987      66  102993  102990      67  103002  102999      66  103005  102999
      66  103005  103002      67  103014  103011      66  103017  103011      66
  103017  103014      67  103026  103023      66  103029  103023      66  103029
  103026      67  103038  103035      66  103041  103035      66  103041  103038
      67  103050  103047      66  103053  103047      66  103053  103050      67
  103062  103059      66  103065  103059      66  103065  103062      67  103074
  103071      66  103077  103071      66  103077  103074      67  103086  103083
      66  103089  103083      66  103089  103086      67  103098  103095      66
  103101  103095      66  103101  103098      67  103110  103107      66  103113
  103107      66  103113  103110      67  103122  103119      66  103125  103119
      66  103125  103122      67  103134  103131      66  103137  103131      66
  103137  103134      67  103146  103143      66  103149  103143      66  103149
  103146      67  103158  103155      66  103161  103155      66  103161  103158
      67  103170  103167      66  103173  103167      66  103173  103170      67
  103182  103179      66  103185  103179      66  103185  103182      67  103194
  103191      66  103197  103191      66  103197  103194      67  103206  103203
      66  103209  103203      66  103209  103206      67  103218  103215      66
  103221  103215      66  103221  103218      67  103230  103227      66  103233
  103227      66  103233  103230      67  103242  103239      66  103245  103239
      66  103245  103242      67  103254  103251      66  103257  103251      66
  103257  103254      67  103266  103263      66  103269  103263      66  103269
  103266      67  103278  103275      66  103281  103275      66  103281  103278
      67  103290  103287      66  103293  103287      66  103293  103290      67
  103302  103299      66  103305  103299      66  103305  103302      67  103314
  103311      66  103317  103311      66  103317  103314      67  103326  103323
      66  103329  103323      66  103329  103326      67  103338  103335      66
  103341  103335      66  103341  103338      67  103350  103347      66  103353
  103347      66  103353  103350      67  103362  103359      66  103365  103359
      66  103365  103362      67  103374  103371      66  103377  103371      66
  103377  103374      67  103386  103383      66  103389  103383      66  103389
  103386      67  103398  103395      66  103401  103395      66  103401  103398
      67  103410  103407      66  103413  103407      66  103413  103410      67
  103422  103419      66  103425  103419      66  103425  103422      67  103434
  103431      66  103437  103431      66  103437  103434      67  103446  103443
      66  103449  103443      66  103449  103446      67  103458  103455      66
  103461  103455      66  103461  103458      67  103470  103467      66  103473
  103467      66  103473  103470      67  103482  103479      66  103485  103479
      66  103485  103482      67  103494  103491      66  103497  103491      66
  103497  103494      67  103506  103503      66  103509  103503      66  103509
  103506      67  103518  103515      66  103521  103515      66  103521  103518
      67  103530  103527      66  103533  103527      66  103533  103530      67
  103542  103539      66  103545  103539      66  103545  103542      67  103554
  103551      66  103557  103551      66  103557  103554      67  103566  103563
      66  103569  103563      66  103569  103566      67  103578  103575      66
  103581  103575      66  103581  103578      67  103590  103587      66  103593
  103587      66  103593  103590      67  103602  103599      66  103605  103599
      66  103605  103602      67  103614  103611      66  103617  103611      66
  103617  103614      67  103626  103623      66  103629  103623      66  103629
  103626      67  103638  103635      66  103641  103635      66  103641  103638
      67  103650  103647      66  103653  103647      66  103653  103650      67
  103662  103659      66  103665  103659      66  103665  103662      67  103674
  103671      66  103677  103671      66  103677  103674      67  103686  103683
      66  103689  103683      66  103689  103686      67  103698  103695      66
  103701  103695      66  103701  103698      67  103710  103707      66  103713
  103707      66  103713  103710      67  103722  103719      66  103725  103719
      66  103725  103722      67  103734  103731      66  103737  103731      66
  103737  103734      67  103746  103743      66  103749  103743      66  103749
  103746      67  103758  103755      66  103761  103755      66  103761  103758
      67  103770  103767      66  103773  103767      66  103773  103770      67
  103782  103779      66  103785  103779      66  103785  103782      67  103794
  103791      66  103797  103791      66  103797  103794      67  103806  103803
      66  103809  103803      66  103809  103806      67  103818  103815      66
  103821  103815      66  103821  103818      67  103830  103827      66  103833
  103827      66  103833  103830      67  103842  103839      66  103845  103839
      66  103845  103842      67  103854  103851      66  103857  103851      66
  103857  103854      67  103866  103863      66  103869  103863      66  103869
  103866      67  103878  103875      66  103881  103875      66  103881  103878
      67  103890  103887      66  103893  103887      66  103893  103890      67
  103902  103899      66  103905  103899      66  103905  103902      67  103914
  103911      66  103917  103911      66  103917  103914      67  103926  103923
      66  103929  103923      66  103929  103926      67  103938  103935      66
  103941  103935      66  103941  103938      67  103950  103947      66  103953
  103947      66  103953  103950      67  103962  103959      66  103965  103959
      66  103965  103962      67  103974  103971      66  103977  103971      66
  103977  103974      67  103986  103983      66  103989  103983      66  103989
  103986      67  103998  103995      66  104001  103995      66  104001  103998
      67  104010  104007      66  104013  104007      66  104013  104010      67
  104022  104019      66  104025  104019      66  104025  104022      67  104034
  104031      66  104037  104031      66  104037  104034      67  104046  104043
      66  104049  104043      66  104049  104046      67  104058  104055      66
  104061  104055      66  104061  104058      67  104070  104067      66  104073
  104067      66  104073  104070      67  104082  104079      66  104085  104079
      66  104085  104082      67  104094  104091      66  104097  104091      66
  104097  104094      67  104106  104103      66  104109  104103      66  104109
  104106      67  104118  104115      66  104121  104115      66  104121  104118
      67  104130  104127      66  104133  104127      66  104133  104130      67
  104142  104139      66  104145  104139      66  104145  104142      67  104154
  104151      66  104157  104151      66  104157  104154      67  104166  104163
      66  104169  104163      66  104169  104166      67  104178  104175      66
  104181  104175      66  104181  104178      67  104190  104187      66  104193
  104187      66  104193  104190      67  104202  104199      66  104205  104199
      66  104205  104202      67  104214  104211      66  104217  104211      66
  104217  104214      67  104226  104223      66  104229  104223      66  104229
  104226      67  104238  104235      66  104241  104235      66  104241  104238
      67  104250  104247      66  104253  104247      66  104253  104250      67
  104262  104259      66  104265  104259      66  104265  104262      67  104274
  104271      66  104277  104271      66  104277  104274      67  104286  104283
      66  104289  104283      66  104289  104286      67  104298  104295      66
  104301  104295      66  104301  104298      67  104310  104307      66  104313
  104307      66  104313  104310      67  104322  104319      66  104325  104319
      66  104325  104322      67  104334  104331      66  104337  104331      66
  104337  104334      67  104346  104343      66  104349  104343      66  104349
  104346      67  104358  104355      66  104361  104355      66  104361  104358
      67  104370  104367      66  104373  104367      66  104373  104370      67
  104382  104379      66  104385  104379      66  104385  104382      67  104394
  104391      66  104397  104391      66  104397  104394      67  104406  104403
      66  104409  104403      66  104409  104406      67  104418  104415      66
  104421  104415      66  104421  104418      67  104430  104427      66  104433
  104427      66  104433  104430      67  104442  104439      66  104445  104439
      66  104445  104442      67  104454  104451      66  104457  104451      66
  104457  104454      67  104466  104463      66  104469  104463      66  104469
  104466      67  104478  104475      66  104481  104475      66  104481  104478
      67  104490  104487      66  104493  104487      66  104493  104490      67
  104502  104499      66  104505  104499      66  104505  104502      67  104514
  104511      66  104517  104511      66  104517  104514      67  104526  104523
      66  104529  104523      66  104529  104526      67  104538  104535      66
  104541  104535      66  104541  104538      67  104550  104547      66  104553
  104547      66  104553  104550      67  104562  104559      66  104565  104559
      66  104565  104562      67  104574  104571      66  104577  104571      66
  104577  104574      67  104586  104583      66  104589  104583      66  104589
  104586      67  104598  104595      66  104601  104595      66  104601  104598
      67  104610  104607      66  104613  104607      66  104613  104610      67
  104622  104619      66  104625  104619      66  104625  104622      67  104634
  104631      66  104637  104631      66  104637  104634      67  104646  104643
      66  104649  104643      66  104649  104646      67  104658  104655      66
  104661  104655      66  104661  104658      67  104670  104667      66  104673
  104667      66  104673  104670      67  104682  104679      66  104685  104679
      66  104685  104682      67  104694  104691      66  104697  104691      66
  104697  104694      67  104706  104703      66  104709  104703      66  104709
  104706      67  104718  104715      66  104721  104715      66  104721  104718
      67  104730  104727      66  104733  104727      66  104733  104730      67
  104742  104739      66  104745  104739      66  104745  104742      67  104754
  104751      66  104757  104751      66  104757  104754      67  104766  104763
      66  104769  104763      66  104769  104766      67  104778  104775      66
  104781  104775      66  104781  104778      67  104790  104787      66  104793
  104787      66  104793  104790      67  104802  104799      66  104805  104799
      66  104805  104802      67  104814  104811      66  104817  104811      66
  104817  104814      67  104826  104823      66  104829  104823      66  104829
  104826      67  104838  104835      66  104841  104835      66  104841  104838
      67  104850  104847      66  104853  104847      66  104853  104850      67
  104862  104859      66  104865  104859      66  104865  104862      67  104874
  104871      66  104877  104871      66  104877  104874      67  104886  104883
      66  104889  104883      66  104889  104886      67  104898  104895      66
  104901  104895      66  104901  104898      67  104910  104907      66  104913
  104907      66  104913  104910      67  104922  104919      66  104925  104919
      66  104925  104922      67  104934  104931      66  104937  104931      66
  104937  104934      67  104946  104943      66  104949  104943      66  104949
  104946      67  104958  104955      66  104961  104955      66  104961  104958
      67  104970  104967      66  104973  104967      66  104973  104970      67
  104982  104979      66  104985  104979      66  104985  104982      67  104994
  104991      66  104997  104991      66  104997  104994      67  105006  105003
      66  105009  105003      66  105009  105006      67  105018  105015      66
  105021  105015      66  105021  105018      67  105030  105027      66  105033
  105027      66  105033  105030      67  105042  105039      66  105045  105039
      66  105045  105042      67  105054  105051      66  105057  105051      66
  105057  105054      67  105066  105063      66  105069  105063      66  105069
  105066      67  105078  105075      66  105081  105075      66  105081  105078
      67  105090  105087      66  105093  105087      66  105093  105090      67
  105102  105099      66  105105  105099      66  105105  105102      67  105114
  105111      66  105117  105111      66  105117  105114      67  105126  105123
      66  105129  105123      66  105129  105126      67  105138  105135      66
  105141  105135      66  105141  105138      67  105150  105147      66  105153
  105147      66  105153  105150      67  105162  105159      66  105165  105159
      66  105165  105162      67  105174  105171      66  105177  105171      66
  105177  105174      67  105186  105183      66  105189  105183      66  105189
  105186      67  105198  105195      66  105201  105195      66  105201  105198
      67  105210  105207      66  105213  105207      66  105213  105210      67
  105222  105219      66  105225  105219      66  105225  105222      67  105234
  105231      66  105237  105231      66  105237  105234      67  105246  105243
      66  105249  105243      66  105249  105246      67  105258  105255      66
  105261  105255      66  105261  105258      67  105270  105267      66  105273
  105267      66  105273  105270      67  105282  105279      66  105285  105279
      66  105285  105282      67  105294  105291      66  105297  105291      66
  105297  105294      67  105306  105303      66  105309  105303      66  105309
  105306      67  105318  105315      66  105321  105315      66  105321  105318
      67  105330  105327      66  105333  105327      66  105333  105330      67
  105342  105339      66  105345  105339      66  105345  105342      67  105354
  105351      66  105357  105351      66  105357  105354      67  105366  105363
      66  105369  105363      66  105369  105366      67  105378  105375      66
  105381  105375      66  105381  105378      67  105390  105387      66  105393
  105387      66  105393  105390      67  105402  105399      66  105405  105399
      66  105405  105402      67  105414  105411      66  105417  105411      66
  105417  105414      67  105426  105423      66  105429  105423      66  105429
  105426      67  105438  105435      66  105441  105435      66  105441  105438
      67  105450  105447      66  105453  105447      66  105453  105450      67
  105462  105459      66  105465  105459      66  105465  105462      67  105474
  105471      66  105477  105471      66  105477  105474      67  105486  105483
      66  105489  105483      66  105489  105486      67  105498  105495      66
  105501  105495      66  105501  105498      67  105510  105507      66  105513
  105507      66  105513  105510      67  105522  105519      66  105525  105519
      66  105525  105522      67  105534  105531      66  105537  105531      66
  105537  105534      67  105546  105543      66  105549  105543      66  105549
  105546      67  105558  105555      66  105561  105555      66  105561  105558
      67  105570  105567      66  105573  105567      66  105573  105570      67
  105582  105579      66  105585  105579      66  105585  105582      67  105594
  105591      66  105597  105591      66  105597  105594      67  105606  105603
      66  105609  105603      66  105609  105606      67  105618  105615      66
  105621  105615      66  105621  105618      67  105630  105627      66  105633
  105627      66  105633  105630      67  105642  105639      66  105645  105639
      66  105645  105642      67  105654  105651      66  105657  105651      66
  105657  105654      67  105666  105663      66  105669  105663      66  105669
  105666      67  105678  105675      66  105681  105675      66  105681  105678
      67  105690  105687      66  105693  105687      66  105693  105690      67
  105702  105699      66  105705  105699      66  105705  105702      67  105714
  105711      66  105717  105711      66  105717  105714      67  105726  105723
      66  105729  105723      66  105729  105726      67  105738  105735      66
  105741  105735      66  105741  105738      67  105750  105747      66  105753
  105747      66  105753  105750      67  105762  105759      66  105765  105759
      66  105765  105762      67  105774  105771      66  105777  105771      66
  105777  105774      67  105786  105783      66  105789  105783      66  105789
  105786      67  105798  105795      66  105801  105795      66  105801  105798
      67  105810  105807      66  105813  105807      66  105813  105810      67
  105822  105819      66  105825  105819      66  105825  105822      67  105834
  105831      66  105837  105831      66  105837  105834      67  105846  105843
      66  105849  105843      66  105849  105846      67  105858  105855      66
  105861  105855      66  105861  105858      67  105870  105867      66  105873
  105867      66  105873  105870      67  105882  105879      66  105885  105879
      66  105885  105882      67  105894  105891      66  105897  105891      66
  105897  105894      67  105906  105903      66  105909  105903      66  105909
  105906      67  105918  105915      66  105921  105915      66  105921  105918
      67  105930  105927      66  105933  105927      66  105933  105930      67
  105942  105939      66  105945  105939      66  105945  105942      67  105954
  105951      66  105957  105951      66  105957  105954      67  105966  105963
      66  105969  105963      66  105969  105966      67  105978  105975      66
  105981  105975      66  105981  105978      67  105990  105987      66  105993
  105987      66  105993  105990      67  106002  105999      66  106005  105999
      66  106005  106002      67  106014  106011      66  106017  106011      66
  106017  106014      67  106026  106023      66  106029  106023      66  106029
  106026      67  106038  106035      66  106041  106035      66  106041  106038
      67  106050  106047      66  106053  106047      66  106053  106050      67
  106062  106059      66  106065  106059      66  106065  106062      67  106074
  106071      66  106077  106071      66  106077  106074      67  106086  106083
      66  106089  106083      66  106089  106086      67  106098  106095      66
  106101  106095      66  106101  106098      67  106110  106107      66  106113
  106107      66  106113  106110      67  106122  106119      66  106125  106119
      66  106125  106122      67  106134  106131      66  106137  106131      66
  106137  106134      67  106146  106143      66  106149  106143      66  106149
  106146      67  106158  106155      66  106161  106155      66  106161  106158
      67  106170  106167      66  106173  106167      66  106173  106170      67
  106182  106179      66  106185  106179      66  106185  106182      67  106194
  106191      66  106197  106191      66  106197  106194      67  106206  106203
      66  106209  106203      66  106209  106206      67  106218  106215      66
  106221  106215      66  106221  106218      67  106230  106227      66  106233
  106227      66  106233  106230      67  106242  106239      66  106245  106239
      66  106245  106242      67  106254  106251      66  106257  106251      66
  106257  106254      67  106266  106263      66  106269  106263      66  106269
  106266      67  106278  106275      66  106281  106275      66  106281  106278
      67  106290  106287      66  106293  106287      66  106293  106290      67
  106302  106299      66  106305  106299      66  106305  106302      67  106314
  106311      66  106317  106311      66  106317  106314      67  106326  106323
      66  106329  106323      66  106329  106326      67  106338  106335      66
  106341  106335      66  106341  106338      67  106350  106347      66  106353
  106347      66  106353  106350      67  106362  106359      66  106365  106359
      66  106365  106362      67  106374  106371      66  106377  106371      66
  106377  106374      67  106386  106383      66  106389  106383      66  106389
  106386      67  106398  106395      66  106401  106395      66  106401  106398
      67  106410  106407      66  106413  106407      66  106413  106410      67
  106422  106419      66  106425  106419      66  106425  106422      67  106434
  106431      66  106437  106431      66  106437  106434      67  106446  106443
      66  106449  106443      66  106449  106446      67  106458  106455      66
  106461  106455      66  106461  106458      67  106470  106467      66  106473
  106467      66  106473  106470      67  106482  106479      66  106485  106479
      66  106485  106482      67  106494  106491      66  106497  106491      66
  106497  106494      67  106506  106503      66  106509  106503      66  106509
  106506      67  106518  106515      66  106521  106515      66  106521  106518
      67  106530  106527      66  106533  106527      66  106533  106530      67
  106542  106539      66  106545  106539      66  106545  106542      67  106554
  106551      66  106557  106551      66  106557  106554      67  106566  106563
      66  106569  106563      66  106569  106566      67  106578  106575      66
  106581  106575      66  106581  106578      67  106590  106587      66  106593
  106587      66  106593  106590      67  106602  106599      66  106605  106599
      66  106605  106602      67  106614  106611      66  106617  106611      66
  106617  106614      67  106626  106623      66  106629  106623      66  106629
  106626      67  106638  106635      66  106641  106635      66  106641  106638
      67  106650  106647      66  106653  106647      66  106653  106650      67
  106662  106659      66  106665  106659      66  106665  106662      67  106674
  106671      66  106677  106671      66  106677  106674      67  106686  106683
      66  106689  106683      66  106689  106686      67  106698  106695      66
  106701  106695      66  106701  106698      67  106710  106707      66  106713
  106707      66  106713  106710      67  106722  106719      66  106725  106719
      66  106725  106722      67  106734  106731      66  106737  106731      66
  106737  106734      67  106746  106743      66  106749  106743      66  106749
  106746      67  106758  106755      66  106761  106755      66  106761  106758
      67  106770  106767      66  106773  106767      66  106773  106770      67
  106782  106779      66  106785  106779      66  106785  106782      67  106794
  106791      66  106797  106791      66  106797  106794      67  106806  106803
      66  106809  106803      66  106809  106806      67  106818  106815      66
  106821  106815      66  106821  106818      67  106830  106827      66  106833
  106827      66  106833  106830      67  106842  106839      66  106845  106839
      66  106845  106842      67  106854  106851      66  106857  106851      66
  106857  106854      67  106866  106863      66  106869  106863      66  106869
  106866      67  106878  106875      66  106881  106875      66  106881  106878
      67  106890  106887      66  106893  106887      66  106893  106890      67
  106902  106899      66  106905  106899      66  106905  106902      67  106914
  106911      66  106917  106911      66  106917  106914      67  106926  106923
      66  106929  106923      66  106929  106926      67  106938  106935      66
  106941  106935      66  106941  106938      67  106950  106947      66  106953
  106947      66  106953  106950      67  106962  106959      66  106965  106959
      66  106965  106962      67  106974  106971      66  106977  106971      66
  106977  106974      67  106986  106983      66  106989  106983      66  106989
  106986      67  106998  106995      66  107001  106995      66  107001  106998
      67  107010  107007      66  107013  107007      66  107013  107010      67
  107022  107019      66  107025  107019      66  107025  107022      67  107034
  107031      66  107037  107031      66  107037  107034      67  107046  107043
      66  107049  107043      66  107049  107046      67  107058  107055      66
  107061  107055      66  107061  107058      67  107070  107067      66  107073
  107067      66  107073  107070      67  107082  107079      66  107085  107079
      66  107085  107082      67  107094  107091      66  107097  107091      66
  107097  107094      67  107106  107103      66  107109  107103      66  107109
  107106      67  107118  107115      66  107121  107115      66  107121  107118
      67  107130  107127      66  107133  107127      66  107133  107130      67
  107142  107139      66  107145  107139      66  107145  107142      67  107154
  107151      66  107157  107151      66  107157  107154      67  107166  107163
      66  107169  107163      66  107169  107166      67  107178  107175      66
  107181  107175      66  107181  107178      67  107190  107187      66  107193
  107187      66  107193  107190      67  107202  107199      66  107205  107199
      66  107205  107202      67  107214  107211      66  107217  107211      66
  107217  107214      67  107226  107223      66  107229  107223      66  107229
  107226      67  107238  107235      66  107241  107235      66  107241  107238
      67  107250  107247      66  107253  107247      66  107253  107250      67
  107262  107259      66  107265  107259      66  107265  107262      67  107274
  107271      66  107277  107271      66  107277  107274      67  107286  107283
      66  107289  107283      66  107289  107286      67  107298  107295      66
  107301  107295      66  107301  107298      67  107310  107307      66  107313
  107307      66  107313  107310      67  107322  107319      66  107325  107319
      66  107325  107322      67  107334  107331      66  107337  107331      66
  107337  107334      67  107346  107343      66  107349  107343      66  107349
  107346      67  107358  107355      66  107361  107355      66  107361  107358
      67  107370  107367      66  107373  107367      66  107373  107370      67
  107382  107379      66  107385  107379      66  107385  107382      67  107394
  107391      66  107397  107391      66  107397  107394      67  107406  107403
      66  107409  107403      66  107409  107406      67  107418  107415      66
  107421  107415      66  107421  107418      67  107430  107427      66  107433
  107427      66  107433  107430      67  107442  107439      66  107445  107439
      66  107445  107442      67  107454  107451      66  107457  107451      66
  107457  107454      67  107466  107463      66  107469  107463      66  107469
  107466      67  107478  107475      66  107481  107475      66  107481  107478
      67  107490  107487      66  107493  107487      66  107493  107490      67
  107502  107499      66  107505  107499      66  107505  107502      67  107514
  107511      66  107517  107511      66  107517  107514      67  107526  107523
      66  107529  107523      66  107529  107526      67  107538  107535      66
  107541  107535      66  107541  107538      67  107550  107547      66  107553
  107547      66  107553  107550      67  107562  107559      66  107565  107559
      66  107565  107562      67  107574  107571      66  107577  107571      66
  107577  107574      67  107586  107583      66  107589  107583      66  107589
  107586      67  107598  107595      66  107601  107595      66  107601  107598
      67  107610  107607      66  107613  107607      66  107613  107610      67
  107622  107619      66  107625  107619      66  107625  107622      67  107634
  107631      66  107637  107631      66  107637  107634      67  107646  107643
      66  107649  107643      66  107649  107646      67  107658  107655      66
  107661  107655      66  107661  107658      67  107670  107667      66  107673
  107667      66  107673  107670      67  107682  107679      66  107685  107679
      66  107685  107682      67  107694  107691      66  107697  107691      66
  107697  107694      67  107706  107703      66  107709  107703      66  107709
  107706      67  107718  107715      66  107721  107715      66  107721  107718
      67  107730  107727      66  107733  107727      66  107733  107730      67
  107742  107739      66  107745  107739      66  107745  107742      67  107754
  107751      66  107757  107751      66  107757  107754      67  107766  107763
      66  107769  107763      66  107769  107766      67  107778  107775      66
  107781  107775      66  107781  107778      67  107790  107787      66  107793
  107787      66  107793  107790      67  107802  107799      66  107805  107799
      66  107805  107802      67  107814  107811      66  107817  107811      66
  107817  107814      67  107826  107823      66  107829  107823      66  107829
  107826      67  107838  107835      66  107841  107835      66  107841  107838
      67  107850  107847      66  107853  107847      66  107853  107850      67
  107862  107859      66  107865  107859      66  107865  107862      67  107874
  107871      66  107877  107871      66  107877  107874      67  107886  107883
      66  107889  107883      66  107889  107886      67  107898  107895      66
  107901  107895      66  107901  107898      67  107910  107907      66  107913
  107907      66  107913  107910      67  107922  107919      66  107925  107919
      66  107925  107922      67  107934  107931      66  107937  107931      66
  107937  107934      67  107946  107943      66  107949  107943      66  107949
  107946      67  107958  107955      66  107961  107955      66  107961  107958
      67  107970  107967      66  107973  107967      66  107973  107970      67
  107982  107979      66  107985  107979      66  107985  107982      67  107994
  107991      66  107997  107991      66  107997  107994      67  108006  108003
      66  108009  108003      66  108009  108006      67  108018  108015      66
  108021  108015      66  108021  108018      67  108030  108027      66  108033
  108027      66  108033  108030      67  108042  108039      66  108045  108039
      66  108045  108042      67  108054  108051      66  108057  108051      66
  108057  108054      67  108066  108063      66  108069  108063      66  108069
  108066      67  108078  108075      66  108081  108075      66  108081  108078
      67  108090  108087      66  108093  108087      66  108093  108090      67
  108102  108099      66  108105  108099      66  108105  108102      67  108114
  108111      66  108117  108111      66  108117  108114      67  108126  108123
      66  108129  108123      66  108129  108126      67  108138  108135      66
  108141  108135      66  108141  108138      67  108150  108147      66  108153
  108147      66  108153  108150      67  108162  108159      66  108165  108159
      66  108165  108162      67  108174  108171      66  108177  108171      66
  108177  108174      67  108186  108183      66  108189  108183      66  108189
  108186      67  108198  108195      66  108201  108195      66  108201  108198
      67  108210  108207      66  108213  108207      66  108213  108210      67
  108222  108219      66  108225  108219      66  108225  108222      67  108234
  108231      66  108237  108231      66  108237  108234      67  108246  108243
      66  108249  108243      66  108249  108246      67  108258  108255      66
  108261  108255      66  108261  108258      67  108270  108267      66  108273
  108267      66  108273  108270      67  108282  108279      66  108285  108279
      66  108285  108282      67  108294  108291      66  108297  108291      66
  108297  108294      67  108306  108303      66  108309  108303      66  108309
  108306      67  108318  108315      66  108321  108315      66  108321  108318
      67  108330  108327      66  108333  108327      66  108333  108330      67
  108342  108339      66  108345  108339      66  108345  108342      67  108354
  108351      66  108357  108351      66  108357  108354      67  108366  108363
      66  108369  108363      66  108369  108366      67  108378  108375      66
  108381  108375      66  108381  108378      67  108390  108387      66  108393
  108387      66  108393  108390      67  108402  108399      66  108405  108399
      66  108405  108402      67  108414  108411      66  108417  108411      66
  108417  108414      67  108426  108423      66  108429  108423      66  108429
  108426      67  108438  108435      66  108441  108435      66  108441  108438
      67  108450  108447      66  108453  108447      66  108453  108450      67
  108462  108459      66  108465  108459      66  108465  108462      67  108474
  108471      66  108477  108471      66  108477  108474      67  108486  108483
      66  108489  108483      66  108489  108486      67  108498  108495      66
  108501  108495      66  108501  108498      67  108510  108507      66  108513
  108507      66  108513  108510      67  108522  108519      66  108525  108519
      66  108525  108522      67  108534  108531      66  108537  108531      66
  108537  108534      67  108546  108543      66  108549  108543      66  108549
  108546      67  108558  108555      66  108561  108555      66  108561  108558
      67  108570  108567      66  108573  108567      66  108573  108570      67
  108582  108579      66  108585  108579      66  108585  108582      67  108594
  108591      66  108597  108591      66  108597  108594      67  108606  108603
      66  108609  108603      66  108609  108606      67  108618  108615      66
  108621  108615      66  108621  108618      67  108630  108627      66  108633
  108627      66  108633  108630      67  108642  108639      66  108645  108639
      66  108645  108642      67  108654  108651      66  108657  108651      66
  108657  108654      67  108666  108663      66  108669  108663      66  108669
  108666      67  108678  108675      66  108681  108675      66  108681  108678
      67  108690  108687      66  108693  108687      66  108693  108690      67
  108702  108699      66  108705  108699      66  108705  108702      67  108714
  108711      66  108717  108711      66  108717  108714      67  108726  108723
      66  108729  108723      66  108729  108726      67  108738  108735      66
  108741  108735      66  108741  108738      67  108750  108747      66  108753
  108747      66  108753  108750      67  108762  108759      66  108765  108759
      66  108765  108762      67  108774  108771      66  108777  108771      66
  108777  108774      67  108786  108783      66  108789  108783      66  108789
  108786      67  108798  108795      66  108801  108795      66  108801  108798
      67  108810  108807      66  108813  108807      66  108813  108810      67
  108822  108819      66  108825  108819      66  108825  108822      67  108834
  108831      66  108837  108831      66  108837  108834      67  108846  108843
      66  108849  108843      66  108849  108846      67  108858  108855      66
  108861  108855      66  108861  108858      67  108870  108867      66  108873
  108867      66  108873  108870      67  108882  108879      66  108885  108879
      66  108885  108882      67  108894  108891      66  108897  108891      66
  108897  108894      67  108906  108903      66  108909  108903      66  108909
  108906      67  108918  108915      66  108921  108915      66  108921  108918
      67  108930  108927      66  108933  108927      66  108933  108930      67
  108942  108939      66  108945  108939      66  108945  108942      67  108954
  108951      66  108957  108951      66  108957  108954      67  108966  108963
      66  108969  108963      66  108969  108966      67  108978  108975      66
  108981  108975      66  108981  108978      67  108990  108987      66  108993
  108987      66  108993  108990      67  109002  108999      66  109005  108999
      66  109005  109002      67  109014  109011      66  109017  109011      66
  109017  109014      67  109026  109023      66  109029  109023      66  109029
  109026      67  109038  109035      66  109041  109035      66  109041  109038
      67  109050  109047      66  109053  109047      66  109053  109050      67
  109062  109059      66  109065  109059      66  109065  109062      67  109074
  109071      66  109077  109071      66  109077  109074      67  109086  109083
      66  109089  109083      66  109089  109086      67  109098  109095      66
  109101  109095      66  109101  109098      67  109110  109107      66  109113
  109107      66  109113  109110      67  109122  109119      66  109125  109119
      66  109125  109122      67  109134  109131      66  109137  109131      66
  109137  109134      67  109146  109143      66  109149  109143      66  109149
  109146      67  109158  109155      66  109161  109155      66  109161  109158
      67  109170  109167      66  109173  109167      66  109173  109170      67
  109182  109179      66  109185  109179      66  109185  109182      67  109194
  109191      66  109197  109191      66  109197  109194      67  109206  109203
      66  109209  109203      66  109209  109206      67  109218  109215      66
  109221  109215      66  109221  109218      67  109230  109227      66  109233
  109227      66  109233  109230      67  109242  109239      66  109245  109239
      66  109245  109242      67  109254  109251      66  109257  109251      66
  109257  109254      67  109266  109263      66  109269  109263      66  109269
  109266      67  109278  109275      66  109281  109275      66  109281  109278
      67  109290  109287      66  109293  109287      66  109293  109290      67
  109302  109299      66  109305  109299      66  109305  109302      67  109314
  109311      66  109317  109311      66  109317  109314      67  109326  109323
      66  109329  109323      66  109329  109326      67  109338  109335      66
  109341  109335      66  109341  109338      67  109350  109347      66  109353
  109347      66  109353  109350      67  109362  109359      66  109365  109359
      66  109365  109362      67  109374  109371      66  109377  109371      66
  109377  109374      67  109386  109383      66  109389  109383      66  109389
  109386      67  109398  109395      66  109401  109395      66  109401  109398
      67  109410  109407      66  109413  109407      66  109413  109410      67
  109422  109419      66  109425  109419      66  109425  109422      67  109434
  109431      66  109437  109431      66  109437  109434      67  109446  109443
      66  109449  109443      66  109449  109446      67  109458  109455      66
  109461  109455      66  109461  109458      67  109470  109467      66  109473
  109467      66  109473  109470      67  109482  109479      66  109485  109479
      66  109485  109482      67  109494  109491      66  109497  109491      66
  109497  109494      67  109506  109503      66  109509  109503      66  109509
  109506      67  109518  109515      66  109521  109515      66  109521  109518
      67  109530  109527      66  109533  109527      66  109533  109530      67
  109542  109539      66  109545  109539      66  109545  109542      67  109554
  109551      66  109557  109551      66  109557  109554      67  109566  109563
      66  109569  109563      66  109569  109566      67  109578  109575      66
  109581  109575      66  109581  109578      67  109590  109587      66  109593
  109587      66  109593  109590      67  109602  109599      66  109605  109599
      66  109605  109602      67  109614  109611      66  109617  109611      66
  109617  109614      67  109626  109623      66  109629  109623      66  109629
  109626      67  109638  109635      66  109641  109635      66  109641  109638
      67  109650  109647      66  109653  109647      66  109653  109650      67
  109662  109659      66  109665  109659      66  109665  109662      67  109674
  109671      66  109677  109671      66  109677  109674      67  109686  109683
      66  109689  109683      66  109689  109686      67  109698  109695      66
  109701  109695      66  109701  109698      67  109710  109707      66  109713
  109707      66  109713  109710      67  109722  109719      66  109725  109719
      66  109725  109722      67  109734  109731      66  109737  109731      66
  109737  109734      67  109746  109743      66  109749  109743      66  109749
  109746      67  109758  109755      66  109761  109755      66  109761  109758
      67  109770  109767      66  109773  109767      66  109773  109770      67
  109782  109779      66  109785  109779      66  109785  109782      67  109794
  109791      66  109797  109791      66  109797  109794      67  109806  109803
      66  109809  109803      66  109809  109806      67  109818  109815      66
  109821  109815      66  109821  109818      67  109830  109827      66  109833
  109827      66  109833  109830      67  109842  109839      66  109845  109839
      66  109845  109842      67  109854  109851      66  109857  109851      66
  109857  109854      67  109866  109863      66  109869  109863      66  109869
  109866      67  109878  109875      66  109881  109875      66  109881  109878
      67  109890  109887      66  109893  109887      66  109893  109890      67
  109902  109899      66  109905  109899      66  109905  109902      67  109914
  109911      66  109917  109911      66  109917  109914      67  109926  109923
      66  109929  109923      66  109929  109926      67  109938  109935      66
  109941  109935      66  109941  109938      67  109950  109947      66  109953
  109947      66  109953  109950      67  109962  109959      66  109965  109959
      66  109965  109962      67  109974  109971      66  109977  109971      66
  109977  109974      67  109986  109983      66  109989  109983      66  109989
  109986      67  109998  109995      66  110001  109995      66  110001  109998
      67  110010  110007      66  110013  110007      66  110013  110010      67
  110022  110019      66  110025  110019      66  110025  110022      67  110034
  110031      66  110037  110031      66  110037  110034      67  110046  110043
      66  110049  110043      66  110049  110046      67  110058  110055      66
  110061  110055      66  110061  110058      67  110070  110067      66  110073
  110067      66  110073  110070      67  110082  110079      66  110085  110079
      66  110085  110082      67  110094  110091      66  110097  110091      66
  110097  110094      67  110106  110103      66  110109  110103      66  110109
  110106      67  110118  110115      66  110121  110115      66  110121  110118
      67  110130  110127      66  110133  110127      66  110133  110130      67
  110142  110139      66  110145  110139      66  110145  110142      67  110154
  110151      66  110157  110151      66  110157  110154      67  110166  110163
      66  110169  110163      66  110169  110166      67  110178  110175      66
  110181  110175      66  110181  110178      67  110190  110187      66  110193
  110187      66  110193  110190      67  110202  110199      66  110205  110199
      66  110205  110202      67  110214  110211      66  110217  110211      66
  110217  110214      67  110226  110223      66  110229  110223      66  110229
  110226      67  110238  110235      66  110241  110235      66  110241  110238
      67  110250  110247      66  110253  110247      66  110253  110250      67
  110262  110259      66  110265  110259      66  110265  110262      67  110274
  110271      66  110277  110271      66  110277  110274      67  110286  110283
      66  110289  110283      66  110289  110286      67  110298  110295      66
  110301  110295      66  110301  110298      67  110310  110307      66  110313
  110307      66  110313  110310      67  110322  110319      66  110325  110319
      66  110325  110322      67  110334  110331      66  110337  110331      66
  110337  110334      67  110346  110343      66  110349  110343      66  110349
  110346      67  110358  110355      66  110361  110355      66  110361  110358
      67  110370  110367      66  110373  110367      66  110373  110370      67
  110382  110379      66  110385  110379      66  110385  110382      67  110394
  110391      66  110397  110391      66  110397  110394      67  110406  110403
      66  110409  110403      66  110409  110406      67  110418  110415      66
  110421  110415      66  110421  110418      67  110430  110427      66  110433
  110427      66  110433  110430      67  110442  110439      66  110445  110439
      66  110445  110442      67  110454  110451      66  110457  110451      66
  110457  110454      67  110466  110463      66  110469  110463      66  110469
  110466      67  110478  110475      66  110481  110475      66  110481  110478
      67  110490  110487      66  110493  110487      66  110493  110490      67
  110502  110499      66  110505  110499      66  110505  110502      67  110514
  110511      66  110517  110511      66  110517  110514      67  110526  110523
      66  110529  110523      66  110529  110526      67  110538  110535      66
  110541  110535      66  110541  110538      67  110550  110547      66  110553
  110547      66  110553  110550      67  110562  110559      66  110565  110559
      66  110565  110562      67  110574  110571      66  110577  110571      66
  110577  110574      67  110586  110583      66  110589  110583      66  110589
  110586      67  110598  110595      66  110601  110595      66  110601  110598
      67  110610  110607      66  110613  110607      66  110613  110610      67
  110622  110619      66  110625  110619      66  110625  110622      67  110634
  110631      66  110637  110631      66  110637  110634      67  110646  110643
      66  110649  110643      66  110649  110646      67  110658  110655      66
  110661  110655      66  110661  110658      67  110670  110667      66  110673
  110667      66  110673  110670      67  110682  110679      66  110685  110679
      66  110685  110682      67  110694  110691      66  110697  110691      66
  110697  110694      67  110706  110703      66  110709  110703      66  110709
  110706      67  110718  110715      66  110721  110715      66  110721  110718
      67  110730  110727      66  110733  110727      66  110733  110730      67
  110742  110739      66  110745  110739      66  110745  110742      67  110754
  110751      66  110757  110751      66  110757  110754      67  110766  110763
      66  110769  110763      66  110769  110766      67  110778  110775      66
  110781  110775      66  110781  110778      67  110790  110787      66  110793
  110787      66  110793  110790      67  110802  110799      66  110805  110799
      66  110805  110802      67  110814  110811      66  110817  110811      66
  110817  110814      67  110826  110823      66  110829  110823      66  110829
  110826      67  110838  110835      66  110841  110835      66  110841  110838
      67  110850  110847      66  110853  110847      66  110853  110850      67
  110862  110859      66  110865  110859      66  110865  110862      67  110874
  110871      66  110877  110871      66  110877  110874      67  110886  110883
      66  110889  110883      66  110889  110886      67  110898  110895      66
  110901  110895      66  110901  110898      67  110910  110907      66  110913
  110907      66  110913  110910      67  110922  110919      66  110925  110919
      66  110925  110922      67  110934  110931      66  110937  110931      66
  110937  110934      67  110946  110943      66  110949  110943      66  110949
  110946      67  110958  110955      66  110961  110955      66  110961  110958
      67  110970  110967      66  110973  110967      66  110973  110970      67
  110982  110979      66  110985  110979      66  110985  110982      67  110994
  110991      66  110997  110991      66  110997  110994      67  111006  111003
      66  111009  111003      66  111009  111006      67  111018  111015      66
  111021  111015      66  111021  111018      67  111030  111027      66  111033
  111027      66  111033  111030      67  111042  111039      66  111045  111039
      66  111045  111042      67  111054  111051      66  111057  111051      66
  111057  111054      67  111066  111063      66  111069  111063      66  111069
  111066      67  111078  111075      66  111081  111075      66  111081  111078
      67  111090  111087      66  111093  111087      66  111093  111090      67
  111102  111099      66  111105  111099      66  111105  111102      67  111114
  111111      66  111117  111111      66  111117  111114      67  111126  111123
      66  111129  111123      66  111129  111126      67  111138  111135      66
  111141  111135      66  111141  111138      67  111150  111147      66  111153
  111147      66  111153  111150      67  111162  111159      66  111165  111159
      66  111165  111162      67  111174  111171      66  111177  111171      66
  111177  111174      67  111186  111183      66  111189  111183      66  111189
  111186      67  111198  111195      66  111201  111195      66  111201  111198
      67  111210  111207      66  111213  111207      66  111213  111210      67
  111222  111219      66  111225  111219      66  111225  111222      67  111234
  111231      66  111237  111231      66  111237  111234      67  111246  111243
      66  111249  111243      66  111249  111246      67  111258  111255      66
  111261  111255      66  111261  111258      67  111270  111267      66  111273
  111267      66  111273  111270      67  111282  111279      66  111285  111279
      66  111285  111282      67  111294  111291      66  111297  111291      66
  111297  111294      67  111306  111303      66  111309  111303      66  111309
  111306      67  111318  111315      66  111321  111315      66  111321  111318
      67  111330  111327      66  111333  111327      66  111333  111330      67
  111342  111339      66  111345  111339      66  111345  111342      67  111354
  111351      66  111357  111351      66  111357  111354      67  111366  111363
      66  111369  111363      66  111369  111366      67  111378  111375      66
  111381  111375      66  111381  111378      67  111390  111387      66  111393
  111387      66  111393  111390      67  111402  111399      66  111405  111399
      66  111405  111402      67  111414  111411      66  111417  111411      66
  111417  111414      67  111426  111423      66  111429  111423      66  111429
  111426      67  111438  111435      66  111441  111435      66  111441  111438
      67  111450  111447      66  111453  111447      66  111453  111450      67
  111462  111459      66  111465  111459      66  111465  111462      67  111474
  111471      66  111477  111471      66  111477  111474      67  111486  111483
      66  111489  111483      66  111489  111486      67  111498  111495      66
  111501  111495      66  111501  111498      67  111510  111507      66  111513
  111507      66  111513  111510      67  111522  111519      66  111525  111519
      66  111525  111522      67  111534  111531      66  111537  111531      66
  111537  111534      67  111546  111543      66  111549  111543      66  111549
  111546      67  111558  111555      66  111561  111555      66  111561  111558
      67  111570  111567      66  111573  111567      66  111573  111570      67
  111582  111579      66  111585  111579      66  111585  111582      67  111594
  111591      66  111597  111591      66  111597  111594      67  111606  111603
      66  111609  111603      66  111609  111606      67  111618  111615      66
  111621  111615      66  111621  111618      67  111630  111627      66  111633
  111627      66  111633  111630      67  111642  111639      66  111645  111639
      66  111645  111642      67  111654  111651      66  111657  111651      66
  111657  111654      67  111666  111663      66  111669  111663      66  111669
  111666      67  111678  111675      66  111681  111675      66  111681  111678
      67  111690  111687      66  111693  111687      66  111693  111690      67
  111702  111699      66  111705  111699      66  111705  111702      67  111714
  111711      66  111717  111711      66  111717  111714      67  111726  111723
      66  111729  111723      66  111729  111726      67  111738  111735      66
  111741  111735      66  111741  111738      67  111750  111747      66  111753
  111747      66  111753  111750      67  111762  111759      66  111765  111759
      66  111765  111762      67  111774  111771      66  111777  111771      66
  111777  111774      67  111786  111783      66  111789  111783      66  111789
  111786      67  111798  111795      66  111801  111795      66  111801  111798
      67  111810  111807      66  111813  111807      66  111813  111810      67
  111822  111819      66  111825  111819      66  111825  111822      67  111834
  111831      66  111837  111831      66  111837  111834      67  111846  111843
      66  111849  111843      66  111849  111846      67  111858  111855      66
  111861  111855      66  111861  111858      67  111870  111867      66  111873
  111867      66  111873  111870      67  111882  111879      66  111885  111879
      66  111885  111882      67  111894  111891      66  111897  111891      66
  111897  111894      67  111906  111903      66  111909  111903      66  111909
  111906      67  111918  111915      66  111921  111915      66  111921  111918
      67  111930  111927      66  111933  111927      66  111933  111930      67
  111942  111939      66  111945  111939      66  111945  111942      67  111954
  111951      66  111957  111951      66  111957  111954      67  111966  111963
      66  111969  111963      66  111969  111966      67  111978  111975      66
  111981  111975      66  111981  111978      67  111990  111987      66  111993
  111987      66  111993  111990      67  112002  111999      66  112005  111999
      66  112005  112002      67  112014  112011      66  112017  112011      66
  112017  112014      67  112026  112023      66  112029  112023      66  112029
  112026      67  112038  112035      66  112041  112035      66  112041  112038
      67  112050  112047      66  112053  112047      66  112053  112050      67
  112062  112059      66  112065  112059      66  112065  112062      67  112074
  112071      66  112077  112071      66  112077  112074      67  112086  112083
      66  112089  112083      66  112089  112086      67  112098  112095      66
  112101  112095      66  112101  112098      67  112110  112107      66  112113
  112107      66  112113  112110      67  112122  112119      66  112125  112119
      66  112125  112122      67  112134  112131      66  112137  112131      66
  112137  112134      67  112146  112143      66  112149  112143      66  112149
  112146      67  112158  112155      66  112161  112155      66  112161  112158
      67  112170  112167      66  112173  112167      66  112173  112170      67
  112182  112179      66  112185  112179      66  112185  112182      67  112194
  112191      66  112197  112191      66  112197  112194      67  112206  112203
      66  112209  112203      66  112209  112206      67  112218  112215      66
  112221  112215      66  112221  112218      67  112230  112227      66  112233
  112227      66  112233  112230      67  112242  112239      66  112245  112239
      66  112245  112242      67  112254  112251      66  112257  112251      66
  112257  112254      67  112266  112263      66  112269  112263      66  112269
  112266      67  112278  112275      66  112281  112275      66  112281  112278
      67  112290  112287      66  112293  112287      66  112293  112290      67
  112302  112299      66  112305  112299      66  112305  112302      67  112314
  112311      66  112317  112311      66  112317  112314      67  112326  112323
      66  112329  112323      66  112329  112326      67  112338  112335      66
  112341  112335      66  112341  112338      67  112350  112347      66  112353
  112347      66  112353  112350      67  112362  112359      66  112365  112359
      66  112365  112362      67  112374  112371      66  112377  112371      66
  112377  112374      67  112386  112383      66  112389  112383      66  112389
  112386      67  112398  112395      66  112401  112395      66  112401  112398
      67  112410  112407      66  112413  112407      66  112413  112410      67
  112422  112419      66  112425  112419      66  112425  112422      67  112434
  112431      66  112437  112431      66  112437  112434      67  112446  112443
      66  112449  112443      66  112449  112446      67  112458  112455      66
  112461  112455      66  112461  112458      67  112470  112467      66  112473
  112467      66  112473  112470      67  112482  112479      66  112485  112479
      66  112485  112482      67  112494  112491      66  112497  112491      66
  112497  112494      67  112506  112503      66  112509  112503      66  112509
  112506      67  112518  112515      66  112521  112515      66  112521  112518
      67  112530  112527      66  112533  112527      66  112533  112530      67
  112542  112539      66  112545  112539      66  112545  112542      67  112554
  112551      66  112557  112551      66  112557  112554      67  112566  112563
      66  112569  112563      66  112569  112566      67  112578  112575      66
  112581  112575      66  112581  112578      67  112590  112587      66  112593
  112587      66  112593  112590      67  112602  112599      66  112605  112599
      66  112605  112602      67  112614  112611      66  112617  112611      66
  112617  112614      67  112626  112623      66  112629  112623      66  112629
  112626      67  112638  112635      66  112641  112635      66  112641  112638
      67  112650  112647      66  112653  112647      66  112653  112650      67
  112662  112659      66  112665  112659      66  112665  112662      67  112674
  112671      66  112677  112671      66  112677  112674      67  112686  112683
      66  112689  112683      66  112689  112686      67  112698  112695      66
  112701  112695      66  112701  112698      67  112710  112707      66  112713
  112707      66  112713  112710      67  112722  112719      66  112725  112719
      66  112725  112722      67  112734  112731      66  112737  112731      66
  112737  112734      67  112746  112743      66  112749  112743      66  112749
  112746      67  112758  112755      66  112761  112755      66  112761  112758
      67  112770  112767      66  112773  112767      66  112773  112770      67
  112782  112779      66  112785  112779      66  112785  112782      67  112794
  112791      66  112797  112791      66  112797  112794      67  112806  112803
      66  112809  112803      66  112809  112806      67  112818  112815      66
  112821  112815      66  112821  112818      67  112830  112827      66  112833
  112827      66  112833  112830      67  112842  112839      66  112845  112839
      66  112845  112842      67  112854  112851      66  112857  112851      66
  112857  112854      67  112866  112863      66  112869  112863      66  112869
  112866      67  112878  112875      66  112881  112875      66  112881  112878
      67  112890  112887      66  112893  112887      66  112893  112890      67
  112902  112899      66  112905  112899      66  112905  112902      67  112914
  112911      66  112917  112911      66  112917  112914      67  112926  112923
      66  112929  112923      66  112929  112926      67  112938  112935      66
  112941  112935      66  112941  112938      67  112950  112947      66  112953
  112947      66  112953  112950      67  112962  112959      66  112965  112959
      66  112965  112962      67  112974  112971      66  112977  112971      66
  112977  112974      67  112986  112983      66  112989  112983      66  112989
  112986      67  112998  112995      66  113001  112995      66  113001  112998
      67  113010  113007      66  113013  113007      66  113013  113010      67
  113022  113019      66  113025  113019      66  113025  113022      67  113034
  113031      66  113037  113031      66  113037  113034      67  113046  113043
      66  113049  113043      66  113049  113046      67  113058  113055      66
  113061  113055      66  113061  113058      67  113070  113067      66  113073
  113067      66  113073  113070      67  113082  113079      66  113085  113079
      66  113085  113082      67  113094  113091      66  113097  113091      66
  113097  113094      67  113106  113103      66  113109  113103      66  113109
  113106      67  113118  113115      66  113121  113115      66  113121  113118
      67  113130  113127      66  113133  113127      66  113133  113130      67
  113142  113139      66  113145  113139      66  113145  113142      67  113154
  113151      66  113157  113151      66  113157  113154      67  113166  113163
      66  113169  113163      66  113169  113166      67  113178  113175      66
  113181  113175      66  113181  113178      67  113190  113187      66  113193
  113187      66  113193  113190      67  113202  113199      66  113205  113199
      66  113205  113202      67  113214  113211      66  113217  113211      66
  113217  113214      67  113226  113223      66  113229  113223      66  113229
  113226      67  113238  113235      66  113241  113235      66  113241  113238
      67  113250  113247      66  113253  113247      66  113253  113250      67
  113262  113259      66  113265  113259      66  113265  113262      67  113274
  113271      66  113277  113271      66  113277  113274      67  113286  113283
      66  113289  113283      66  113289  113286      67  113298  113295      66
  113301  113295      66  113301  113298      67  113310  113307      66  113313
  113307      66  113313  113310      67  113322  113319      66  113325  113319
      66  113325  113322      67  113334  113331      66  113337  113331      66
  113337  113334      67  113346  113343      66  113349  113343      66  113349
  113346      67  113358  113355      66  113361  113355      66  113361  113358
      67  113370  113367      66  113373  113367      66  113373  113370      67
  113382  113379      66  113385  113379      66  113385  113382      67  113394
  113391      66  113397  113391      66  113397  113394      67  113406  113403
      66  113409  113403      66  113409  113406      67  113418  113415      66
  113421  113415      66  113421  113418      67  113430  113427      66  113433
  113427      66  113433  113430      67  113442  113439      66  113445  113439
      66  113445  113442      67  113454  113451      66  113457  113451      66
  113457  113454      67  113466  113463      66  113469  113463      66  113469
  113466      67  113478  113475      66  113481  113475      66  113481  113478
      67  113490  113487      66  113493  113487      66  113493  113490      67
  113502  113499      66  113505  113499      66  113505  113502      67  113514
  113511      66  113517  113511      66  113517  113514      67  113526  113523
      66  113529  113523      66  113529  113526      67  113538  113535      66
  113541  113535      66  113541  113538      67  113550  113547      66  113553
  113547      66  113553  113550      67  113562  113559      66  113565  113559
      66  113565  113562      67  113574  113571      66  113577  113571      66
  113577  113574      67  113586  113583      66  113589  113583      66  113589
  113586      67  113598  113595      66  113601  113595      66  113601  113598
      67  113610  113607      66  113613  113607      66  113613  113610      67
  113622  113619      66  113625  113619      66  113625  113622      67  113634
  113631      66  113637  113631      66  113637  113634      67  113646  113643
      66  113649  113643      66  113649  113646      67  113658  113655      66
  113661  113655      66  113661  113658      67  113670  113667      66  113673
  113667      66  113673  113670      67  113682  113679      66  113685  113679
      66  113685  113682      67  113694  113691      66  113697  113691      66
  113697  113694      67  113706  113703      66  113709  113703      66  113709
  113706      67  113718  113715      66  113721  113715      66  113721  113718
      67  113730  113727      66  113733  113727      66  113733  113730      67
  113742  113739      66  113745  113739      66  113745  113742      67  113754
  113751      66  113757  113751      66  113757  113754      67  113766  113763
      66  113769  113763      66  113769  113766      67  113778  113775      66
  113781  113775      66  113781  113778      67  113790  113787      66  113793
  113787      66  113793  113790      67  113802  113799      66  113805  113799
      66  113805  113802      67  113814  113811      66  113817  113811      66
  113817  113814      67  113826  113823      66  113829  113823      66  113829
  113826      67  113838  113835      66  113841  113835      66  113841  113838
      67  113850  113847      66  113853  113847      66  113853  113850      67
  113862  113859      66  113865  113859      66  113865  113862      67  113874
  113871      66  113877  113871      66  113877  113874      67  113886  113883
      66  113889  113883      66  113889  113886      67  113898  113895      66
  113901  113895      66  113901  113898      67  113910  113907      66  113913
  113907      66  113913  113910      67  113922  113919      66  113925  113919
      66  113925  113922      67  113934  113931      66  113937  113931      66
  113937  113934      67  113946  113943      66  113949  113943      66  113949
  113946      67  113958  113955      66  113961  113955      66  113961  113958
      67  113970  113967      66  113973  113967      66  113973  113970      67
  113982  113979      66  113985  113979      66  113985  113982      67  113994
  113991      66  113997  113991      66  113997  113994      67  114006  114003
      66  114009  114003      66  114009  114006      67  114018  114015      66
  114021  114015      66  114021  114018      67  114030  114027      66  114033
  114027      66  114033  114030      67  114042  114039      66  114045  114039
      66  114045  114042      67  114054  114051      66  114057  114051      66
  114057  114054      67  114066  114063      66  114069  114063      66  114069
  114066      67  114078  114075      66  114081  114075      66  114081  114078
      67  114090  114087      66  114093  114087      66  114093  114090      67
  114102  114099      66  114105  114099      66  114105  114102      67  114114
  114111      66  114117  114111      66  114117  114114      67  114126  114123
      66  114129  114123      66  114129  114126      67  114138  114135      66
  114141  114135      66  114141  114138      67  114150  114147      66  114153
  114147      66  114153  114150      67  114162  114159      66  114165  114159
      66  114165  114162      67  114174  114171      66  114177  114171      66
  114177  114174      67  114186  114183      66  114189  114183      66  114189
  114186      67  114198  114195      66  114201  114195      66  114201  114198
      67  114210  114207      66  114213  114207      66  114213  114210      67
  114222  114219      66  114225  114219      66  114225  114222      67  114234
  114231      66  114237  114231      66  114237  114234      67  114246  114243
      66  114249  114243      66  114249  114246      67  114258  114255      66
  114261  114255      66  114261  114258      67  114270  114267      66  114273
  114267      66  114273  114270      67  114282  114279      66  114285  114279
      66  114285  114282      67  114294  114291      66  114297  114291      66
  114297  114294      67  114306  114303      66  114309  114303      66  114309
  114306      67  114318  114315      66  114321  114315      66  114321  114318
      67  114330  114327      66  114333  114327      66  114333  114330      67
  114342  114339      66  114345  114339      66  114345  114342      67  114354
  114351      66  114357  114351      66  114357  114354      67  114366  114363
      66  114369  114363      66  114369  114366      67  114378  114375      66
  114381  114375      66  114381  114378      67  114390  114387      66  114393
  114387      66  114393  114390      67  114402  114399      66  114405  114399
      66  114405  114402      67  114414  114411      66  114417  114411      66
  114417  114414      67  114426  114423      66  114429  114423      66  114429
  114426      67  114438  114435      66  114441  114435      66  114441  114438
      67  114450  114447      66  114453  114447      66  114453  114450      67
  114462  114459      66  114465  114459      66  114465  114462      67  114474
  114471      66  114477  114471      66  114477  114474      67  114486  114483
      66  114489  114483      66  114489  114486      67  114498  114495      66
  114501  114495      66  114501  114498      67  114510  114507      66  114513
  114507      66  114513  114510      67  114522  114519      66  114525  114519
      66  114525  114522      67  114534  114531      66  114537  114531      66
  114537  114534      67  114546  114543      66  114549  114543      66  114549
  114546      67  114558  114555      66  114561  114555      66  114561  114558
      67  114570  114567      66  114573  114567      66  114573  114570      67
  114582  114579      66  114585  114579      66  114585  114582      67  114594
  114591      66  114597  114591      66  114597  114594      67  114606  114603
      66  114609  114603      66  114609  114606      67  114618  114615      66
  114621  114615      66  114621  114618      67  114630  114627      66  114633
  114627      66  114633  114630      67  114642  114639      66  114645  114639
      66  114645  114642      67  114654  114651      66  114657  114651      66
  114657  114654      67  114666  114663      66  114669  114663      66  114669
  114666      67  114678  114675      66  114681  114675      66  114681  114678
      67  114690  114687      66  114693  114687      66  114693  114690      67
  114702  114699      66  114705  114699      66  114705  114702      67  114714
  114711      66  114717  114711      66  114717  114714      67  114726  114723
      66  114729  114723      66  114729  114726      67  114738  114735      66
  114741  114735      66  114741  114738      67  114750  114747      66  114753
  114747      66  114753  114750      67  114762  114759      66  114765  114759
      66  114765  114762      67  114774  114771      66  114777  114771      66
  114777  114774      67  114786  114783      66  114789  114783      66  114789
  114786      67  114798  114795      66  114801  114795      66  114801  114798
      67  114810  114807      66  114813  114807      66  114813  114810      67
  114822  114819      66  114825  114819      66  114825  114822      67  114834
  114831      66  114837  114831      66  114837  114834      67  114846  114843
      66  114849  114843      66  114849  114846      67  114858  114855      66
  114861  114855      66  114861  114858      67  114870  114867      66  114873
  114867      66  114873  114870      67  114882  114879      66  114885  114879
      66  114885  114882      67  114894  114891      66  114897  114891      66
  114897  114894      67  114906  114903      66  114909  114903      66  114909
  114906      67  114918  114915      66  114921  114915      66  114921  114918
      67  114930  114927      66  114933  114927      66  114933  114930      67
  114942  114939      66  114945  114939      66  114945  114942      67  114954
  114951      66  114957  114951      66  114957  114954      67  114966  114963
      66  114969  114963      66  114969  114966      67  114978  114975      66
  114981  114975      66  114981  114978      67  114990  114987      66  114993
  114987      66  114993  114990      67  115002  114999      66  115005  114999
      66  115005  115002      67  115014  115011      66  115017  115011      66
  115017  115014      67  115026  115023      66  115029  115023      66  115029
  115026      67  115038  115035      66  115041  115035      66  115041  115038
      67  115050  115047      66  115053  115047      66  115053  115050      67
  115062  115059      66  115065  115059      66  115065  115062      67  115074
  115071      66  115077  115071      66  115077  115074      67  115086  115083
      66  115089  115083      66  115089  115086      67  115098  115095      66
  115101  115095      66  115101  115098      67  115110  115107      66  115113
  115107      66  115113  115110      67  115122  115119      66  115125  115119
      66  115125  115122      67  115134  115131      66  115137  115131      66
  115137  115134      67  115146  115143      66  115149  115143      66  115149
  115146      67  115158  115155      66  115161  115155      66  115161  115158
      67  115170  115167      66  115173  115167      66  115173  115170      67
  115182  115179      66  115185  115179      66  115185  115182      67  115194
  115191      66  115197  115191      66  115197  115194      67  115206  115203
      66  115209  115203      66  115209  115206      67  115218  115215      66
  115221  115215      66  115221  115218      67  115230  115227      66  115233
  115227      66  115233  115230      67  115242  115239      66  115245  115239
      66  115245  115242      67  115254  115251      66  115257  115251      66
  115257  115254      67  115266  115263      66  115269  115263      66  115269
  115266      67  115278  115275      66  115281  115275      66  115281  115278
      67  115290  115287      66  115293  115287      66  115293  115290      67
  115302  115299      66  115305  115299      66  115305  115302      67  115314
  115311      66  115317  115311      66  115317  115314      67  115326  115323
      66  115329  115323      66  115329  115326      67  115338  115335      66
  115341  115335      66  115341  115338      67  115350  115347      66  115353
  115347      66  115353  115350      67  115362  115359      66  115365  115359
      66  115365  115362      67  115374  115371      66  115377  115371      66
  115377  115374      67  115386  115383      66  115389  115383      66  115389
  115386      67  115398  115395      66  115401  115395      66  115401  115398
      67  115410  115407      66  115413  115407      66  115413  115410      67
  115422  115419      66  115425  115419      66  115425  115422      67  115434
  115431      66  115437  115431      66  115437  115434      67  115446  115443
      66  115449  115443      66  115449  115446      67  115458  115455      66
  115461  115455      66  115461  115458      67  115470  115467      66  115473
  115467      66  115473  115470      67  115482  115479      66  115485  115479
      66  115485  115482      67  115494  115491      66  115497  115491      66
  115497  115494      67  115506  115503      66  115509  115503      66  115509
  115506      67  115518  115515      66  115521  115515      66  115521  115518
      67  115530  115527      66  115533  115527      66  115533  115530      67
  115542  115539      66  115545  115539      66  115545  115542      67  115554
  115551      66  115557  115551      66  115557  115554      67  115566  115563
      66  115569  115563      66  115569  115566      67  115578  115575      66
  115581  115575      66  115581  115578      67  115590  115587      66  115593
  115587      66  115593  115590      67  115602  115599      66  115605  115599
      66  115605  115602      67  115614  115611      66  115617  115611      66
  115617  115614      67  115626  115623      66  115629  115623      66  115629
  115626      67  115638  115635      66  115641  115635      66  115641  115638
      67  115650  115647      66  115653  115647      66  115653  115650      67
  115662  115659      66  115665  115659      66  115665  115662      67  115674
  115671      66  115677  115671      66  115677  115674      67  115686  115683
      66  115689  115683      66  115689  115686      67  115698  115695      66
  115701  115695      66  115701  115698      67  115710  115707      66  115713
  115707      66  115713  115710      67  115722  115719      66  115725  115719
      66  115725  115722      67  115734  115731      66  115737  115731      66
  115737  115734      67  115746  115743      66  115749  115743      66  115749
  115746      67  115758  115755      66  115761  115755      66  115761  115758
      67  115770  115767      66  115773  115767      66  115773  115770      67
  115782  115779      66  115785  115779      66  115785  115782      67  115794
  115791      66  115797  115791      66  115797  115794      67  115806  115803
      66  115809  115803      66  115809  115806      67  115818  115815      66
  115821  115815      66  115821  115818      67  115830  115827      66  115833
  115827      66  115833  115830      67  115842  115839      66  115845  115839
      66  115845  115842      67  115854  115851      66  115857  115851      66
  115857  115854      67  115866  115863      66  115869  115863      66  115869
  115866      67  115878  115875      66  115881  115875      66  115881  115878
      67  115890  115887      66  115893  115887      66  115893  115890      67
  115902  115899      66  115905  115899      66  115905  115902      67  115914
  115911      66  115917  115911      66  115917  115914      67  115926  115923
      66  115929  115923      66  115929  115926      67  115938  115935      66
  115941  115935      66  115941  115938      67  115950  115947      66  115953
  115947      66  115953  115950      67  115962  115959      66  115965  115959
      66  115965  115962      67  115974  115971      66  115977  115971      66
  115977  115974      67  115986  115983      66  115989  115983      66  115989
  115986      67  115998  115995      66  116001  115995      66  116001  115998
      67  116010  116007      66  116013  116007      66  116013  116010      67
  116022  116019      66  116025  116019      66  116025  116022      67  116034
  116031      66  116037  116031      66  116037  116034      67  116046  116043
      66  116049  116043      66  116049  116046      67  116058  116055      66
  116061  116055      66  116061  116058      67  116070  116067      66  116073
  116067      66  116073  116070      67  116082  116079      66  116085  116079
      66  116085  116082      67  116094  116091      66  116097  116091      66
  116097  116094      67  116106  116103      66  116109  116103      66  116109
  116106      67  116118  116115      66  116121  116115      66  116121  116118
      67  116130  116127      66  116133  116127      66  116133  116130      67
  116142  116139      66  116145  116139      66  116145  116142      67  116154
  116151      66  116157  116151      66  116157  116154      67  116166  116163
      66  116169  116163      66  116169  116166      67  116178  116175      66
  116181  116175      66  116181  116178      67  116190  116187      66  116193
  116187      66  116193  116190      67  116202  116199      66  116205  116199
      66  116205  116202      67  116214  116211      66  116217  116211      66
  116217  116214      67  116226  116223      66  116229  116223      66  116229
  116226      67  116238  116235      66  116241  116235      66  116241  116238
      67  116250  116247      66  116253  116247      66  116253  116250      67
  116262  116259      66  116265  116259      66  116265  116262      67  116274
  116271      66  116277  116271      66  116277  116274      67  116286  116283
      66  116289  116283      66  116289  116286      67  116298  116295      66
  116301  116295      66  116301  116298      67  116310  116307      66  116313
  116307      66  116313  116310      67  116322  116319      66  116325  116319
      66  116325  116322      67  116334  116331      66  116337  116331      66
  116337  116334      67  116346  116343      66  116349  116343      66  116349
  116346      67  116358  116355      66  116361  116355      66  116361  116358
      67  116370  116367      66  116373  116367      66  116373  116370      67
  116382  116379      66  116385  116379      66  116385  116382      67  116394
  116391      66  116397  116391      66  116397  116394      67  116406  116403
      66  116409  116403      66  116409  116406      67  116418  116415      66
  116421  116415      66  116421  116418      67  116430  116427      66  116433
  116427      66  116433  116430      67  116442  116439      66  116445  116439
      66  116445  116442      67  116454  116451      66  116457  116451      66
  116457  116454      67  116466  116463      66  116469  116463      66  116469
  116466      67  116478  116475      66  116481  116475      66  116481  116478
      67  116490  116487      66  116493  116487      66  116493  116490      67
  116502  116499      66  116505  116499      66  116505  116502      67  116514
  116511      66  116517  116511      66  116517  116514      67  116526  116523
      66  116529  116523      66  116529  116526      67  116538  116535      66
  116541  116535      66  116541  116538      67  116550  116547      66  116553
  116547      66  116553  116550      67  116562  116559      66  116565  116559
      66  116565  116562      67  116574  116571      66  116577  116571      66
  116577  116574      67  116586  116583      66  116589  116583      66  116589
  116586      67  116598  116595      66  116601  116595      66  116601  116598
      67  116610  116607      66  116613  116607      66  116613  116610      67
  116622  116619      66  116625  116619      66  116625  116622      67  116634
  116631      66  116637  116631      66  116637  116634      67  116646  116643
      66  116649  116643      66  116649  116646      67  116658  116655      66
  116661  116655      66  116661  116658      67  116670  116667      66  116673
  116667      66  116673  116670      67  116682  116679      66  116685  116679
      66  116685  116682      67  116694  116691      66  116697  116691      66
  116697  116694      67  116706  116703      66  116709  116703      66  116709
  116706      67  116718  116715      66  116721  116715      66  116721  116718
      67  116730  116727      66  116733  116727      66  116733  116730      67
  116742  116739      66  116745  116739      66  116745  116742      67  116754
  116751      66  116757  116751      66  116757  116754      67  116766  116763
      66  116769  116763      66  116769  116766      67  116778  116775      66
  116781  116775      66  116781  116778      67  116790  116787      66  116793
  116787      66  116793  116790      67  116802  116799      66  116805  116799
      66  116805  116802      67  116814  116811      66  116817  116811      66
  116817  116814      67  116826  116823      66  116829  116823      66  116829
  116826      67  116838  116835      66  116841  116835      66  116841  116838
      67  116850  116847      66  116853  116847      66  116853  116850      67
  116862  116859      66  116865  116859      66  116865  116862      67  116874
  116871      66  116877  116871      66  116877  116874      67  116886  116883
      66  116889  116883      66  116889  116886      67  116898  116895      66
  116901  116895      66  116901  116898      67  116910  116907      66  116913
  116907      66  116913  116910      67  116922  116919      66  116925  116919
      66  116925  116922      67  116934  116931      66  116937  116931      66
  116937  116934      67  116946  116943      66  116949  116943      66  116949
  116946      67  116958  116955      66  116961  116955      66  116961  116958
      67  116970  116967      66  116973  116967      66  116973  116970      67
  116982  116979      66  116985  116979      66  116985  116982      67  116994
  116991      66  116997  116991      66  116997  116994      67  117006  117003
      66  117009  117003      66  117009  117006      67  117018  117015      66
  117021  117015      66  117021  117018      67  117030  117027      66  117033
  117027      66  117033  117030      67  117042  117039      66  117045  117039
      66  117045  117042      67  117054  117051      66  117057  117051      66
  117057  117054      67  117066  117063      66  117069  117063      66  117069
  117066      67  117078  117075      66  117081  117075      66  117081  117078
      67  117090  117087      66  117093  117087      66  117093  117090      67
  117102  117099      66  117105  117099      66  117105  117102      67  117114
  117111      66  117117  117111      66  117117  117114      67  117126  117123
      66  117129  117123      66  117129  117126      67  117138  117135      66
  117141  117135      66  117141  117138      67  117150  117147      66  117153
  117147      66  117153  117150      67  117162  117159      66  117165  117159
      66  117165  117162      67  117174  117171      66  117177  117171      66
  117177  117174      67  117186  117183      66  117189  117183      66  117189
  117186      67  117198  117195      66  117201  117195      66  117201  117198
      67  117210  117207      66  117213  117207      66  117213  117210      67
  117222  117219      66  117225  117219      66  117225  117222      67  117234
  117231      66  117237  117231      66  117237  117234      67  117246  117243
      66  117249  117243      66  117249  117246      67  117258  117255      66
  117261  117255      66  117261  117258      67  117270  117267      66  117273
  117267      66  117273  117270      67  117282  117279      66  117285  117279
      66  117285  117282      67  117294  117291      66  117297  117291      66
  117297  117294      67  117306  117303      66  117309  117303      66  117309
  117306      67  117318  117315      66  117321  117315      66  117321  117318
      67  117330  117327      66  117333  117327      66  117333  117330      67
  117342  117339      66  117345  117339      66  117345  117342      67  117354
  117351      66  117357  117351      66  117357  117354      67  117366  117363
      66  117369  117363      66  117369  117366      67  117378  117375      66
  117381  117375      66  117381  117378      67  117390  117387      66  117393
  117387      66  117393  117390      67  117402  117399      66  117405  117399
      66  117405  117402      67  117414  117411      66  117417  117411      66
  117417  117414      67  117426  117423      66  117429  117423      66  117429
  117426      67  117438  117435      66  117441  117435      66  117441  117438
      67  117450  117447      66  117453  117447      66  117453  117450      67
  117462  117459      66  117465  117459      66  117465  117462      67  117474
  117471      66  117477  117471      66  117477  117474      67  117486  117483
      66  117489  117483      66  117489  117486      67  117498  117495      66
  117501  117495      66  117501  117498      67  117510  117507      66  117513
  117507      66  117513  117510      67  117522  117519      66  117525  117519
      66  117525  117522      67  117534  117531      66  117537  117531      66
  117537  117534      67  117546  117543      66  117549  117543      66  117549
  117546      67  117558  117555      66  117561  117555      66  117561  117558
      67  117570  117567      66  117573  117567      66  117573  117570      67
  117582  117579      66  117585  117579      66  117585  117582      67  117594
  117591      66  117597  117591      66  117597  117594      67  117606  117603
      66  117609  117603      66  117609  117606      67  117618  117615      66
  117621  117615      66  117621  117618      67  117630  117627      66  117633
  117627      66  117633  117630      67  117642  117639      66  117645  117639
      66  117645  117642      67  117654  117651      66  117657  117651      66
  117657  117654      67  117666  117663      66  117669  117663      66  117669
  117666      67  117678  117675      66  117681  117675      66  117681  117678
      67  117690  117687      66  117693  117687      66  117693  117690      67
  117702  117699      66  117705  117699      66  117705  117702      67  117714
  117711      66  117717  117711      66  117717  117714      67  117726  117723
      66  117729  117723      66  117729  117726      67  117738  117735      66
  117741  117735      66  117741  117738      67  117750  117747      66  117753
  117747      66  117753  117750      67  117762  117759      66  117765  117759
      66  117765  117762      67  117774  117771      66  117777  117771      66
  117777  117774      67  117786  117783      66  117789  117783      66  117789
  117786      67  117798  117795      66  117801  117795      66  117801  117798
      67  117810  117807      66  117813  117807      66  117813  117810      67
  117822  117819      66  117825  117819      66  117825  117822      67  117834
  117831      66  117837  117831      66  117837  117834      67  117846  117843
      66  117849  117843      66  117849  117846      67  117858  117855      66
  117861  117855      66  117861  117858      67  117870  117867      66  117873
  117867      66  117873  117870      67  117882  117879      66  117885  117879
      66  117885  117882      67  117894  117891      66  117897  117891      66
  117897  117894      67  117906  117903      66  117909  117903      66  117909
  117906      67  117918  117915      66  117921  117915      66  117921  117918
      67  117930  117927      66  117933  117927      66  117933  117930      67
  117942  117939      66  117945  117939      66  117945  117942      67  117954
  117951      66  117957  117951      66  117957  117954      67  117966  117963
      66  117969  117963      66  117969  117966      67  117978  117975      66
  117981  117975      66  117981  117978      67  117990  117987      66  117993
  117987      66  117993  117990      67  118002  117999      66  118005  117999
      66  118005  118002      67  118014  118011      66  118017  118011      66
  118017  118014      67  118026  118023      66  118029  118023      66  118029
  118026      67  118038  118035      66  118041  118035      66  118041  118038
      67  118050  118047      66  118053  118047      66  118053  118050      67
  118062  118059      66  118065  118059      66  118065  118062      67  118074
  118071      66  118077  118071      66  118077  118074      67  118086  118083
      66  118089  118083      66  118089  118086      67  118098  118095      66
  118101  118095      66  118101  118098      67  118110  118107      66  118113
  118107      66  118113  118110      67  118122  118119      66  118125  118119
      66  118125  118122      67  118134  118131      66  118137  118131      66
  118137  118134      67  118146  118143      66  118149  118143      66  118149
  118146      67  118158  118155      66  118161  118155      66  118161  118158
      67  118170  118167      66  118173  118167      66  118173  118170      67
  118182  118179      66  118185  118179      66  118185  118182      67  118194
  118191      66  118197  118191      66  118197  118194      67  118206  118203
      66  118209  118203      66  118209  118206      67  118218  118215      66
  118221  118215      66  118221  118218      67  118230  118227      66  118233
  118227      66  118233  118230      67  118242  118239      66  118245  118239
      66  118245  118242      67  118254  118251      66  118257  118251      66
  118257  118254      67  118266  118263      66  118269  118263      66  118269
  118266      67  118278  118275      66  118281  118275      66  118281  118278
      67  118290  118287      66  118293  118287      66  118293  118290      67
  118302  118299      66  118305  118299      66  118305  118302      67  118314
  118311      66  118317  118311      66  118317  118314      67  118326  118323
      66  118329  118323      66  118329  118326      67  118338  118335      66
  118341  118335      66  118341  118338      67  118350  118347      66  118353
  118347      66  118353  118350      67  118362  118359      66  118365  118359
      66  118365  118362      67  118374  118371      66  118377  118371      66
  118377  118374      67  118386  118383      66  118389  118383      66  118389
  118386      67  118398  118395      66  118401  118395      66  118401  118398
      67  118410  118407      66  118413  118407      66  118413  118410      67
  118422  118419      66  118425  118419      66  118425  118422      67  118434
  118431      66  118437  118431      66  118437  118434      67  118446  118443
      66  118449  118443      66  118449  118446      67  118458  118455      66
  118461  118455      66  118461  118458      67  118470  118467      66  118473
  118467      66  118473  118470      67  118482  118479      66  118485  118479
      66  118485  118482      67  118494  118491      66  118497  118491      66
  118497  118494      67  118506  118503      66  118509  118503      66  118509
  118506      67  118518  118515      66  118521  118515      66  118521  118518
      67  118530  118527      66  118533  118527      66  118533  118530      67
  118542  118539      66  118545  118539      66  118545  118542      67  118554
  118551      66  118557  118551      66  118557  118554      67  118566  118563
      66  118569  118563      66  118569  118566      67  118578  118575      66
  118581  118575      66  118581  118578      67  118590  118587      66  118593
  118587      66  118593  118590      67  118602  118599      66  118605  118599
      66  118605  118602      67  118614  118611      66  118617  118611      66
  118617  118614      67  118626  118623      66  118629  118623      66  118629
  118626      67  118638  118635      66  118641  118635      66  118641  118638
      67  118650  118647      66  118653  118647      66  118653  118650      67
  118662  118659      66  118665  118659      66  118665  118662      67  118674
  118671      66  118677  118671      66  118677  118674      67  118686  118683
      66  118689  118683      66  118689  118686      67  118698  118695      66
  118701  118695      66  118701  118698      67  118710  118707      66  118713
  118707      66  118713  118710      67  118722  118719      66  118725  118719
      66  118725  118722      67  118734  118731      66  118737  118731      66
  118737  118734      67  118746  118743      66  118749  118743      66  118749
  118746      67  118758  118755      66  118761  118755      66  118761  118758
      67  118770  118767      66  118773  118767      66  118773  118770      67
  118782  118779      66  118785  118779      66  118785  118782      67  118794
  118791      66  118797  118791      66  118797  118794      67  118806  118803
      66  118809  118803      66  118809  118806      67  118818  118815      66
  118821  118815      66  118821  118818      67  118830  118827      66  118833
  118827      66  118833  118830      67  118842  118839      66  118845  118839
      66  118845  118842      67  118854  118851      66  118857  118851      66
  118857  118854      67  118866  118863      66  118869  118863      66  118869
  118866      67  118878  118875      66  118881  118875      66  118881  118878
      67  118890  118887      66  118893  118887      66  118893  118890      67
  118902  118899      66  118905  118899      66  118905  118902      67  118914
  118911      66  118917  118911      66  118917  118914      67  118926  118923
      66  118929  118923      66  118929  118926      67  118938  118935      66
  118941  118935      66  118941  118938      67  118950  118947      66  118953
  118947      66  118953  118950      67  118962  118959      66  118965  118959
      66  118965  118962      67  118974  118971      66  118977  118971      66
  118977  118974      67  118986  118983      66  118989  118983      66  118989
  118986      67  118998  118995      66  119001  118995      66  119001  118998
      67  119010  119007      66  119013  119007      66  119013  119010      67
  119022  119019      66  119025  119019      66  119025  119022      67  119034
  119031      66  119037  119031      66  119037  119034      67  119046  119043
      66  119049  119043      66  119049  119046      67  119058  119055      66
  119061  119055      66  119061  119058      67  119070  119067      66  119073
  119067      66  119073  119070      67  119082  119079      66  119085  119079
      66  119085  119082      67  119094  119091      66  119097  119091      66
  119097  119094      67  119106  119103      66  119109  119103      66  119109
  119106      67  119118  119115      66  119121  119115      66  119121  119118
      67  119130  119127      66  119133  119127      66  119133  119130      67
  119142  119139      66  119145  119139      66  119145  119142      67  119154
  119151      66  119157  119151      66  119157  119154      67  119166  119163
      66  119169  119163      66  119169  119166      67  119178  119175      66
  119181  119175      66  119181  119178      67  119190  119187      66  119193
  119187      66  119193  119190      67  119202  119199      66  119205  119199
      66  119205  119202      67  119214  119211      66  119217  119211      66
  119217  119214      67  119226  119223      66  119229  119223      66  119229
  119226      67  119238  119235      66  119241  119235      66  119241  119238
      67  119250  119247      66  119253  119247      66  119253  119250      67
  119262  119259      66  119265  119259      66  119265  119262      67  119274
  119271      66  119277  119271      66  119277  119274      67  119286  119283
      66  119289  119283      66  119289  119286      67  119298  119295      66
  119301  119295      66  119301  119298      67  119310  119307      66  119313
  119307      66  119313  119310      67  119322  119319      66  119325  119319
      66  119325  119322      67  119334  119331      66  119337  119331      66
  119337  119334      67  119346  119343      66  119349  119343      66  119349
  119346      67  119358  119355      66  119361  119355      66  119361  119358
      67  119370  119367      66  119373  119367      66  119373  119370      67
  119382  119379      66  119385  119379      66  119385  119382      67  119394
  119391      66  119397  119391      66  119397  119394      67  119406  119403
      66  119409  119403      66  119409  119406      67  119418  119415      66
  119421  119415      66  119421  119418      67  119430  119427      66  119433
  119427      66  119433  119430      67  119442  119439      66  119445  119439
      66  119445  119442      67  119454  119451      66  119457  119451      66
  119457  119454      67  119466  119463      66  119469  119463      66  119469
  119466      67  119478  119475      66  119481  119475      66  119481  119478
      67  119490  119487      66  119493  119487      66  119493  119490      67
  119502  119499      66  119505  119499      66  119505  119502      67  119514
  119511      66  119517  119511      66  119517  119514      67  119526  119523
      66  119529  119523      66  119529  119526      67  119538  119535      66
  119541  119535      66  119541  119538      67  119550  119547      66  119553
  119547      66  119553  119550      67  119562  119559      66  119565  119559
      66  119565  119562      67  119574  119571      66  119577  119571      66
  119577  119574      67  119586  119583      66  119589  119583      66  119589
  119586      67  119598  119595      66  119601  119595      66  119601  119598
      67  119610  119607      66  119613  119607      66  119613  119610      67
  119622  119619      66  119625  119619      66  119625  119622      67  119634
  119631      66  119637  119631      66  119637  119634      67  119646  119643
      66  119649  119643      66  119649  119646      67  119658  119655      66
  119661  119655      66  119661  119658      67  119670  119667      66  119673
  119667      66  119673  119670      67  119682  119679      66  119685  119679
      66  119685  119682      67  119694  119691      66  119697  119691      66
  119697  119694      67  119706  119703      66  119709  119703      66  119709
  119706      67  119718  119715      66  119721  119715      66  119721  119718
      67  119730  119727      66  119733  119727      66  119733  119730      67
  119742  119739      66  119745  119739      66  119745  119742      67  119754
  119751      66  119757  119751      66  119757  119754      67  119766  119763
      66  119769  119763      66  119769  119766      67  119778  119775      66
  119781  119775      66  119781  119778      67  119790  119787      66  119793
  119787      66  119793  119790      67  119802  119799      66  119805  119799
      66  119805  119802      67  119814  119811      66  119817  119811      66
  119817  119814      67  119826  119823      66  119829  119823      66  119829
  119826      67  119838  119835      66  119841  119835      66  119841  119838
      67  119850  119847      66  119853  119847      66  119853  119850      67
  119862  119859      66  119865  119859      66  119865  119862      67  119874
  119871      66  119877  119871      66  119877  119874      67  119886  119883
      66  119889  119883      66  119889  119886      67  119898  119895      66
  119901  119895      66  119901  119898      67  119910  119907      66  119913
  119907      66  119913  119910      67  119922  119919      66  119925  119919
      66  119925  119922      67  119934  119931      66  119937  119931      66
  119937  119934      67  119946  119943      66  119949  119943      66  119949
  119946      67  119958  119955      66  119961  119955      66  119961  119958
      67  119970  119967      66  119973  119967      66  119973  119970      67
  119982  119979      66  119985  119979      66  119985  119982      67  119994
  119991      66  119997  119991      66  119997  119994      67  120006  120003
      66  120009  120003      66  120009  120006      67  120018  120015      66
  120021  120015      66  120021  120018      67  120030  120027      66  120033
  120027      66  120033  120030      67  120042  120039      66  120045  120039
      66  120045  120042      67  120054  120051      66  120057  120051      66
  120057  120054      67  120066  120063      66  120069  120063      66  120069
  120066      67  120078  120075      66  120081  120075      66  120081  120078
      67  120090  120087      66  120093  120087      66  120093  120090      67
  120102  120099      66  120105  120099      66  120105  120102      67  120114
  120111      66  120117  120111      66  120117  120114      67  120126  120123
      66  120129  120123      66  120129  120126      67  120138  120135      66
  120141  120135      66  120141  120138      67  120150  120147      66  120153
  120147      66  120153  120150      67  120162  120159      66  120165  120159
      66  120165  120162      67  120174  120171      66  120177  120171      66
  120177  120174      67  120186  120183      66  120189  120183      66  120189
  120186      67  120198  120195      66  120201  120195      66  120201  120198
      67  120210  120207      66  120213  120207      66  120213  120210      67
  120222  120219      66  120225  120219      66  120225  120222      67  120234
  120231      66  120237  120231      66  120237  120234      67  120246  120243
      66  120249  120243      66  120249  120246      67  120258  120255      66
  120261  120255      66  120261  120258      67  120270  120267      66  120273
  120267      66  120273  120270      67  120282  120279      66  120285  120279
      66  120285  120282      67  120294  120291      66  120297  120291      66
  120297  120294      67  120306  120303      66  120309  120303      66  120309
  120306      67  120318  120315      66  120321  120315      66  120321  120318
      67  120330  120327      66  120333  120327      66  120333  120330      67
  120342  120339      66  120345  120339      66  120345  120342      67  120354
  120351      66  120357  120351      66  120357  120354      67  120366  120363
      66  120369  120363      66  120369  120366      67  120378  120375      66
  120381  120375      66  120381  120378      67  120390  120387      66  120393
  120387      66  120393  120390      67  120402  120399      66  120405  120399
      66  120405  120402      67  120414  120411      66  120417  120411      66
  120417  120414      67  120426  120423      66  120429  120423      66  120429
  120426      67  120438  120435      66  120441  120435      66  120441  120438
      67  120450  120447      66  120453  120447      66  120453  120450      67
  120462  120459      66  120465  120459      66  120465  120462      67  120474
  120471      66  120477  120471      66  120477  120474      67  120486  120483
      66  120489  120483      66  120489  120486      67  120498  120495      66
  120501  120495      66  120501  120498      67  120510  120507      66  120513
  120507      66  120513  120510      67  120522  120519      66  120525  120519
      66  120525  120522      67  120534  120531      66  120537  120531      66
  120537  120534      67  120546  120543      66  120549  120543      66  120549
  120546      67  120558  120555      66  120561  120555      66  120561  120558
      67  120570  120567      66  120573  120567      66  120573  120570      67
  120582  120579      66  120585  120579      66  120585  120582      67  120594
  120591      66  120597  120591      66  120597  120594      67  120606  120603
      66  120609  120603      66  120609  120606      67  120618  120615      66
  120621  120615      66  120621  120618      67  120630  120627      66  120633
  120627      66  120633  120630      67  120642  120639      66  120645  120639
      66  120645  120642      67  120654  120651      66  120657  120651      66
  120657  120654      67  120666  120663      66  120669  120663      66  120669
  120666      67  120678  120675      66  120681  120675      66  120681  120678
      67  120690  120687      66  120693  120687      66  120693  120690      67
  120702  120699      66  120705  120699      66  120705  120702      67  120714
  120711      66  120717  120711      66  120717  120714      67  120726  120723
      66  120729  120723      66  120729  120726      67  120738  120735      66
  120741  120735      66  120741  120738      67  120750  120747      66  120753
  120747      66  120753  120750      67  120762  120759      66  120765  120759
      66  120765  120762      67  120774  120771      66  120777  120771      66
  120777  120774      67  120786  120783      66  120789  120783      66  120789
  120786      67  120798  120795      66  120801  120795      66  120801  120798
      67  120810  120807      66  120813  120807      66  120813  120810      67
  120822  120819      66  120825  120819      66  120825  120822      67  120834
  120831      66  120837  120831      66  120837  120834      67  120846  120843
      66  120849  120843      66  120849  120846      67  120858  120855      66
  120861  120855      66  120861  120858      67  120870  120867      66  120873
  120867      66  120873  120870      67  120882  120879      66  120885  120879
      66  120885  120882      67  120894  120891      66  120897  120891      66
  120897  120894      67  120906  120903      66  120909  120903      66  120909
  120906      67  120918  120915      66  120921  120915      66  120921  120918
      67  120930  120927      66  120933  120927      66  120933  120930      67
  120942  120939      66  120945  120939      66  120945  120942      67  120954
  120951      66  120957  120951      66  120957  120954      67  120966  120963
      66  120969  120963      66  120969  120966      67  120978  120975      66
  120981  120975      66  120981  120978      67  120990  120987      66  120993
  120987      66  120993  120990      67  121002  120999      66  121005  120999
      66  121005  121002      67  121014  121011      66  121017  121011      66
  121017  121014      67  121026  121023      66  121029  121023      66  121029
  121026      67  121038  121035      66  121041  121035      66  121041  121038
      67  121050  121047      66  121053  121047      66  121053  121050      67
  121062  121059      66  121065  121059      66  121065  121062      67  121074
  121071      66  121077  121071      66  121077  121074      67  121086  121083
      66  121089  121083      66  121089  121086      67  121098  121095      66
  121101  121095      66  121101  121098      67  121110  121107      66  121113
  121107      66  121113  121110      67  121122  121119      66  121125  121119
      66  121125  121122      67  121134  121131      66  121137  121131      66
  121137  121134      67  121146  121143      66  121149  121143      66  121149
  121146      67  121158  121155      66  121161  121155      66  121161  121158
      67  121170  121167      66  121173  121167      66  121173  121170      67
  121182  121179      66  121185  121179      66  121185  121182      67  121194
  121191      66  121197  121191      66  121197  121194      67  121206  121203
      66  121209  121203      66  121209  121206      67  121218  121215      66
  121221  121215      66  121221  121218      67  121230  121227      66  121233
  121227      66  121233  121230      67  121242  121239      66  121245  121239
      66  121245  121242      67  121254  121251      66  121257  121251      66
  121257  121254      67  121266  121263      66  121269  121263      66  121269
  121266      67  121278  121275      66  121281  121275      66  121281  121278
      67  121290  121287      66  121293  121287      66  121293  121290      67
  121302  121299      66  121305  121299      66  121305  121302      67  121314
  121311      66  121317  121311      66  121317  121314      67  121326  121323
      66  121329  121323      66  121329  121326      67  121338  121335      66
  121341  121335      66  121341  121338      67  121350  121347      66  121353
  121347      66  121353  121350      67  121362  121359      66  121365  121359
      66  121365  121362      67  121374  121371      66  121377  121371      66
  121377  121374      67  121386  121383      66  121389  121383      66  121389
  121386      67  121398  121395      66  121401  121395      66  121401  121398
      67  121410  121407      66  121413  121407      66  121413  121410      67
  121422  121419      66  121425  121419      66  121425  121422      67  121434
  121431      66  121437  121431      66  121437  121434      67  121446  121443
      66  121449  121443      66  121449  121446      67  121458  121455      66
  121461  121455      66  121461  121458      67  121470  121467      66  121473
  121467      66  121473  121470      67  121482  121479      66  121485  121479
      66  121485  121482      67  121494  121491      66  121497  121491      66
  121497  121494      67  121506  121503      66  121509  121503      66  121509
  121506      67  121518  121515      66  121521  121515      66  121521  121518
      67  121530  121527      66  121533  121527      66  121533  121530      67
  121542  121539      66  121545  121539      66  121545  121542      67  121554
  121551      66  121557  121551      66  121557  121554      67  121566  121563
      66  121569  121563      66  121569  121566      67  121578  121575      66
  121581  121575      66  121581  121578      67  121590  121587      66  121593
  121587      66  121593  121590      67  121602  121599      66  121605  121599
      66  121605  121602      67  121614  121611      66  121617  121611      66
  121617  121614      67  121626  121623      66  121629  121623      66  121629
  121626      67  121638  121635      66  121641  121635      66  121641  121638
      67  121650  121647      66  121653  121647      66  121653  121650      67
  121662  121659      66  121665  121659      66  121665  121662      67  121674
  121671      66  121677  121671      66  121677  121674      67  121686  121683
      66  121689  121683      66  121689  121686      67  121698  121695      66
  121701  121695      66  121701  121698      67  121710  121707      66  121713
  121707      66  121713  121710      67  121722  121719      66  121725  121719
      66  121725  121722      67  121734  121731      66  121737  121731      66
  121737  121734      67  121746  121743      66  121749  121743      66  121749
  121746      67  121758  121755      66  121761  121755      66  121761  121758
      67  121770  121767      66  121773  121767      66  121773  121770      67
  121782  121779      66  121785  121779      66  121785  121782      67  121794
  121791      66  121797  121791      66  121797  121794      67  121806  121803
      66  121809  121803      66  121809  121806      67  121818  121815      66
  121821  121815      66  121821  121818      67  121830  121827      66  121833
  121827      66  121833  121830      67  121842  121839      66  121845  121839
      66  121845  121842      67  121854  121851      66  121857  121851      66
  121857  121854      67  121866  121863      66  121869  121863      66  121869
  121866      67  121878  121875      66  121881  121875      66  121881  121878
      67  121890  121887      66  121893  121887      66  121893  121890      67
  121902  121899      66  121905  121899      66  121905  121902      67  121914
  121911      66  121917  121911      66  121917  121914      67  121926  121923
      66  121929  121923      66  121929  121926      67  121938  121935      66
  121941  121935      66  121941  121938      67  121950  121947      66  121953
  121947      66  121953  121950      67  121962  121959      66  121965  121959
      66  121965  121962      67  121974  121971      66  121977  121971      66
  121977  121974      67  121986  121983      66  121989  121983      66  121989
  121986      67  121998  121995      66  122001  121995      66  122001  121998
      67  122010  122007      66  122013  122007      66  122013  122010      67
  122022  122019      66  122025  122019      66  122025  122022      67  122034
  122031      66  122037  122031      66  122037  122034      67  122046  122043
      66  122049  122043      66  122049  122046      67  122058  122055      66
  122061  122055      66  122061  122058      67  122070  122067      66  122073
  122067      66  122073  122070      67  122082  122079      66  122085  122079
      66  122085  122082      67  122094  122091      66  122097  122091      66
  122097  122094      67  122106  122103      66  122109  122103      66  122109
  122106      67  122118  122115      66  122121  122115      66  122121  122118
      67  122130  122127      66  122133  122127      66  122133  122130      67
  122142  122139      66  122145  122139      66  122145  122142      67  122154
  122151      66  122157  122151      66  122157  122154      67  122166  122163
      66  122169  122163      66  122169  122166      67  122178  122175      66
  122181  122175      66  122181  122178      67  122190  122187      66  122193
  122187      66  122193  122190      67  122202  122199      66  122205  122199
      66  122205  122202      67  122214  122211      66  122217  122211      66
  122217  122214      67  122226  122223      66  122229  122223      66  122229
  122226      67  122238  122235      66  122241  122235      66  122241  122238
      67  122250  122247      66  122253  122247      66  122253  122250      67
  122262  122259      66  122265  122259      66  122265  122262      67  122274
  122271      66  122277  122271      66  122277  122274      67  122286  122283
      66  122289  122283      66  122289  122286      67  122298  122295      66
  122301  122295      66  122301  122298      67  122310  122307      66  122313
  122307      66  122313  122310      67  122322  122319      66  122325  122319
      66  122325  122322      67  122334  122331      66  122337  122331      66
  122337  122334      67  122346  122343      66  122349  122343      66  122349
  122346      67  122358  122355      66  122361  122355      66  122361  122358
      67  122370  122367      66  122373  122367      66  122373  122370      67
  122382  122379      66  122385  122379      66  122385  122382      67  122394
  122391      66  122397  122391      66  122397  122394      67  122406  122403
      66  122409  122403      66  122409  122406      67  122418  122415      66
  122421  122415      66  122421  122418      67  122430  122427      66  122433
  122427      66  122433  122430      67  122442  122439      66  122445  122439
      66  122445  122442      67  122454  122451      66  122457  122451      66
  122457  122454      67  122466  122463      66  122469  122463      66  122469
  122466      67  122478  122475      66  122481  122475      66  122481  122478
      67  122490  122487      66  122493  122487      66  122493  122490      67
  122502  122499      66  122505  122499      66  122505  122502      67  122514
  122511      66  122517  122511      66  122517  122514      67  122526  122523
      66  122529  122523      66  122529  122526      67  122538  122535      66
  122541  122535      66  122541  122538      67  122550  122547      66  122553
  122547      66  122553  122550      67  122562  122559      66  122565  122559
      66  122565  122562      67  122574  122571      66  122577  122571      66
  122577  122574      67  122586  122583      66  122589  122583      66  122589
  122586      67  122598  122595      66  122601  122595      66  122601  122598
      67  122610  122607      66  122613  122607      66  122613  122610      67
  122622  122619      66  122625  122619      66  122625  122622      67  122634
  122631      66  122637  122631      66  122637  122634      67  122646  122643
      66  122649  122643      66  122649  122646      67  122658  122655      66
  122661  122655      66  122661  122658      67  122670  122667      66  122673
  122667      66  122673  122670      67  122682  122679      66  122685  122679
      66  122685  122682      67  122694  122691      66  122697  122691      66
  122697  122694      67  122706  122703      66  122709  122703      66  122709
  122706      67  122718  122715      66  122721  122715      66  122721  122718
      67  122730  122727      66  122733  122727      66  122733  122730      67
  122742  122739      66  122745  122739      66  122745  122742      67  122754
  122751      66  122757  122751      66  122757  122754      67  122766  122763
      66  122769  122763      66  122769  122766      67  122778  122775      66
  122781  122775      66  122781  122778      67  122790  122787      66  122793
  122787      66  122793  122790      67  122802  122799      66  122805  122799
      66  122805  122802      67  122814  122811      66  122817  122811      66
  122817  122814      67  122826  122823      66  122829  122823      66  122829
  122826      67  122838  122835      66  122841  122835      66  122841  122838
      67  122850  122847      66  122853  122847      66  122853  122850      67
  122862  122859      66  122865  122859      66  122865  122862      67  122874
  122871      66  122877  122871      66  122877  122874      67  122886  122883
      66  122889  122883      66  122889  122886      67  122898  122895      66
  122901  122895      66  122901  122898      67  122910  122907      66  122913
  122907      66  122913  122910      67  122922  122919      66  122925  122919
      66  122925  122922      67  122934  122931      66  122937  122931      66
  122937  122934      67  122946  122943      66  122949  122943      66  122949
  122946      67  122958  122955      66  122961  122955      66  122961  122958
      67  122970  122967      66  122973  122967      66  122973  122970      67
  122982  122979      66  122985  122979      66  122985  122982      67  122994
  122991      66  122997  122991      66  122997  122994      67  123006  123003
      66  123009  123003      66  123009  123006      67  123018  123015      66
  123021  123015      66  123021  123018      67  123030  123027      66  123033
  123027      66  123033  123030      67  123042  123039      66  123045  123039
      66  123045  123042      67  123054  123051      66  123057  123051      66
  123057  123054      67  123066  123063      66  123069  123063      66  123069
  123066      67  123078  123075      66  123081  123075      66  123081  123078
      67  123090  123087      66  123093  123087      66  123093  123090      67
  123102  123099      66  123105  123099      66  123105  123102      67  123114
  123111      66  123117  123111      66  123117  123114      67  123126  123123
      66  123129  123123      66  123129  123126      67  123138  123135      66
  123141  123135      66  123141  123138      67  123150  123147      66  123153
  123147      66  123153  123150      67  123162  123159      66  123165  123159
      66  123165  123162      67  123174  123171      66  123177  123171      66
  123177  123174      67  123186  123183      66  123189  123183      66  123189
  123186      67  123198  123195      66  123201  123195      66  123201  123198
      67  123210  123207      66  123213  123207      66  123213  123210      67
  123222  123219      66  123225  123219      66  123225  123222      67  123234
  123231      66  123237  123231      66  123237  123234      67  123246  123243
      66  123249  123243      66  123249  123246      67  123258  123255      66
  123261  123255      66  123261  123258      67  123270  123267      66  123273
  123267      66  123273  123270      67  123282  123279      66  123285  123279
      66  123285  123282      67  123294  123291      66  123297  123291      66
  123297  123294      67  123306  123303      66  123309  123303      66  123309
  123306      67  123318  123315      66  123321  123315      66  123321  123318
      67  123330  123327      66  123333  123327      66  123333  123330      67
  123342  123339      66  123345  123339      66  123345  123342      67  123354
  123351      66  123357  123351      66  123357  123354      67  123366  123363
      66  123369  123363      66  123369  123366      67  123378  123375      66
  123381  123375      66  123381  123378      67  123390  123387      66  123393
  123387      66  123393  123390      67  123402  123399      66  123405  123399
      66  123405  123402      67  123414  123411      66  123417  123411      66
  123417  123414      67  123426  123423      66  123429  123423      66  123429
  123426      67  123438  123435      66  123441  123435      66  123441  123438
      67  123450  123447      66  123453  123447      66  123453  123450      67
  123462  123459      66  123465  123459      66  123465  123462      67  123474
  123471      66  123477  123471      66  123477  123474      67  123486  123483
      66  123489  123483      66  123489  123486      67  123498  123495      66
  123501  123495      66  123501  123498      67  123510  123507      66  123513
  123507      66  123513  123510      67  123522  123519      66  123525  123519
      66  123525  123522      67  123534  123531      66  123537  123531      66
  123537  123534      67  123546  123543      66  123549  123543      66  123549
  123546      67  123558  123555      66  123561  123555      66  123561  123558
      67  123570  123567      66  123573  123567      66  123573  123570      67
  123582  123579      66  123585  123579      66  123585  123582      67  123594
  123591      66  123597  123591      66  123597  123594      67  123606  123603
      66  123609  123603      66  123609  123606      67  123618  123615      66
  123621  123615      66  123621  123618      67  123630  123627      66  123633
  123627      66  123633  123630      67  123642  123639      66  123645  123639
      66  123645  123642      67  123654  123651      66  123657  123651      66
  123657  123654      67  123666  123663      66  123669  123663      66  123669
  123666      67  123678  123675      66  123681  123675      66  123681  123678
      67  123690  123687      66  123693  123687      66  123693  123690      67
  123702  123699      66  123705  123699      66  123705  123702      67  123714
  123711      66  123717  123711      66  123717  123714      67  123726  123723
      66  123729  123723      66  123729  123726      67  123738  123735      66
  123741  123735      66  123741  123738      67  123750  123747      66  123753
  123747      66  123753  123750      67  123762  123759      66  123765  123759
      66  123765  123762      67  123774  123771      66  123777  123771      66
  123777  123774      67  123786  123783      66  123789  123783      66  123789
  123786      67  123798  123795      66  123801  123795      66  123801  123798
      67  123810  123807      66  123813  123807      66  123813  123810      67
  123822  123819      66  123825  123819      66  123825  123822      67  123834
  123831      66  123837  123831      66  123837  123834      67  123846  123843
      66  123849  123843      66  123849  123846      67  123858  123855      66
  123861  123855      66  123861  123858      67  123870  123867      66  123873
  123867      66  123873  123870      67  123882  123879      66  123885  123879
      66  123885  123882      67  123894  123891      66  123897  123891      66
  123897  123894      67  123906  123903      66  123909  123903      66  123909
  123906      67  123918  123915      66  123921  123915      66  123921  123918
      67  123930  123927      66  123933  123927      66  123933  123930      67
  123942  123939      66  123945  123939      66  123945  123942      67  123954
  123951      66  123957  123951      66  123957  123954      67  123966  123963
      66  123969  123963      66  123969  123966      67  123978  123975      66
  123981  123975      66  123981  123978      67  123990  123987      66  123993
  123987      66  123993  123990      67  124002  123999      66  124005  123999
      66  124005  124002      67  124014  124011      66  124017  124011      66
  124017  124014      67  124026  124023      66  124029  124023      66  124029
  124026      67  124038  124035      66  124041  124035      66  124041  124038
      67  124050  124047      66  124053  124047      66  124053  124050      67
  124062  124059      66  124065  124059      66  124065  124062      67  124074
  124071      66  124077  124071      66  124077  124074      67  124086  124083
      66  124089  124083      66  124089  124086      67  124098  124095      66
  124101  124095      66  124101  124098      67  124110  124107      66  124113
  124107      66  124113  124110      67  124122  124119      66  124125  124119
      66  124125  124122      67  124134  124131      66  124137  124131      66
  124137  124134      67  124146  124143      66  124149  124143      66  124149
  124146      67  124158  124155      66  124161  124155      66  124161  124158
      67  124170  124167      66  124173  124167      66  124173  124170      67
  124182  124179      66  124185  124179      66  124185  124182      67  124194
  124191      66  124197  124191      66  124197  124194      67  124206  124203
      66  124209  124203      66  124209  124206      67  124218  124215      66
  124221  124215      66  124221  124218      67  124230  124227      66  124233
  124227      66  124233  124230      67  124242  124239      66  124245  124239
      66  124245  124242      67  124254  124251      66  124257  124251      66
  124257  124254      67  124266  124263      66  124269  124263      66  124269
  124266      67  124278  124275      66  124281  124275      66  124281  124278
      67  124290  124287      66  124293  124287      66  124293  124290      67
  124302  124299      66  124305  124299      66  124305  124302      67  124314
  124311      66  124317  124311      66  124317  124314      67  124326  124323
      66  124329  124323      66  124329  124326      67  124338  124335      66
  124341  124335      66  124341  124338      67  124350  124347      66  124353
  124347      66  124353  124350      67  124362  124359      66  124365  124359
      66  124365  124362      67  124374  124371      66  124377  124371      66
  124377  124374      67  124386  124383      66  124389  124383      66  124389
  124386      67  124398  124395      66  124401  124395      66  124401  124398
      67  124410  124407      66  124413  124407      66  124413  124410      67
  124422  124419      66  124425  124419      66  124425  124422      67  124434
  124431      66  124437  124431      66  124437  124434      67  124446  124443
      66  124449  124443      66  124449  124446      67  124458  124455      66
  124461  124455      66  124461  124458      67  124470  124467      66  124473
  124467      66  124473  124470      67  124482  124479      66  124485  124479
      66  124485  124482      67  124494  124491      66  124497  124491      66
  124497  124494      67  124506  124503      66  124509  124503      66  124509
  124506      67  124518  124515      66  124521  124515      66  124521  124518
      67  124530  124527      66  124533  124527      66  124533  124530      67
  124542  124539      66  124545  124539      66  124545  124542      67  124554
  124551      66  124557  124551      66  124557  124554      67  124566  124563
      66  124569  124563      66  124569  124566      67  124578  124575      66
  124581  124575      66  124581  124578      67  124590  124587      66  124593
  124587      66  124593  124590      67  124602  124599      66  124605  124599
      66  124605  124602      67  124614  124611      66  124617  124611      66
  124617  124614      67  124626  124623      66  124629  124623      66  124629
  124626      67  124638  124635      66  124641  124635      66  124641  124638
      67  124650  124647      66  124653  124647      66  124653  124650      67
  124662  124659      66  124665  124659      66  124665  124662      67  124674
  124671      66  124677  124671      66  124677  124674      67  124686  124683
      66  124689  124683      66  124689  124686      67  124698  124695      66
  124701  124695      66  124701  124698      67  124710  124707      66  124713
  124707      66  124713  124710      67  124722  124719      66  124725  124719
      66  124725  124722      67  124734  124731      66  124737  124731      66
  124737  124734      67  124746  124743      66  124749  124743      66  124749
  124746      67  124758  124755      66  124761  124755      66  124761  124758
      67  124770  124767      66  124773  124767      66  124773  124770      67
  124782  124779      66  124785  124779      66  124785  124782      67  124794
  124791      66  124797  124791      66  124797  124794      67  124806  124803
      66  124809  124803      66  124809  124806      67  124818  124815      66
  124821  124815      66  124821  124818      67  124830  124827      66  124833
  124827      66  124833  124830      67  124842  124839      66  124845  124839
      66  124845  124842      67  124854  124851      66  124857  124851      66
  124857  124854      67  124866  124863      66  124869  124863      66  124869
  124866      67  124878  124875      66  124881  124875      66  124881  124878
      67  124890  124887      66  124893  124887      66  124893  124890      67
  124902  124899      66  124905  124899      66  124905  124902      67  124914
  124911      66  124917  124911      66  124917  124914      67  124926  124923
      66  124929  124923      66  124929  124926      67  124938  124935      66
  124941  124935      66  124941  124938      67  124950  124947      66  124953
  124947      66  124953  124950      67  124962  124959      66  124965  124959
      66  124965  124962      67  124974  124971      66  124977  124971      66
  124977  124974      67  124986  124983      66  124989  124983      66  124989
  124986      67  124998  124995      66  125001  124995      66  125001  124998
      67  125010  125007      66  125013  125007      66  125013  125010      67
  125022  125019      66  125025  125019      66  125025  125022      67  125034
  125031      66  125037  125031      66  125037  125034      67  125046  125043
      66  125049  125043      66  125049  125046      67  125058  125055      66
  125061  125055      66  125061  125058      67  125070  125067      66  125073
  125067      66  125073  125070      67  125082  125079      66  125085  125079
      66  125085  125082      67  125094  125091      66  125097  125091      66
  125097  125094      67  125106  125103      66  125109  125103      66  125109
  125106      67  125118  125115      66  125121  125115      66  125121  125118
      67  125130  125127      66  125133  125127      66  125133  125130      67
  125142  125139      66  125145  125139      66  125145  125142      67  125154
  125151      66  125157  125151      66  125157  125154      67  125166  125163
      66  125169  125163      66  125169  125166      67  125178  125175      66
  125181  125175      66  125181  125178      67  125190  125187      66  125193
  125187      66  125193  125190      67  125202  125199      66  125205  125199
      66  125205  125202      67  125214  125211      66  125217  125211      66
  125217  125214      67  125226  125223      66  125229  125223      66  125229
  125226      67  125238  125235      66  125241  125235      66  125241  125238
      67  125250  125247      66  125253  125247      66  125253  125250      67
  125262  125259      66  125265  125259      66  125265  125262      67  125274
  125271      66  125277  125271      66  125277  125274      67  125286  125283
      66  125289  125283      66  125289  125286      67  125298  125295      66
  125301  125295      66  125301  125298      67  125310  125307      66  125313
  125307      66  125313  125310      67  125322  125319      66  125325  125319
      66  125325  125322      67  125334  125331      66  125337  125331      66
  125337  125334      67  125346  125343      66  125349  125343      66  125349
  125346      67  125358  125355      66  125361  125355      66  125361  125358
      67  125370  125367      66  125373  125367      66  125373  125370      67
  125382  125379      66  125385  125379      66  125385  125382      67  125394
  125391      66  125397  125391      66  125397  125394      67  125406  125403
      66  125409  125403      66  125409  125406      67  125418  125415      66
  125421  125415      66  125421  125418      67  125430  125427      66  125433
  125427      66  125433  125430      67  125442  125439      66  125445  125439
      66  125445  125442      67  125454  125451      66  125457  125451      66
  125457  125454      67  125466  125463      66  125469  125463      66  125469
  125466      67  125478  125475      66  125481  125475      66  125481  125478
      67  125490  125487      66  125493  125487      66  125493  125490      67
  125502  125499      66  125505  125499      66  125505  125502      67  125514
  125511      66  125517  125511      66  125517  125514      67  125526  125523
      66  125529  125523      66  125529  125526      67  125538  125535      66
  125541  125535      66  125541  125538      67  125550  125547      66  125553
  125547      66  125553  125550      67  125562  125559      66  125565  125559
      66  125565  125562      67  125574  125571      66  125577  125571      66
  125577  125574      67  125586  125583      66  125589  125583      66  125589
  125586      67  125598  125595      66  125601  125595      66  125601  125598
      67  125610  125607      66  125613  125607      66  125613  125610      67
  125622  125619      66  125625  125619      66  125625  125622      67  125634
  125631      66  125637  125631      66  125637  125634      67  125646  125643
      66  125649  125643      66  125649  125646      67  125658  125655      66
  125661  125655      66  125661  125658      67  125670  125667      66  125673
  125667      66  125673  125670      67  125682  125679      66  125685  125679
      66  125685  125682      67  125694  125691      66  125697  125691      66
  125697  125694      67  125706  125703      66  125709  125703      66  125709
  125706      67  125718  125715      66  125721  125715      66  125721  125718
      67  125730  125727      66  125733  125727      66  125733  125730      67
  125742  125739      66  125745  125739      66  125745  125742      67  125754
  125751      66  125757  125751      66  125757  125754      67  125766  125763
      66  125769  125763      66  125769  125766      67  125778  125775      66
  125781  125775      66  125781  125778      67  125790  125787      66  125793
  125787      66  125793  125790      67  125802  125799      66  125805  125799
      66  125805  125802      67  125814  125811      66  125817  125811      66
  125817  125814      67  125826  125823      66  125829  125823      66  125829
  125826      67  125838  125835      66  125841  125835      66  125841  125838
      67  125850  125847      66  125853  125847      66  125853  125850      67
  125862  125859      66  125865  125859      66  125865  125862      67  125874
  125871      66  125877  125871      66  125877  125874      67  125886  125883
      66  125889  125883      66  125889  125886      67  125898  125895      66
  125901  125895      66  125901  125898      67  125910  125907      66  125913
  125907      66  125913  125910      67  125922  125919      66  125925  125919
      66  125925  125922      67  125934  125931      66  125937  125931      66
  125937  125934      67  125946  125943      66  125949  125943      66  125949
  125946      67  125958  125955      66  125961  125955      66  125961  125958
      67  125970  125967      66  125973  125967      66  125973  125970      67
  125982  125979      66  125985  125979      66  125985  125982      67  125994
  125991      66  125997  125991      66  125997  125994      67  126006  126003
      66  126009  126003      66  126009  126006      67  126018  126015      66
  126021  126015      66  126021  126018      67  126030  126027      66  126033
  126027      66  126033  126030      67  126042  126039      66  126045  126039
      66  126045  126042      67  126054  126051      66  126057  126051      66
  126057  126054      67  126066  126063      66  126069  126063      66  126069
  126066      67  126078  126075      66  126081  126075      66  126081  126078
      67  126090  126087      66  126093  126087      66  126093  126090      67
  126102  126099      66  126105  126099      66  126105  126102      67  126114
  126111      66  126117  126111      66  126117  126114      67  126126  126123
      66  126129  126123      66  126129  126126      67  126138  126135      66
  126141  126135      66  126141  126138      67  126150  126147      66  126153
  126147      66  126153  126150      67  126162  126159      66  126165  126159
      66  126165  126162      67  126174  126171      66  126177  126171      66
  126177  126174      67  126186  126183      66  126189  126183      66  126189
  126186      67  126198  126195      66  126201  126195      66  126201  126198
      67  126210  126207      66  126213  126207      66  126213  126210      67
  126222  126219      66  126225  126219      66  126225  126222      67  126234
  126231      66  126237  126231      66  126237  126234      67  126246  126243
      66  126249  126243      66  126249  126246      67  126258  126255      66
  126261  126255      66  126261  126258      67  126270  126267      66  126273
  126267      66  126273  126270      67  126282  126279      66  126285  126279
      66  126285  126282      67  126294  126291      66  126297  126291      66
  126297  126294      67  126306  126303      66  126309  126303      66  126309
  126306      67  126318  126315      66  126321  126315      66  126321  126318
      67  126330  126327      66  126333  126327      66  126333  126330      67
  126342  126339      66  126345  126339      66  126345  126342      67  126354
  126351      66  126357  126351      66  126357  126354      67  126366  126363
      66  126369  126363      66  126369  126366      67  126378  126375      66
  126381  126375      66  126381  126378      67  126390  126387      66  126393
  126387      66  126393  126390      67  126402  126399      66  126405  126399
      66  126405  126402      67  126414  126411      66  126417  126411      66
  126417  126414      67  126426  126423      66  126429  126423      66  126429
  126426      67  126438  126435      66  126441  126435      66  126441  126438
      67  126450  126447      66  126453  126447      66  126453  126450      67
  126462  126459      66  126465  126459      66  126465  126462      67  126474
  126471      66  126477  126471      66  126477  126474      67  126486  126483
      66  126489  126483      66  126489  126486      67  126498  126495      66
  126501  126495      66  126501  126498      67  126510  126507      66  126513
  126507      66  126513  126510      67  126522  126519      66  126525  126519
      66  126525  126522      67  126534  126531      66  126537  126531      66
  126537  126534      67  126546  126543      66  126549  126543      66  126549
  126546      67  126558  126555      66  126561  126555      66  126561  126558
      67  126570  126567      66  126573  126567      66  126573  126570      67
  126582  126579      66  126585  126579      66  126585  126582      67  126594
  126591      66  126597  126591      66  126597  126594      67  126606  126603
      66  126609  126603      66  126609  126606      67  126618  126615      66
  126621  126615      66  126621  126618      67  126630  126627      66  126633
  126627      66  126633  126630      67  126642  126639      66  126645  126639
      66  126645  126642      67  126654  126651      66  126657  126651      66
  126657  126654      67  126666  126663      66  126669  126663      66  126669
  126666      67  126678  126675      66  126681  126675      66  126681  126678
      67  126690  126687      66  126693  126687      66  126693  126690      67
  126702  126699      66  126705  126699      66  126705  126702      67  126714
  126711      66  126717  126711      66  126717  126714      67  126726  126723
      66  126729  126723      66  126729  126726      67  126738  126735      66
  126741  126735      66  126741  126738      67  126750  126747      66  126753
  126747      66  126753  126750      67  126762  126759      66  126765  126759
      66  126765  126762      67  126774  126771      66  126777  126771      66
  126777  126774      67  126786  126783      66  126789  126783      66  126789
  126786      67  126798  126795      66  126801  126795      66  126801  126798
      67  126810  126807      66  126813  126807      66  126813  126810      67
  126822  126819      66  126825  126819      66  126825  126822      67  126834
  126831      66  126837  126831      66  126837  126834      67  126846  126843
      66  126849  126843      66  126849  126846      67  126858  126855      66
  126861  126855      66  126861  126858      67  126870  126867      66  126873
  126867      66  126873  126870      67  126882  126879      66  126885  126879
      66  126885  126882      67  126894  126891      66  126897  126891      66
  126897  126894      67  126906  126903      66  126909  126903      66  126909
  126906      67  126918  126915      66  126921  126915      66  126921  126918
      67  126930  126927      66  126933  126927      66  126933  126930      67
  126942  126939      66  126945  126939      66  126945  126942      67  126954
  126951      66  126957  126951      66  126957  126954      67  126966  126963
      66  126969  126963      66  126969  126966      67  126978  126975      66
  126981  126975      66  126981  126978      67  126990  126987      66  126993
  126987      66  126993  126990      67  127002  126999      66  127005  126999
      66  127005  127002      67  127014  127011      66  127017  127011      66
  127017  127014      67  127026  127023      66  127029  127023      66  127029
  127026      67  127038  127035      66  127041  127035      66  127041  127038
      67  127050  127047      66  127053  127047      66  127053  127050      67
  127062  127059      66  127065  127059      66  127065  127062      67  127074
  127071      66  127077  127071      66  127077  127074      67  127086  127083
      66  127089  127083      66  127089  127086      67  127098  127095      66
  127101  127095      66  127101  127098      67  127110  127107      66  127113
  127107      66  127113  127110      67  127122  127119      66  127125  127119
      66  127125  127122      67  127134  127131      66  127137  127131      66
  127137  127134      67  127146  127143      66  127149  127143      66  127149
  127146      67  127158  127155      66  127161  127155      66  127161  127158
      67  127170  127167      66  127173  127167      66  127173  127170      67
  127182  127179      66  127185  127179      66  127185  127182      67  127194
  127191      66  127197  127191      66  127197  127194      67  127206  127203
      66  127209  127203      66  127209  127206      67  127218  127215      66
  127221  127215      66  127221  127218      67  127230  127227      66  127233
  127227      66  127233  127230      67  127242  127239      66  127245  127239
      66  127245  127242      67  127254  127251      66  127257  127251      66
  127257  127254      67  127266  127263      66  127269  127263      66  127269
  127266      67  127278  127275      66  127281  127275      66  127281  127278
      67  127290  127287      66  127293  127287      66  127293  127290      67
  127302  127299      66  127305  127299      66  127305  127302      67  127314
  127311      66  127317  127311      66  127317  127314      67  127326  127323
      66  127329  127323      66  127329  127326      67  127338  127335      66
  127341  127335      66  127341  127338      67  127350  127347      66  127353
  127347      66  127353  127350      67  127362  127359      66  127365  127359
      66  127365  127362      67  127374  127371      66  127377  127371      66
  127377  127374      67  127386  127383      66  127389  127383      66  127389
  127386      67  127398  127395      66  127401  127395      66  127401  127398
      67  127410  127407      66  127413  127407      66  127413  127410      67
  127422  127419      66  127425  127419      66  127425  127422      67  127434
  127431      66  127437  127431      66  127437  127434      67  127446  127443
      66  127449  127443      66  127449  127446      67  127458  127455      66
  127461  127455      66  127461  127458      67  127470  127467      66  127473
  127467      66  127473  127470      67  127482  127479      66  127485  127479
      66  127485  127482      67  127494  127491      66  127497  127491      66
  127497  127494      67  127506  127503      66  127509  127503      66  127509
  127506      67  127518  127515      66  127521  127515      66  127521  127518
      67  127530  127527      66  127533  127527      66  127533  127530      67
  127542  127539      66  127545  127539      66  127545  127542      67  127554
  127551      66  127557  127551      66  127557  127554      67  127566  127563
      66  127569  127563      66  127569  127566      67  127578  127575      66
  127581  127575      66  127581  127578      67  127590  127587      66  127593
  127587      66  127593  127590      67  127602  127599      66  127605  127599
      66  127605  127602      67  127614  127611      66  127617  127611      66
  127617  127614      67  127626  127623      66  127629  127623      66  127629
  127626      67  127638  127635      66  127641  127635      66  127641  127638
      67  127650  127647      66  127653  127647      66  127653  127650      67
  127662  127659      66  127665  127659      66  127665  127662      67  127674
  127671      66  127677  127671      66  127677  127674      67  127686  127683
      66  127689  127683      66  127689  127686      67  127698  127695      66
  127701  127695      66  127701  127698      67  127710  127707      66  127713
  127707      66  127713  127710      67  127722  127719      66  127725  127719
      66  127725  127722      67  127734  127731      66  127737  127731      66
  127737  127734      67  127746  127743      66  127749  127743      66  127749
  127746      67  127758  127755      66  127761  127755      66  127761  127758
      67  127770  127767      66  127773  127767      66  127773  127770      67
  127782  127779      66  127785  127779      66  127785  127782      67  127794
  127791      66  127797  127791      66  127797  127794      67  127806  127803
      66  127809  127803      66  127809  127806      67  127818  127815      66
  127821  127815      66  127821  127818      67  127830  127827      66  127833
  127827      66  127833  127830      67  127842  127839      66  127845  127839
      66  127845  127842      67  127854  127851      66  127857  127851      66
  127857  127854      67  127866  127863      66  127869  127863      66  127869
  127866      67  127878  127875      66  127881  127875      66  127881  127878
      67  127890  127887      66  127893  127887      66  127893  127890      67
  127902  127899      66  127905  127899      66  127905  127902      67  127914
  127911      66  127917  127911      66  127917  127914      67  127926  127923
      66  127929  127923      66  127929  127926      67  127938  127935      66
  127941  127935      66  127941  127938      67  127950  127947      66  127953
  127947      66  127953  127950      67  127962  127959      66  127965  127959
      66  127965  127962      67  127974  127971      66  127977  127971      66
  127977  127974      67  127986  127983      66  127989  127983      66  127989
  127986      67  127998  127995      66  128001  127995      66  128001  127998
      67  128010  128007      66  128013  128007      66  128013  128010      67
  128022  128019      66  128025  128019      66  128025  128022      67  128034
  128031      66  128037  128031      66  128037  128034      67  128046  128043
      66  128049  128043      66  128049  128046      67  128058  128055      66
  128061  128055      66  128061  128058      67  128070  128067      66  128073
  128067      66  128073  128070      67  128082  128079      66  128085  128079
      66  128085  128082      67  128094  128091      66  128097  128091      66
  128097  128094      67  128106  128103      66  128109  128103      66  128109
  128106      67  128118  128115      66  128121  128115      66  128121  128118
      67  128130  128127      66  128133  128127      66  128133  128130      67
  128142  128139      66  128145  128139      66  128145  128142      67  128154
  128151      66  128157  128151      66  128157  128154      67  128166  128163
      66  128169  128163      66  128169  128166      67  128178  128175      66
  128181  128175      66  128181  128178      67  128190  128187      66  128193
  128187      66  128193  128190      67  128202  128199      66  128205  128199
      66  128205  128202      67  128214  128211      66  128217  128211      66
  128217  128214      67  128226  128223      66  128229  128223      66  128229
  128226      67  128238  128235      66  128241  128235      66  128241  128238
      67  128250  128247      66  128253  128247      66  128253  128250      67
  128262  128259      66  128265  128259      66  128265  128262      67  128274
  128271      66  128277  128271      66  128277  128274      67  128286  128283
      66  128289  128283      66  128289  128286      67  128298  128295      66
  128301  128295      66  128301  128298      67  128310  128307      66  128313
  128307      66  128313  128310      67  128322  128319      66  128325  128319
      66  128325  128322      67  128334  128331      66  128337  128331      66
  128337  128334      67  128346  128343      66  128349  128343      66  128349
  128346      67  128358  128355      66  128361  128355      66  128361  128358
      67  128370  128367      66  128373  128367      66  128373  128370      67
  128382  128379      66  128385  128379      66  128385  128382      67  128394
  128391      66  128397  128391      66  128397  128394      67  128406  128403
      66  128409  128403      66  128409  128406      67  128418  128415      66
  128421  128415      66  128421  128418      67  128430  128427      66  128433
  128427      66  128433  128430      67  128442  128439      66  128445  128439
      66  128445  128442      67  128454  128451      66  128457  128451      66
  128457  128454      67  128466  128463      66  128469  128463      66  128469
  128466      67  128478  128475      66  128481  128475      66  128481  128478
      67  128490  128487      66  128493  128487      66  128493  128490      67
  128502  128499      66  128505  128499      66  128505  128502      67  128514
  128511      66  128517  128511      66  128517  128514      67  128526  128523
      66  128529  128523      66  128529  128526      67  128538  128535      66
  128541  128535      66  128541  128538      67  128550  128547      66  128553
  128547      66  128553  128550      67  128562  128559      66  128565  128559
      66  128565  128562      67  128574  128571      66  128577  128571      66
  128577  128574      67  128586  128583      66  128589  128583      66  128589
  128586      67  128598  128595      66  128601  128595      66  128601  128598
      67  128610  128607      66  128613  128607      66  128613  128610      67
  128622  128619      66  128625  128619      66  128625  128622      67  128634
  128631      66  128637  128631      66  128637  128634      67  128646  128643
      66  128649  128643      66  128649  128646      67  128658  128655      66
  128661  128655      66  128661  128658      67  128670  128667      66  128673
  128667      66  128673  128670      67  128682  128679      66  128685  128679
      66  128685  128682      67  128694  128691      66  128697  128691      66
  128697  128694      67  128706  128703      66  128709  128703      66  128709
  128706      67  128718  128715      66  128721  128715      66  128721  128718
      67  128730  128727      66  128733  128727      66  128733  128730      67
  128742  128739      66  128745  128739      66  128745  128742      67  128754
  128751      66  128757  128751      66  128757  128754      67  128766  128763
      66  128769  128763      66  128769  128766      67  128778  128775      66
  128781  128775      66  128781  128778      67  128790  128787      66  128793
  128787      66  128793  128790      67  128802  128799      66  128805  128799
      66  128805  128802      67  128814  128811      66  128817  128811      66
  128817  128814      67  128826  128823      66  128829  128823      66  128829
  128826      67  128838  128835      66  128841  128835      66  128841  128838
      67  128850  128847      66  128853  128847      66  128853  128850      67
  128862  128859      66  128865  128859      66  128865  128862      67  128874
  128871      66  128877  128871      66  128877  128874      67  128886  128883
      66  128889  128883      66  128889  128886      67  128898  128895      66
  128901  128895      66  128901  128898      67  128910  128907      66  128913
  128907      66  128913  128910      67  128922  128919      66  128925  128919
      66  128925  128922      67  128934  128931      66  128937  128931      66
  128937  128934      67  128946  128943      66  128949  128943      66  128949
  128946      67  128958  128955      66  128961  128955      66  128961  128958
      67  128970  128967      66  128973  128967      66  128973  128970      67
  128982  128979      66  128985  128979      66  128985  128982      67  128994
  128991      66  128997  128991      66  128997  128994      67  129006  129003
      66  129009  129003      66  129009  129006      67  129018  129015      66
  129021  129015      66  129021  129018      67  129030  129027      66  129033
  129027      66  129033  129030      67  129042  129039      66  129045  129039
      66  129045  129042      67  129054  129051      66  129057  129051      66
  129057  129054      67  129066  129063      66  129069  129063      66  129069
  129066      67  129078  129075      66  129081  129075      66  129081  129078
      67  129090  129087      66  129093  129087      66  129093  129090      67
  129102  129099      66  129105  129099      66  129105  129102      67  129114
  129111      66  129117  129111      66  129117  129114      67  129126  129123
      66  129129  129123      66  129129  129126      67  129138  129135      66
  129141  129135      66  129141  129138      67  129150  129147      66  129153
  129147      66  129153  129150      67  129162  129159      66  129165  129159
      66  129165  129162      67  129174  129171      66  129177  129171      66
  129177  129174      67  129186  129183      66  129189  129183      66  129189
  129186      67  129198  129195      66  129201  129195      66  129201  129198
      67  129210  129207      66  129213  129207      66  129213  129210      67
  129222  129219      66  129225  129219      66  129225  129222      67  129234
  129231      66  129237  129231      66  129237  129234      67  129246  129243
      66  129249  129243      66  129249  129246      67  129258  129255      66
  129261  129255      66  129261  129258      67  129270  129267      66  129273
  129267      66  129273  129270      67  129282  129279      66  129285  129279
      66  129285  129282      67  129294  129291      66  129297  129291      66
  129297  129294      67  129306  129303      66  129309  129303      66  129309
  129306      67  129318  129315      66  129321  129315      66  129321  129318
      67  129330  129327      66  129333  129327      66  129333  129330      67
  129342  129339      66  129345  129339      66  129345  129342      67  129354
  129351      66  129357  129351      66  129357  129354      67  129366  129363
      66  129369  129363      66  129369  129366      67  129378  129375      66
  129381  129375      66  129381  129378      67  129390  129387      66  129393
  129387      66  129393  129390      67  129402  129399      66  129405  129399
      66  129405  129402      67  129414  129411      66  129417  129411      66
  129417  129414      67  129426  129423      66  129429  129423      66  129429
  129426      67  129438  129435      66  129441  129435      66  129441  129438
      67  129450  129447      66  129453  129447      66  129453  129450      67
  129462  129459      66  129465  129459      66  129465  129462      67  129474
  129471      66  129477  129471      66  129477  129474      67  129486  129483
      66  129489  129483      66  129489  129486      67  129498  129495      66
  129501  129495      66  129501  129498      67  129510  129507      66  129513
  129507      66  129513  129510      67  129522  129519      66  129525  129519
      66  129525  129522      67  129534  129531      66  129537  129531      66
  129537  129534      67  129546  129543      66  129549  129543      66  129549
  129546      67  129558  129555      66  129561  129555      66  129561  129558
      67  129570  129567      66  129573  129567      66  129573  129570      67
  129582  129579      66  129585  129579      66  129585  129582      67  129594
  129591      66  129597  129591      66  129597  129594      67  129606  129603
      66  129609  129603      66  129609  129606      67  129618  129615      66
  129621  129615      66  129621  129618      67  129630  129627      66  129633
  129627      66  129633  129630      67  129642  129639      66  129645  129639
      66  129645  129642      67  129654  129651      66  129657  129651      66
  129657  129654      67  129666  129663      66  129669  129663      66  129669
  129666      67  129678  129675      66  129681  129675      66  129681  129678
      67  129690  129687      66  129693  129687      66  129693  129690      67
  129702  129699      66  129705  129699      66  129705  129702      67  129714
  129711      66  129717  129711      66  129717  129714      67  129726  129723
      66  129729  129723      66  129729  129726      67  129738  129735      66
  129741  129735      66  129741  129738      67  129750  129747      66  129753
  129747      66  129753  129750      67  129762  129759      66  129765  129759
      66  129765  129762      67  129774  129771      66  129777  129771      66
  129777  129774      67  129786  129783      66  129789  129783      66  129789
  129786      67  129798  129795      66  129801  129795      66  129801  129798
      67  129810  129807      66  129813  129807      66  129813  129810      67
  129822  129819      66  129825  129819      66  129825  129822      67  129834
  129831      66  129837  129831      66  129837  129834      67  129846  129843
      66  129849  129843      66  129849  129846      67  129858  129855      66
  129861  129855      66  129861  129858      67  129870  129867      66  129873
  129867      66  129873  129870      67  129882  129879      66  129885  129879
      66  129885  129882      67  129894  129891      66  129897  129891      66
  129897  129894      67  129906  129903      66  129909  129903      66  129909
  129906      67  129918  129915      66  129921  129915      66  129921  129918
      67  129930  129927      66  129933  129927      66  129933  129930      67
  129942  129939      66  129945  129939      66  129945  129942      67  129954
  129951      66  129957  129951      66  129957  129954      67  129966  129963
      66  129969  129963      66  129969  129966      67  129978  129975      66
  129981  129975      66  129981  129978      67  129990  129987      66  129993
  129987      66  129993  129990      67  130002  129999      66  130005  129999
      66  130005  130002      67  130014  130011      66  130017  130011      66
  130017  130014      67  130026  130023      66  130029  130023      66  130029
  130026      67  130038  130035      66  130041  130035      66  130041  130038
      67  130050  130047      66  130053  130047      66  130053  130050      67
  130062  130059      66  130065  130059      66  130065  130062      67  130074
  130071      66  130077  130071      66  130077  130074      67  130086  130083
      66  130089  130083      66  130089  130086      67  130098  130095      66
  130101  130095      66  130101  130098      67  130110  130107      66  130113
  130107      66  130113  130110      67  130122  130119      66  130125  130119
      66  130125  130122      67  130134  130131      66  130137  130131      66
  130137  130134      67  130146  130143      66  130149  130143      66  130149
  130146      67  130158  130155      66  130161  130155      66  130161  130158
      67  130170  130167      66  130173  130167      66  130173  130170      67
  130182  130179      66  130185  130179      66  130185  130182      67  130194
  130191      66  130197  130191      66  130197  130194      67  130206  130203
      66  130209  130203      66  130209  130206      67  130218  130215      66
  130221  130215      66  130221  130218      67  130230  130227      66  130233
  130227      66  130233  130230      67  130242  130239      66  130245  130239
      66  130245  130242      67  130254  130251      66  130257  130251      66
  130257  130254      67  130266  130263      66  130269  130263      66  130269
  130266      67  130278  130275      66  130281  130275      66  130281  130278
      67  130290  130287      66  130293  130287      66  130293  130290      67
  130302  130299      66  130305  130299      66  130305  130302      67  130314
  130311      66  130317  130311      66  130317  130314      67  130326  130323
      66  130329  130323      66  130329  130326      67  130338  130335      66
  130341  130335      66  130341  130338      67  130350  130347      66  130353
  130347      66  130353  130350      67  130362  130359      66  130365  130359
      66  130365  130362      67  130374  130371      66  130377  130371      66
  130377  130374      67  130386  130383      66  130389  130383      66  130389
  130386      67  130398  130395      66  130401  130395      66  130401  130398
      67  130410  130407      66  130413  130407      66  130413  130410      67
  130422  130419      66  130425  130419      66  130425  130422      67  130434
  130431      66  130437  130431      66  130437  130434      67  130446  130443
      66  130449  130443      66  130449  130446      67  130458  130455      66
  130461  130455      66  130461  130458      67  130470  130467      66  130473
  130467      66  130473  130470      67  130482  130479      66  130485  130479
      66  130485  130482      67  130494  130491      66  130497  130491      66
  130497  130494      67  130506  130503      66  130509  130503      66  130509
  130506      67  130518  130515      66  130521  130515      66  130521  130518
      67  130530  130527      66  130533  130527      66  130533  130530      67
  130542  130539      66  130545  130539      66  130545  130542      67  130554
  130551      66  130557  130551      66  130557  130554      67  130566  130563
      66  130569  130563      66  130569  130566      67  130578  130575      66
  130581  130575      66  130581  130578      67  130590  130587      66  130593
  130587      66  130593  130590      67  130602  130599      66  130605  130599
      66  130605  130602      67  130614  130611      66  130617  130611      66
  130617  130614      67  130626  130623      66  130629  130623      66  130629
  130626      67  130638  130635      66  130641  130635      66  130641  130638
      67  130650  130647      66  130653  130647      66  130653  130650      67
  130662  130659      66  130665  130659      66  130665  130662      67  130674
  130671      66  130677  130671      66  130677  130674      67  130686  130683
      66  130689  130683      66  130689  130686      67  130698  130695      66
  130701  130695      66  130701  130698      67  130710  130707      66  130713
  130707      66  130713  130710      67  130722  130719      66  130725  130719
      66  130725  130722      67  130734  130731      66  130737  130731      66
  130737  130734      67  130746  130743      66  130749  130743      66  130749
  130746      67  130758  130755      66  130761  130755      66  130761  130758
      67  130770  130767      66  130773  130767      66  130773  130770      67
  130782  130779      66  130785  130779      66  130785  130782      67  130794
  130791      66  130797  130791      66  130797  130794      67  130806  130803
      66  130809  130803      66  130809  130806      67  130818  130815      66
  130821  130815      66  130821  130818      67  130830  130827      66  130833
  130827      66  130833  130830      67  130842  130839      66  130845  130839
      66  130845  130842      67  130854  130851      66  130857  130851      66
  130857  130854      67  130866  130863      66  130869  130863      66  130869
  130866      67  130878  130875      66  130881  130875      66  130881  130878
      67  130890  130887      66  130893  130887      66  130893  130890      67
  130902  130899      66  130905  130899      66  130905  130902      67  130914
  130911      66  130917  130911      66  130917  130914      67  130926  130923
      66  130929  130923      66  130929  130926      67  130938  130935      66
  130941  130935      66  130941  130938      67  130950  130947      66  130953
  130947      66  130953  130950      67  130962  130959      66  130965  130959
      66  130965  130962      67  130974  130971      66  130977  130971      66
  130977  130974      67  130986  130983      66  130989  130983      66  130989
  130986      67  130998  130995      66  131001  130995      66  131001  130998
      67  131010  131007      66  131013  131007      66  131013  131010      67
  131022  131019      66  131025  131019      66  131025  131022      67  131034
  131031      66  131037  131031      66  131037  131034      67  131046  131043
      66  131049  131043      66  131049  131046      67  131058  131055      66
  131061  131055      66  131061  131058      67  131070  131067      66  131073
  131067      66  131073  131070      67  131082  131079      66  131085  131079
      66  131085  131082      67  131094  131091      66  131097  131091      66
  131097  131094      67  131106  131103      66  131109  131103      66  131109
  131106      67  131118  131115      66  131121  131115      66  131121  131118
      67  131130  131127      66  131133  131127      66  131133  131130      67
  131142  131139      66  131145  131139      66  131145  131142      67  131154
  131151      66  131157  131151      66  131157  131154      67  131166  131163
      66  131169  131163      66  131169  131166      67  131178  131175      66
  131181  131175      66  131181  131178      67  131190  131187      66  131193
  131187      66  131193  131190      67  131202  131199      66  131205  131199
      66  131205  131202      67  131214  131211      66  131217  131211      66
  131217  131214      67  131226  131223      66  131229  131223      66  131229
  131226      67  131238  131235      66  131241  131235      66  131241  131238
      67  131250  131247      66  131253  131247      66  131253  131250      67
  131262  131259      66  131265  131259      66  131265  131262      67  131274
  131271      66  131277  131271      66  131277  131274      67  131286  131283
      66  131289  131283      66  131289  131286      67  131298  131295      66
  131301  131295      66  131301  131298      67  131310  131307      66  131313
  131307      66  131313  131310      67  131322  131319      66  131325  131319
      66  131325  131322      67  131334  131331      66  131337  131331      66
  131337  131334      67  131346  131343      66  131349  131343      66  131349
  131346      67  131358  131355      66  131361  131355      66  131361  131358
      67  131370  131367      66  131373  131367      66  131373  131370      67
  131382  131379      66  131385  131379      66  131385  131382      67  131394
  131391      66  131397  131391      66  131397  131394      67  131406  131403
      66  131409  131403      66  131409  131406      67  131418  131415      66
  131421  131415      66  131421  131418      67  131430  131427      66  131433
  131427      66  131433  131430      67  131442  131439      66  131445  131439
      66  131445  131442      67  131454  131451      66  131457  131451      66
  131457  131454      67  131466  131463      66  131469  131463      66  131469
  131466      67  131478  131475      66  131481  131475      66  131481  131478
      67  131490  131487      66  131493  131487      66  131493  131490      67
  131502  131499      66  131505  131499      66  131505  131502      67  131514
  131511      66  131517  131511      66  131517  131514      67  131526  131523
      66  131529  131523      66  131529  131526      67  131538  131535      66
  131541  131535      66  131541  131538      67  131550  131547      66  131553
  131547      66  131553  131550      67  131562  131559      66  131565  131559
      66  131565  131562      67  131574  131571      66  131577  131571      66
  131577  131574      67  131586  131583      66  131589  131583      66  131589
  131586      67  131598  131595      66  131601  131595      66  131601  131598
      67  131610  131607      66  131613  131607      66  131613  131610      67
  131622  131619      66  131625  131619      66  131625  131622      67  131634
  131631      66  131637  131631      66  131637  131634      67  131646  131643
      66  131649  131643      66  131649  131646      67  131658  131655      66
  131661  131655      66  131661  131658      67  131670  131667      66  131673
  131667      66  131673  131670      67  131682  131679      66  131685  131679
      66  131685  131682      67  131694  131691      66  131697  131691      66
  131697  131694      67  131706  131703      66  131709  131703      66  131709
  131706      67  131718  131715      66  131721  131715      66  131721  131718
      67  131730  131727      66  131733  131727      66  131733  131730      67
  131742  131739      66  131745  131739      66  131745  131742      67  131754
  131751      66  131757  131751      66  131757  131754      67  131766  131763
      66  131769  131763      66  131769  131766      67  131778  131775      66
  131781  131775      66  131781  131778      67  131790  131787      66  131793
  131787      66  131793  131790      67  131802  131799      66  131805  131799
      66  131805  131802      67  131814  131811      66  131817  131811      66
  131817  131814      67  131826  131823      66  131829  131823      66  131829
  131826      67  131838  131835      66  131841  131835      66  131841  131838
      67  131850  131847      66  131853  131847      66  131853  131850      67
  131862  131859      66  131865  131859      66  131865  131862      67  131874
  131871      66  131877  131871      66  131877  131874      67  131886  131883
      66  131889  131883      66  131889  131886      67  131898  131895      66
  131901  131895      66  131901  131898      67  131910  131907      66  131913
  131907      66  131913  131910      67  131922  131919      66  131925  131919
      66  131925  131922      67  131934  131931      66  131937  131931      66
  131937  131934      67  131946  131943      66  131949  131943      66  131949
  131946      67  131958  131955      66  131961  131955      66  131961  131958
      67  131970  131967      66  131973  131967      66  131973  131970      67
  131982  131979      66  131985  131979      66  131985  131982      67  131994
  131991      66  131997  131991      66  131997  131994      67  132006  132003
      66  132009  132003      66  132009  132006      67  132018  132015      66
  132021  132015      66  132021  132018      67  132030  132027      66  132033
  132027      66  132033  132030      67  132042  132039      66  132045  132039
      66  132045  132042      67  132054  132051      66  132057  132051      66
  132057  132054      67  132066  132063      66  132069  132063      66  132069
  132066      67  132078  132075      66  132081  132075      66  132081  132078
      67  132090  132087      66  132093  132087      66  132093  132090      67
  132102  132099      66  132105  132099      66  132105  132102      67  132114
  132111      66  132117  132111      66  132117  132114      67  132126  132123
      66  132129  132123      66  132129  132126      67  132138  132135      66
  132141  132135      66  132141  132138      67  132150  132147      66  132153
  132147      66  132153  132150      67  132162  132159      66  132165  132159
      66  132165  132162      67  132174  132171      66  132177  132171      66
  132177  132174      67  132186  132183      66  132189  132183      66  132189
  132186      67  132198  132195      66  132201  132195      66  132201  132198
      67  132210  132207      66  132213  132207      66  132213  132210      67
  132222  132219      66  132225  132219      66  132225  132222      67  132234
  132231      66  132237  132231      66  132237  132234      67  132246  132243
      66  132249  132243      66  132249  132246      67  132258  132255      66
  132261  132255      66  132261  132258      67  132270  132267      66  132273
  132267      66  132273  132270      67  132282  132279      66  132285  132279
      66  132285  132282      67  132294  132291      66  132297  132291      66
  132297  132294      67  132306  132303      66  132309  132303      66  132309
  132306      67  132318  132315      66  132321  132315      66  132321  132318
      67  132330  132327      66  132333  132327      66  132333  132330      67
  132342  132339      66  132345  132339      66  132345  132342      67  132354
  132351      66  132357  132351      66  132357  132354      67  132366  132363
      66  132369  132363      66  132369  132366      67  132378  132375      66
  132381  132375      66  132381  132378      67  132390  132387      66  132393
  132387      66  132393  132390      67  132402  132399      66  132405  132399
      66  132405  132402      67  132414  132411      66  132417  132411      66
  132417  132414      67  132426  132423      66  132429  132423      66  132429
  132426      67  132438  132435      66  132441  132435      66  132441  132438
      67  132450  132447      66  132453  132447      66  132453  132450      67
  132462  132459      66  132465  132459      66  132465  132462      67  132474
  132471      66  132477  132471      66  132477  132474      67  132486  132483
      66  132489  132483      66  132489  132486      67  132498  132495      66
  132501  132495      66  132501  132498      67  132510  132507      66  132513
  132507      66  132513  132510      67  132522  132519      66  132525  132519
      66  132525  132522      67  132534  132531      66  132537  132531      66
  132537  132534      67  132546  132543      66  132549  132543      66  132549
  132546      67  132558  132555      66  132561  132555      66  132561  132558
      67  132570  132567      66  132573  132567      66  132573  132570      67
  132582  132579      66  132585  132579      66  132585  132582      67  132594
  132591      66  132597  132591      66  132597  132594      67  132606  132603
      66  132609  132603      66  132609  132606      67  132618  132615      66
  132621  132615      66  132621  132618      67  132630  132627      66  132633
  132627      66  132633  132630      67  132642  132639      66  132645  132639
      66  132645  132642      67  132654  132651      66  132657  132651      66
  132657  132654      67  132666  132663      66  132669  132663      66  132669
  132666      67  132678  132675      66  132681  132675      66  132681  132678
      67  132690  132687      66  132693  132687      66  132693  132690      67
  132702  132699      66  132705  132699      66  132705  132702      67  132714
  132711      66  132717  132711      66  132717  132714      67  132726  132723
      66  132729  132723      66  132729  132726      67  132738  132735      66
  132741  132735      66  132741  132738      67  132750  132747      66  132753
  132747      66  132753  132750      67  132762  132759      66  132765  132759
      66  132765  132762      67  132774  132771      66  132777  132771      66
  132777  132774      67  132786  132783      66  132789  132783      66  132789
  132786      67  132798  132795      66  132801  132795      66  132801  132798
      67  132810  132807      66  132813  132807      66  132813  132810      67
  132822  132819      66  132825  132819      66  132825  132822      67  132834
  132831      66  132837  132831      66  132837  132834      67  132846  132843
      66  132849  132843      66  132849  132846      67  132858  132855      66
  132861  132855      66  132861  132858      67  132870  132867      66  132873
  132867      66  132873  132870      67  132882  132879      66  132885  132879
      66  132885  132882      67  132894  132891      66  132897  132891      66
  132897  132894      67  132906  132903      66  132909  132903      66  132909
  132906      67  132918  132915      66  132921  132915      66  132921  132918
      67  132930  132927      66  132933  132927      66  132933  132930      67
  132942  132939      66  132945  132939      66  132945  132942      67  132954
  132951      66  132957  132951      66  132957  132954      67  132966  132963
      66  132969  132963      66  132969  132966      67  132978  132975      66
  132981  132975      66  132981  132978      67  132990  132987      66  132993
  132987      66  132993  132990      67  133002  132999      66  133005  132999
      66  133005  133002      67  133014  133011      66  133017  133011      66
  133017  133014      67  133026  133023      66  133029  133023      66  133029
  133026      67  133038  133035      66  133041  133035      66  133041  133038
      67  133050  133047      66  133053  133047      66  133053  133050      67
  133062  133059      66  133065  133059      66  133065  133062      67  133074
  133071      66  133077  133071      66  133077  133074      67  133086  133083
      66  133089  133083      66  133089  133086      67  133098  133095      66
  133101  133095      66  133101  133098      67  133110  133107      66  133113
  133107      66  133113  133110      67  133122  133119      66  133125  133119
      66  133125  133122      67  133134  133131      66  133137  133131      66
  133137  133134      67  133146  133143      66  133149  133143      66  133149
  133146      67  133158  133155      66  133161  133155      66  133161  133158
      67  133170  133167      66  133173  133167      66  133173  133170      67
  133182  133179      66  133185  133179      66  133185  133182      67  133194
  133191      66  133197  133191      66  133197  133194      67  133206  133203
      66  133209  133203      66  133209  133206      67  133218  133215      66
  133221  133215      66  133221  133218      67  133230  133227      66  133233
  133227      66  133233  133230      67  133242  133239      66  133245  133239
      66  133245  133242      67  133254  133251      66  133257  133251      66
  133257  133254      67  133266  133263      66  133269  133263      66  133269
  133266      67  133278  133275      66  133281  133275      66  133281  133278
      67  133290  133287      66  133293  133287      66  133293  133290      67
  133302  133299      66  133305  133299      66  133305  133302      67  133314
  133311      66  133317  133311      66  133317  133314      67  133326  133323
      66  133329  133323      66  133329  133326      67  133338  133335      66
  133341  133335      66  133341  133338      67  133350  133347      66  133353
  133347      66  133353  133350      67  133362  133359      66  133365  133359
      66  133365  133362      67  133374  133371      66  133377  133371      66
  133377  133374      67  133386  133383      66  133389  133383      66  133389
  133386      67  133398  133395      66  133401  133395      66  133401  133398
      67  133410  133407      66  133413  133407      66  133413  133410      67
  133422  133419      66  133425  133419      66  133425  133422      67  133434
  133431      66  133437  133431      66  133437  133434      67  133446  133443
      66  133449  133443      66  133449  133446      67  133458  133455      66
  133461  133455      66  133461  133458      67  133470  133467      66  133473
  133467      66  133473  133470      67  133482  133479      66  133485  133479
      66  133485  133482      67  133494  133491      66  133497  133491      66
  133497  133494      67  133506  133503      66  133509  133503      66  133509
  133506      67  133518  133515      66  133521  133515      66  133521  133518
      67  133530  133527      66  133533  133527      66  133533  133530      67
  133542  133539      66  133545  133539      66  133545  133542      67  133554
  133551      66  133557  133551      66  133557  133554      67  133566  133563
      66  133569  133563      66  133569  133566      67  133578  133575      66
  133581  133575      66  133581  133578      67  133590  133587      66  133593
  133587      66  133593  133590      67  133602  133599      66  133605  133599
      66  133605  133602      67  133614  133611      66  133617  133611      66
  133617  133614      67  133626  133623      66  133629  133623      66  133629
  133626      67  133638  133635      66  133641  133635      66  133641  133638
      67  133650  133647      66  133653  133647      66  133653  133650      67
  133662  133659      66  133665  133659      66  133665  133662      67  133674
  133671      66  133677  133671      66  133677  133674      67  133686  133683
      66  133689  133683      66  133689  133686      67  133698  133695      66
  133701  133695      66  133701  133698      67  133710  133707      66  133713
  133707      66  133713  133710      67  133722  133719      66  133725  133719
      66  133725  133722      67  133734  133731      66  133737  133731      66
  133737  133734      67  133746  133743      66  133749  133743      66  133749
  133746      67  133758  133755      66  133761  133755      66  133761  133758
      67  133770  133767      66  133773  133767      66  133773  133770      67
  133782  133779      66  133785  133779      66  133785  133782      67  133794
  133791      66  133797  133791      66  133797  133794      67  133806  133803
      66  133809  133803      66  133809  133806      67  133818  133815      66
  133821  133815      66  133821  133818      67  133830  133827      66  133833
  133827      66  133833  133830      67  133842  133839      66  133845  133839
      66  133845  133842      67  133854  133851      66  133857  133851      66
  133857  133854      67  133866  133863      66  133869  133863      66  133869
  133866      67  133878  133875      66  133881  133875      66  133881  133878
      67  133890  133887      66  133893  133887      66  133893  133890      67
  133902  133899      66  133905  133899      66  133905  133902      67  133914
  133911      66  133917  133911      66  133917  133914      67  133926  133923
      66  133929  133923      66  133929  133926      67  133938  133935      66
  133941  133935      66  133941  133938      67  133950  133947      66  133953
  133947      66  133953  133950      67  133962  133959      66  133965  133959
      66  133965  133962      67  133974  133971      66  133977  133971      66
  133977  133974      67  133986  133983      66  133989  133983      66  133989
  133986      67  133998  133995      66  134001  133995      66  134001  133998
      67  134010  134007      66  134013  134007      66  134013  134010      67
  134022  134019      66  134025  134019      66  134025  134022      67  134034
  134031      66  134037  134031      66  134037  134034      67  134046  134043
      66  134049  134043      66  134049  134046      67  134058  134055      66
  134061  134055      66  134061  134058      67  134070  134067      66  134073
  134067      66  134073  134070      67  134082  134079      66  134085  134079
      66  134085  134082      67  134094  134091      66  134097  134091      66
  134097  134094      67  134106  134103      66  134109  134103      66  134109
  134106      67  134118  134115      66  134121  134115      66  134121  134118
      67  134130  134127      66  134133  134127      66  134133  134130      67
  134142  134139      66  134145  134139      66  134145  134142      67  134154
  134151      66  134157  134151      66  134157  134154      67  134166  134163
      66  134169  134163      66  134169  134166      67  134178  134175      66
  134181  134175      66  134181  134178      67  134190  134187      66  134193
  134187      66  134193  134190      67  134202  134199      66  134205  134199
      66  134205  134202      67  134214  134211      66  134217  134211      66
  134217  134214      67  134226  134223      66  134229  134223      66  134229
  134226      67  134238  134235      66  134241  134235      66  134241  134238
      67  134250  134247      66  134253  134247      66  134253  134250      67
  134262  134259      66  134265  134259      66  134265  134262      67  134274
  134271      66  134277  134271      66  134277  134274      67  134286  134283
      66  134289  134283      66  134289  134286      67  134298  134295      66
  134301  134295      66  134301  134298      67  134310  134307      66  134313
  134307      66  134313  134310      67  134322  134319      66  134325  134319
      66  134325  134322      67  134334  134331      66  134337  134331      66
  134337  134334      67  134346  134343      66  134349  134343      66  134349
  134346      67  134358  134355      66  134361  134355      66  134361  134358
      67  134370  134367      66  134373  134367      66  134373  134370      67
  134382  134379      66  134385  134379      66  134385  134382      67  134394
  134391      66  134397  134391      66  134397  134394      67  134406  134403
      66  134409  134403      66  134409  134406      67  134418  134415      66
  134421  134415      66  134421  134418      67  134430  134427      66  134433
  134427      66  134433  134430      67  134442  134439      66  134445  134439
      66  134445  134442      67  134454  134451      66  134457  134451      66
  134457  134454      67  134466  134463      66  134469  134463      66  134469
  134466      67  134478  134475      66  134481  134475      66  134481  134478
      67  134490  134487      66  134493  134487      66  134493  134490      67
  134502  134499      66  134505  134499      66  134505  134502      67  134514
  134511      66  134517  134511      66  134517  134514      67  134526  134523
      66  134529  134523      66  134529  134526      67  134538  134535      66
  134541  134535      66  134541  134538      67  134550  134547      66  134553
  134547      66  134553  134550      67  134562  134559      66  134565  134559
      66  134565  134562      67  134574  134571      66  134577  134571      66
  134577  134574      67  134586  134583      66  134589  134583      66  134589
  134586      67  134598  134595      66  134601  134595      66  134601  134598
      67  134610  134607      66  134613  134607      66  134613  134610      67
  134622  134619      66  134625  134619      66  134625  134622      67  134634
  134631      66  134637  134631      66  134637  134634      67  134646  134643
      66  134649  134643      66  134649  134646      67  134658  134655      66
  134661  134655      66  134661  134658      67  134670  134667      66  134673
  134667      66  134673  134670      67  134682  134679      66  134685  134679
      66  134685  134682      67  134694  134691      66  134697  134691      66
  134697  134694      67  134706  134703      66  134709  134703      66  134709
  134706      67  134718  134715      66  134721  134715      66  134721  134718
      67  134730  134727      66  134733  134727      66  134733  134730      67
  134742  134739      66  134745  134739      66  134745  134742      67  134754
  134751      66  134757  134751      66  134757  134754      67  134766  134763
      66  134769  134763      66  134769  134766      67  134778  134775      66
  134781  134775      66  134781  134778      67  134790  134787      66  134793
  134787      66  134793  134790      67  134802  134799      66  134805  134799
      66  134805  134802      67  134814  134811      66  134817  134811      66
  134817  134814      67  134826  134823      66  134829  134823      66  134829
  134826      67  134838  134835      66  134841  134835      66  134841  134838
      67  134850  134847      66  134853  134847      66  134853  134850      67
  134862  134859      66  134865  134859      66  134865  134862      67  134874
  134871      66  134877  134871      66  134877  134874      67  134886  134883
      66  134889  134883      66  134889  134886      67  134898  134895      66
  134901  134895      66  134901  134898      67  134910  134907      66  134913
  134907      66  134913  134910      67  134922  134919      66  134925  134919
      66  134925  134922      67  134934  134931      66  134937  134931      66
  134937  134934      67  134946  134943      66  134949  134943      66  134949
  134946      67  134958  134955      66  134961  134955      66  134961  134958
      67  134970  134967      66  134973  134967      66  134973  134970      67
  134982  134979      66  134985  134979      66  134985  134982      67  134994
  134991      66  134997  134991      66  134997  134994      67  135006  135003
      66  135009  135003      66  135009  135006      67  135018  135015      66
  135021  135015      66  135021  135018      67  135030  135027      66  135033
  135027      66  135033  135030      67  135042  135039      66  135045  135039
      66  135045  135042      67  135054  135051      66  135057  135051      66
  135057  135054      67  135066  135063      66  135069  135063      66  135069
  135066      67  135078  135075      66  135081  135075      66  135081  135078
      67  135090  135087      66  135093  135087      66  135093  135090      67
  135102  135099      66  135105  135099      66  135105  135102      67  135114
  135111      66  135117  135111      66  135117  135114      67  135126  135123
      66  135129  135123      66  135129  135126      67  135138  135135      66
  135141  135135      66  135141  135138      67  135150  135147      66  135153
  135147      66  135153  135150      67  135162  135159      66  135165  135159
      66  135165  135162      67  135174  135171      66  135177  135171      66
  135177  135174      67  135186  135183      66  135189  135183      66  135189
  135186      67  135198  135195      66  135201  135195      66  135201  135198
      67  135210  135207      66  135213  135207      66  135213  135210      67
  135222  135219      66  135225  135219      66  135225  135222      67  135234
  135231      66  135237  135231      66  135237  135234      67  135246  135243
      66  135249  135243      66  135249  135246      67  135258  135255      66
  135261  135255      66  135261  135258      67  135270  135267      66  135273
  135267      66  135273  135270      67  135282  135279      66  135285  135279
      66  135285  135282      67  135294  135291      66  135297  135291      66
  135297  135294      67  135306  135303      66  135309  135303      66  135309
  135306      67  135318  135315      66  135321  135315      66  135321  135318
      67  135330  135327      66  135333  135327      66  135333  135330      67
  135342  135339      66  135345  135339      66  135345  135342      67  135354
  135351      66  135357  135351      66  135357  135354      67  135366  135363
      66  135369  135363      66  135369  135366      67  135378  135375      66
  135381  135375      66  135381  135378      67  135390  135387      66  135393
  135387      66  135393  135390      67  135402  135399      66  135405  135399
      66  135405  135402      67  135414  135411      66  135417  135411      66
  135417  135414      67  135426  135423      66  135429  135423      66  135429
  135426      67  135438  135435      66  135441  135435      66  135441  135438
      67  135450  135447      66  135453  135447      66  135453  135450      67
  135462  135459      66  135465  135459      66  135465  135462      67  135474
  135471      66  135477  135471      66  135477  135474      67  135486  135483
      66  135489  135483      66  135489  135486      67  135498  135495      66
  135501  135495      66  135501  135498      67  135510  135507      66  135513
  135507      66  135513  135510      67  135522  135519      66  135525  135519
      66  135525  135522      67  135534  135531      66  135537  135531      66
  135537  135534      67  135546  135543      66  135549  135543      66  135549
  135546      67  135558  135555      66  135561  135555      66  135561  135558
      67  135570  135567      66  135573  135567      66  135573  135570      67
  135582  135579      66  135585  135579      66  135585  135582      67  135594
  135591      66  135597  135591      66  135597  135594      67  135606  135603
      66  135609  135603      66  135609  135606      67  135618  135615      66
  135621  135615      66  135621  135618      67  135630  135627      66  135633
  135627      66  135633  135630      67  135642  135639      66  135645  135639
      66  135645  135642      67  135654  135651      66  135657  135651      66
  135657  135654      67  135666  135663      66  135669  135663      66  135669
  135666      67  135678  135675      66  135681  135675      66  135681  135678
      67  135690  135687      66  135693  135687      66  135693  135690      67
  135702  135699      66  135705  135699      66  135705  135702      67  135714
  135711      66  135717  135711      66  135717  135714      67  135726  135723
      66  135729  135723      66  135729  135726      67  135738  135735      66
  135741  135735      66  135741  135738      67  135750  135747      66  135753
  135747      66  135753  135750      67  135762  135759      66  135765  135759
      66  135765  135762      67  135774  135771      66  135777  135771      66
  135777  135774      67  135786  135783      66  135789  135783      66  135789
  135786      67  135798  135795      66  135801  135795      66  135801  135798
      67  135810  135807      66  135813  135807      66  135813  135810      67
  135822  135819      66  135825  135819      66  135825  135822      67  135834
  135831      66  135837  135831      66  135837  135834      67  135846  135843
      66  135849  135843      66  135849  135846      67  135858  135855      66
  135861  135855      66  135861  135858      67  135870  135867      66  135873
  135867      66  135873  135870      67  135882  135879      66  135885  135879
      66  135885  135882      67  135894  135891      66  135897  135891      66
  135897  135894      67  135906  135903      66  135909  135903      66  135909
  135906      67  135918  135915      66  135921  135915      66  135921  135918
      67  135930  135927      66  135933  135927      66  135933  135930      67
  135942  135939      66  135945  135939      66  135945  135942      67  135954
  135951      66  135957  135951      66  135957  135954      67  135966  135963
      66  135969  135963      66  135969  135966      67  135978  135975      66
  135981  135975      66  135981  135978      67  135990  135987      66  135993
  135987      66  135993  135990      67  136002  135999      66  136005  135999
      66  136005  136002      67  136014  136011      66  136017  136011      66
  136017  136014      67  136026  136023      66  136029  136023      66  136029
  136026      67  136038  136035      66  136041  136035      66  136041  136038
      67  136050  136047      66  136053  136047      66  136053  136050      67
  136062  136059      66  136065  136059      66  136065  136062      67  136074
  136071      66  136077  136071      66  136077  136074      67  136086  136083
      66  136089  136083      66  136089  136086      67  136098  136095      66
  136101  136095      66  136101  136098      67  136110  136107      66  136113
  136107      66  136113  136110      67  136122  136119      66  136125  136119
      66  136125  136122      67  136134  136131      66  136137  136131      66
  136137  136134      67  136146  136143      66  136149  136143      66  136149
  136146      67  136158  136155      66  136161  136155      66  136161  136158
      67  136170  136167      66  136173  136167      66  136173  136170      67
  136182  136179      66  136185  136179      66  136185  136182      67  136194
  136191      66  136197  136191      66  136197  136194      67  136206  136203
      66  136209  136203      66  136209  136206      67  136218  136215      66
  136221  136215      66  136221  136218      67  136230  136227      66  136233
  136227      66  136233  136230      67  136242  136239      66  136245  136239
      66  136245  136242      67  136254  136251      66  136257  136251      66
  136257  136254      67  136266  136263      66  136269  136263      66  136269
  136266      67  136278  136275      66  136281  136275      66  136281  136278
      67  136290  136287      66  136293  136287      66  136293  136290      67
  136302  136299      66  136305  136299      66  136305  136302      67  136314
  136311      66  136317  136311      66  136317  136314      67  136326  136323
      66  136329  136323      66  136329  136326      67  136338  136335      66
  136341  136335      66  136341  136338      67  136350  136347      66  136353
  136347      66  136353  136350      67  136362  136359      66  136365  136359
      66  136365  136362      67  136374  136371      66  136377  136371      66
  136377  136374      67  136386  136383      66  136389  136383      66  136389
  136386      67  136398  136395      66  136401  136395      66  136401  136398
      67  136410  136407      66  136413  136407      66  136413  136410      67
  136422  136419      66  136425  136419      66  136425  136422      67  136434
  136431      66  136437  136431      66  136437  136434      67  136446  136443
      66  136449  136443      66  136449  136446      67  136458  136455      66
  136461  136455      66  136461  136458      67  136470  136467      66  136473
  136467      66  136473  136470      67  136482  136479      66  136485  136479
      66  136485  136482      67  136494  136491      66  136497  136491      66
  136497  136494      67  136506  136503      66  136509  136503      66  136509
  136506      67  136518  136515      66  136521  136515      66  136521  136518
      67  136530  136527      66  136533  136527      66  136533  136530      67
  136542  136539      66  136545  136539      66  136545  136542      67  136554
  136551      66  136557  136551      66  136557  136554      67  136566  136563
      66  136569  136563      66  136569  136566      67  136578  136575      66
  136581  136575      66  136581  136578      67  136590  136587      66  136593
  136587      66  136593  136590      67  136602  136599      66  136605  136599
      66  136605  136602      67  136614  136611      66  136617  136611      66
  136617  136614      67  136626  136623      66  136629  136623      66  136629
  136626      67  136638  136635      66  136641  136635      66  136641  136638
      67  136650  136647      66  136653  136647      66  136653  136650      67
  136662  136659      66  136665  136659      66  136665  136662      67  136674
  136671      66  136677  136671      66  136677  136674      67  136686  136683
      66  136689  136683      66  136689  136686      67  136698  136695      66
  136701  136695      66  136701  136698      67  136710  136707      66  136713
  136707      66  136713  136710      67  136722  136719      66  136725  136719
      66  136725  136722      67  136734  136731      66  136737  136731      66
  136737  136734      67  136746  136743      66  136749  136743      66  136749
  136746      67  136758  136755      66  136761  136755      66  136761  136758
      67  136770  136767      66  136773  136767      66  136773  136770      67
  136782  136779      66  136785  136779      66  136785  136782      67  136794
  136791      66  136797  136791      66  136797  136794      67  136806  136803
      66  136809  136803      66  136809  136806      67  136818  136815      66
  136821  136815      66  136821  136818      67  136830  136827      66  136833
  136827      66  136833  136830      67  136842  136839      66  136845  136839
      66  136845  136842      67  136854  136851      66  136857  136851      66
  136857  136854      67  136866  136863      66  136869  136863      66  136869
  136866      67  136878  136875      66  136881  136875      66  136881  136878
      67  136890  136887      66  136893  136887      66  136893  136890      67
  136902  136899      66  136905  136899      66  136905  136902      67  136914
  136911      66  136917  136911      66  136917  136914      67  136926  136923
      66  136929  136923      66  136929  136926      67  136938  136935      66
  136941  136935      66  136941  136938      67  136950  136947      66  136953
  136947      66  136953  136950      67  136962  136959      66  136965  136959
      66  136965  136962      67  136974  136971      66  136977  136971      66
  136977  136974      67  136986  136983      66  136989  136983      66  136989
  136986      67  136998  136995      66  137001  136995      66  137001  136998
      67  137010  137007      66  137013  137007      66  137013  137010      67
  137022  137019      66  137025  137019      66  137025  137022      67  137034
  137031      66  137037  137031      66  137037  137034      67  137046  137043
      66  137049  137043      66  137049  137046      67  137058  137055      66
  137061  137055      66  137061  137058      67  137070  137067      66  137073
  137067      66  137073  137070      67  137082  137079      66  137085  137079
      66  137085  137082      67  137094  137091      66  137097  137091      66
  137097  137094      67  137106  137103      66  137109  137103      66  137109
  137106      67  137118  137115      66  137121  137115      66  137121  137118
      67  137130  137127      66  137133  137127      66  137133  137130      67
  137142  137139      66  137145  137139      66  137145  137142      67  137154
  137151      66  137157  137151      66  137157  137154      67  137166  137163
      66  137169  137163      66  137169  137166      67  137178  137175      66
  137181  137175      66  137181  137178      67  137190  137187      66  137193
  137187      66  137193  137190      67  137202  137199      66  137205  137199
      66  137205  137202      67  137214  137211      66  137217  137211      66
  137217  137214      67  137226  137223      66  137229  137223      66  137229
  137226      67  137238  137235      66  137241  137235      66  137241  137238
      67  137250  137247      66  137253  137247      66  137253  137250      67
  137262  137259      66  137265  137259      66  137265  137262      67  137274
  137271      66  137277  137271      66  137277  137274      67  137286  137283
      66  137289  137283      66  137289  137286      67  137298  137295      66
  137301  137295      66  137301  137298      67  137310  137307      66  137313
  137307      66  137313  137310      67  137322  137319      66  137325  137319
      66  137325  137322      67  137334  137331      66  137337  137331      66
  137337  137334      67  137346  137343      66  137349  137343      66  137349
  137346      67  137358  137355      66  137361  137355      66  137361  137358
      67  137370  137367      66  137373  137367      66  137373  137370      67
  137382  137379      66  137385  137379      66  137385  137382      67  137394
  137391      66  137397  137391      66  137397  137394      67  137406  137403
      66  137409  137403      66  137409  137406      67  137418  137415      66
  137421  137415      66  137421  137418      67  137430  137427      66  137433
  137427      66  137433  137430      67  137442  137439      66  137445  137439
      66  137445  137442      67  137454  137451      66  137457  137451      66
  137457  137454      67  137466  137463      66  137469  137463      66  137469
  137466      67  137478  137475      66  137481  137475      66  137481  137478
      67  137490  137487      66  137493  137487      66  137493  137490      67
  137502  137499      66  137505  137499      66  137505  137502      67  137514
  137511      66  137517  137511      66  137517  137514      67  137526  137523
      66  137529  137523      66  137529  137526      67  137538  137535      66
  137541  137535      66  137541  137538      67  137550  137547      66  137553
  137547      66  137553  137550      67  137562  137559      66  137565  137559
      66  137565  137562      67  137574  137571      66  137577  137571      66
  137577  137574      67  137586  137583      66  137589  137583      66  137589
  137586      67  137598  137595      66  137601  137595      66  137601  137598
      67  137610  137607      66  137613  137607      66  137613  137610      67
  137622  137619      66  137625  137619      66  137625  137622      67  137634
  137631      66  137637  137631      66  137637  137634      67  137646  137643
      66  137649  137643      66  137649  137646      67  137658  137655      66
  137661  137655      66  137661  137658      67  137670  137667      66  137673
  137667      66  137673  137670      67  137682  137679      66  137685  137679
      66  137685  137682      67  137694  137691      66  137697  137691      66
  137697  137694      67  137706  137703      66  137709  137703      66  137709
  137706      67  137718  137715      66  137721  137715      66  137721  137718
      67  137730  137727      66  137733  137727      66  137733  137730      67
  137742  137739      66  137745  137739      66  137745  137742      67  137754
  137751      66  137757  137751      66  137757  137754      67  137766  137763
      66  137769  137763      66  137769  137766      67  137778  137775      66
  137781  137775      66  137781  137778      67  137790  137787      66  137793
  137787      66  137793  137790      67  137802  137799      66  137805  137799
      66  137805  137802      67  137814  137811      66  137817  137811      66
  137817  137814      67  137826  137823      66  137829  137823      66  137829
  137826      67  137838  137835      66  137841  137835      66  137841  137838
      67  137850  137847      66  137853  137847      66  137853  137850      67
  137862  137859      66  137865  137859      66  137865  137862      67  137874
  137871      66  137877  137871      66  137877  137874      67  137886  137883
      66  137889  137883      66  137889  137886      67  137898  137895      66
  137901  137895      66  137901  137898      67  137910  137907      66  137913
  137907      66  137913  137910      67  137922  137919      66  137925  137919
      66  137925  137922      67  137934  137931      66  137937  137931      66
  137937  137934      67  137946  137943      66  137949  137943      66  137949
  137946      67  137958  137955      66  137961  137955      66  137961  137958
      67  137970  137967      66  137973  137967      66  137973  137970      67
  137982  137979      66  137985  137979      66  137985  137982      67  137994
  137991      66  137997  137991      66  137997  137994      67  138006  138003
      66  138009  138003      66  138009  138006      67  138018  138015      66
  138021  138015      66  138021  138018      67  138030  138027      66  138033
  138027      66  138033  138030      67  138042  138039      66  138045  138039
      66  138045  138042      67  138054  138051      66  138057  138051      66
  138057  138054      67  138066  138063      66  138069  138063      66  138069
  138066      67  138078  138075      66  138081  138075      66  138081  138078
      67  138090  138087      66  138093  138087      66  138093  138090      67
  138102  138099      66  138105  138099      66  138105  138102      67  138114
  138111      66  138117  138111      66  138117  138114      67  138126  138123
      66  138129  138123      66  138129  138126      67  138138  138135      66
  138141  138135      66  138141  138138      67  138150  138147      66  138153
  138147      66  138153  138150      67  138162  138159      66  138165  138159
      66  138165  138162      67  138174  138171      66  138177  138171      66
  138177  138174      67  138186  138183      66  138189  138183      66  138189
  138186      67  138198  138195      66  138201  138195      66  138201  138198
      67  138210  138207      66  138213  138207      66  138213  138210      67
  138222  138219      66  138225  138219      66  138225  138222      67  138234
  138231      66  138237  138231      66  138237  138234      67  138246  138243
      66  138249  138243      66  138249  138246      67  138258  138255      66
  138261  138255      66  138261  138258      67  138270  138267      66  138273
  138267      66  138273  138270      67  138282  138279      66  138285  138279
      66  138285  138282      67  138294  138291      66  138297  138291      66
  138297  138294      67  138306  138303      66  138309  138303      66  138309
  138306      67  138318  138315      66  138321  138315      66  138321  138318
      67  138330  138327      66  138333  138327      66  138333  138330      67
  138342  138339      66  138345  138339      66  138345  138342      67  138354
  138351      66  138357  138351      66  138357  138354      67  138366  138363
      66  138369  138363      66  138369  138366      67  138378  138375      66
  138381  138375      66  138381  138378      67  138390  138387      66  138393
  138387      66  138393  138390      67  138402  138399      66  138405  138399
      66  138405  138402      67  138414  138411      66  138417  138411      66
  138417  138414      67  138426  138423      66  138429  138423      66  138429
  138426      67  138438  138435      66  138441  138435      66  138441  138438
      67  138450  138447      66  138453  138447      66  138453  138450      67
  138462  138459      66  138465  138459      66  138465  138462      67  138474
  138471      66  138477  138471      66  138477  138474      67  138486  138483
      66  138489  138483      66  138489  138486      67  138498  138495      66
  138501  138495      66  138501  138498      67  138510  138507      66  138513
  138507      66  138513  138510      67  138522  138519      66  138525  138519
      66  138525  138522      67  138534  138531      66  138537  138531      66
  138537  138534      67  138546  138543      66  138549  138543      66  138549
  138546      67  138558  138555      66  138561  138555      66  138561  138558
      67  138570  138567      66  138573  138567      66  138573  138570      67
  138582  138579      66  138585  138579      66  138585  138582      67  138594
  138591      66  138597  138591      66  138597  138594      67  138606  138603
      66  138609  138603      66  138609  138606      67  138618  138615      66
  138621  138615      66  138621  138618      67  138630  138627      66  138633
  138627      66  138633  138630      67  138642  138639      66  138645  138639
      66  138645  138642      67  138654  138651      66  138657  138651      66
  138657  138654      67  138666  138663      66  138669  138663      66  138669
  138666      67  138678  138675      66  138681  138675      66  138681  138678
      67  138690  138687      66  138693  138687      66  138693  138690      67
  138702  138699      66  138705  138699      66  138705  138702      67  138714
  138711      66  138717  138711      66  138717  138714      67  138726  138723
      66  138729  138723      66  138729  138726      67  138738  138735      66
  138741  138735      66  138741  138738      67  138750  138747      66  138753
  138747      66  138753  138750      67  138762  138759      66  138765  138759
      66  138765  138762      67  138774  138771      66  138777  138771      66
  138777  138774      67  138786  138783      66  138789  138783      66  138789
  138786      67  138798  138795      66  138801  138795      66  138801  138798
      67  138810  138807      66  138813  138807      66  138813  138810      67
  138822  138819      66  138825  138819      66  138825  138822      67  138834
  138831      66  138837  138831      66  138837  138834      67  138846  138843
      66  138849  138843      66  138849  138846      67  138858  138855      66
  138861  138855      66  138861  138858      67  138870  138867      66  138873
  138867      66  138873  138870      67  138882  138879      66  138885  138879
      66  138885  138882      67  138894  138891      66  138897  138891      66
  138897  138894      67  138906  138903      66  138909  138903      66  138909
  138906      67  138918  138915      66  138921  138915      66  138921  138918
      67  138930  138927      66  138933  138927      66  138933  138930      67
  138942  138939      66  138945  138939      66  138945  138942      67  138954
  138951      66  138957  138951      66  138957  138954      67  138966  138963
      66  138969  138963      66  138969  138966      67  138978  138975      66
  138981  138975      66  138981  138978      67  138990  138987      66  138993
  138987      66  138993  138990      67  139002  138999      66  139005  138999
      66  139005  139002      67  139014  139011      66  139017  139011      66
  139017  139014      67  139026  139023      66  139029  139023      66  139029
  139026      67  139038  139035      66  139041  139035      66  139041  139038
      67  139050  139047      66  139053  139047      66  139053  139050      67
  139062  139059      66  139065  139059      66  139065  139062      67  139074
  139071      66  139077  139071      66  139077  139074      67  139086  139083
      66  139089  139083      66  139089  139086      67  139098  139095      66
  139101  139095      66  139101  139098      67  139110  139107      66  139113
  139107      66  139113  139110      67  139122  139119      66  139125  139119
      66  139125  139122      67  139134  139131      66  139137  139131      66
  139137  139134      67  139146  139143      66  139149  139143      66  139149
  139146      67  139158  139155      66  139161  139155      66  139161  139158
      67  139170  139167      66  139173  139167      66  139173  139170      67
  139182  139179      66  139185  139179      66  139185  139182      67  139194
  139191      66  139197  139191      66  139197  139194      67  139206  139203
      66  139209  139203      66  139209  139206      67  139218  139215      66
  139221  139215      66  139221  139218      67  139230  139227      66  139233
  139227      66  139233  139230      67  139242  139239      66  139245  139239
      66  139245  139242      67  139254  139251      66  139257  139251      66
  139257  139254      67  139266  139263      66  139269  139263      66  139269
  139266      67  139278  139275      66  139281  139275      66  139281  139278
      67  139290  139287      66  139293  139287      66  139293  139290      67
  139302  139299      66  139305  139299      66  139305  139302      67  139314
  139311      66  139317  139311      66  139317  139314      67  139326  139323
      66  139329  139323      66  139329  139326      67  139338  139335      66
  139341  139335      66  139341  139338      67  139350  139347      66  139353
  139347      66  139353  139350      67  139362  139359      66  139365  139359
      66  139365  139362      67  139374  139371      66  139377  139371      66
  139377  139374      67  139386  139383      66  139389  139383      66  139389
  139386      67  139398  139395      66  139401  139395      66  139401  139398
      67  139410  139407      66  139413  139407      66  139413  139410      67
  139422  139419      66  139425  139419      66  139425  139422      67  139434
  139431      66  139437  139431      66  139437  139434      67  139446  139443
      66  139449  139443      66  139449  139446      67  139458  139455      66
  139461  139455      66  139461  139458      67  139470  139467      66  139473
  139467      66  139473  139470      67  139482  139479      66  139485  139479
      66  139485  139482      67  139494  139491      66  139497  139491      66
  139497  139494      67  139506  139503      66  139509  139503      66  139509
  139506      67  139518  139515      66  139521  139515      66  139521  139518
      67  139530  139527      66  139533  139527      66  139533  139530      67
  139542  139539      66  139545  139539      66  139545  139542      67  139554
  139551      66  139557  139551      66  139557  139554      67  139566  139563
      66  139569  139563      66  139569  139566      67  139578  139575      66
  139581  139575      66  139581  139578      67  139590  139587      66  139593
  139587      66  139593  139590      67  139602  139599      66  139605  139599
      66  139605  139602      67  139614  139611      66  139617  139611      66
  139617  139614      67  139626  139623      66  139629  139623      66  139629
  139626      67  139638  139635      66  139641  139635      66  139641  139638
      67  139650  139647      66  139653  139647      66  139653  139650      67
  139662  139659      66  139665  139659      66  139665  139662      67  139674
  139671      66  139677  139671      66  139677  139674      67  139686  139683
      66  139689  139683      66  139689  139686      67  139698  139695      66
  139701  139695      66  139701  139698      67  139710  139707      66  139713
  139707      66  139713  139710      67  139722  139719      66  139725  139719
      66  139725  139722      67  139734  139731      66  139737  139731      66
  139737  139734      67  139746  139743      66  139749  139743      66  139749
  139746      67  139758  139755      66  139761  139755      66  139761  139758
      67  139770  139767      66  139773  139767      66  139773  139770      67
  139782  139779      66  139785  139779      66  139785  139782      67  139794
  139791      66  139797  139791      66  139797  139794      67  139806  139803
      66  139809  139803      66  139809  139806      67  139818  139815      66
  139821  139815      66  139821  139818      67  139830  139827      66  139833
  139827      66  139833  139830      67  139842  139839      66  139845  139839
      66  139845  139842      67  139854  139851      66  139857  139851      66
  139857  139854      67  139866  139863      66  139869  139863      66  139869
  139866      67  139878  139875      66  139881  139875      66  139881  139878
      67  139890  139887      66  139893  139887      66  139893  139890      67
  139902  139899      66  139905  139899      66  139905  139902      67  139914
  139911      66  139917  139911      66  139917  139914      67  139926  139923
      66  139929  139923      66  139929  139926      67  139938  139935      66
  139941  139935      66  139941  139938      67  139950  139947      66  139953
  139947      66  139953  139950      67  139962  139959      66  139965  139959
      66  139965  139962      67  139974  139971      66  139977  139971      66
  139977  139974      67  139986  139983      66  139989  139983      66  139989
  139986      67  139998  139995      66  140001  139995      66  140001  139998
      67  140010  140007      66  140013  140007      66  140013  140010      67
  140022  140019      66  140025  140019      66  140025  140022      67  140034
  140031      66  140037  140031      66  140037  140034      67  140046  140043
      66  140049  140043      66  140049  140046      67  140058  140055      66
  140061  140055      66  140061  140058      67  140070  140067      66  140073
  140067      66  140073  140070      67  140082  140079      66  140085  140079
      66  140085  140082      67  140094  140091      66  140097  140091      66
  140097  140094      67  140106  140103      66  140109  140103      66  140109
  140106      67  140118  140115      66  140121  140115      66  140121  140118
      67  140130  140127      66  140133  140127      66  140133  140130      67
  140142  140139      66  140145  140139      66  140145  140142      67  140154
  140151      66  140157  140151      66  140157  140154      67  140166  140163
      66  140169  140163      66  140169  140166      67  140178  140175      66
  140181  140175      66  140181  140178      67  140190  140187      66  140193
  140187      66  140193  140190      67  140202  140199      66  140205  140199
      66  140205  140202      67  140214  140211      66  140217  140211      66
  140217  140214      67  140226  140223      66  140229  140223      66  140229
  140226      67  140238  140235      66  140241  140235      66  140241  140238
      67  140250  140247      66  140253  140247      66  140253  140250      67
  140262  140259      66  140265  140259      66  140265  140262      67  140274
  140271      66  140277  140271      66  140277  140274      67  140286  140283
      66  140289  140283      66  140289  140286      67  140298  140295      66
  140301  140295      66  140301  140298      67  140310  140307      66  140313
  140307      66  140313  140310      67  140322  140319      66  140325  140319
      66  140325  140322      67  140334  140331      66  140337  140331      66
  140337  140334      67  140346  140343      66  140349  140343      66  140349
  140346      67  140358  140355      66  140361  140355      66  140361  140358
      67  140370  140367      66  140373  140367      66  140373  140370      67
  140382  140379      66  140385  140379      66  140385  140382      67  140394
  140391      66  140397  140391      66  140397  140394      67  140406  140403
      66  140409  140403      66  140409  140406      67  140418  140415      66
  140421  140415      66  140421  140418      67  140430  140427      66  140433
  140427      66  140433  140430      67  140442  140439      66  140445  140439
      66  140445  140442      67  140454  140451      66  140457  140451      66
  140457  140454      67  140466  140463      66  140469  140463      66  140469
  140466      67  140478  140475      66  140481  140475      66  140481  140478
      67  140490  140487      66  140493  140487      66  140493  140490      67
  140502  140499      66  140505  140499      66  140505  140502      67  140514
  140511      66  140517  140511      66  140517  140514      67  140526  140523
      66  140529  140523      66  140529  140526      67  140538  140535      66
  140541  140535      66  140541  140538      67  140550  140547      66  140553
  140547      66  140553  140550      67  140562  140559      66  140565  140559
      66  140565  140562      67  140574  140571      66  140577  140571      66
  140577  140574      67  140586  140583      66  140589  140583      66  140589
  140586      67  140598  140595      66  140601  140595      66  140601  140598
      67  140610  140607      66  140613  140607      66  140613  140610      67
  140622  140619      66  140625  140619      66  140625  140622      67  140634
  140631      66  140637  140631      66  140637  140634      67  140646  140643
      66  140649  140643      66  140649  140646      67  140658  140655      66
  140661  140655      66  140661  140658      67  140670  140667      66  140673
  140667      66  140673  140670      67  140682  140679      66  140685  140679
      66  140685  140682      67  140694  140691      66  140697  140691      66
  140697  140694      67  140706  140703      66  140709  140703      66  140709
  140706      67  140718  140715      66  140721  140715      66  140721  140718
      67  140730  140727      66  140733  140727      66  140733  140730      67
  140742  140739      66  140745  140739      66  140745  140742      67  140754
  140751      66  140757  140751      66  140757  140754      67  140766  140763
      66  140769  140763      66  140769  140766      67  140778  140775      66
  140781  140775      66  140781  140778      67  140790  140787      66  140793
  140787      66  140793  140790      67  140802  140799      66  140805  140799
      66  140805  140802      67  140814  140811      66  140817  140811      66
  140817  140814      67  140826  140823      66  140829  140823      66  140829
  140826      67  140838  140835      66  140841  140835      66  140841  140838
      67  140850  140847      66  140853  140847      66  140853  140850      67
  140862  140859      66  140865  140859      66  140865  140862      67  140874
  140871      66  140877  140871      66  140877  140874      67  140886  140883
      66  140889  140883      66  140889  140886      67  140898  140895      66
  140901  140895      66  140901  140898      67  140910  140907      66  140913
  140907      66  140913  140910      67  140922  140919      66  140925  140919
      66  140925  140922      67  140934  140931      66  140937  140931      66
  140937  140934      67  140946  140943      66  140949  140943      66  140949
  140946      67  140958  140955      66  140961  140955      66  140961  140958
      67  140970  140967      66  140973  140967      66  140973  140970      67
  140982  140979      66  140985  140979      66  140985  140982      67  140994
  140991      66  140997  140991      66  140997  140994      67  141006  141003
      66  141009  141003      66  141009  141006      67  141018  141015      66
  141021  141015      66  141021  141018      67  141030  141027      66  141033
  141027      66  141033  141030      67  141042  141039      66  141045  141039
      66  141045  141042      67  141054  141051      66  141057  141051      66
  141057  141054      67  141066  141063      66  141069  141063      66  141069
  141066      67  141078  141075      66  141081  141075      66  141081  141078
      67  141090  141087      66  141093  141087      66  141093  141090      67
  141102  141099      66  141105  141099      66  141105  141102      67  141114
  141111      66  141117  141111      66  141117  141114      67  141126  141123
      66  141129  141123      66  141129  141126      67  141138  141135      66
  141141  141135      66  141141  141138      67  141150  141147      66  141153
  141147      66  141153  141150      67  141162  141159      66  141165  141159
      66  141165  141162      67  141174  141171      66  141177  141171      66
  141177  141174      67  141186  141183      66  141189  141183      66  141189
  141186      67  141198  141195      66  141201  141195      66  141201  141198
      67  141210  141207      66  141213  141207      66  141213  141210      67
  141222  141219      66  141225  141219      66  141225  141222      67  141234
  141231      66  141237  141231      66  141237  141234      67  141246  141243
      66  141249  141243      66  141249  141246      67  141258  141255      66
  141261  141255      66  141261  141258      67  141270  141267      66  141273
  141267      66  141273  141270      67  141282  141279      66  141285  141279
      66  141285  141282      67  141294  141291      66  141297  141291      66
  141297  141294      67  141306  141303      66  141309  141303      66  141309
  141306      67  141318  141315      66  141321  141315      66  141321  141318
      67  141330  141327      66  141333  141327      66  141333  141330      67
  141342  141339      66  141345  141339      66  141345  141342      67  141354
  141351      66  141357  141351      66  141357  141354      67  141366  141363
      66  141369  141363      66  141369  141366      67  141378  141375      66
  141381  141375      66  141381  141378      67  141390  141387      66  141393
  141387      66  141393  141390      67  141402  141399      66  141405  141399
      66  141405  141402      67  141414  141411      66  141417  141411      66
  141417  141414      67  141426  141423      66  141429  141423      66  141429
  141426      67  141438  141435      66  141441  141435      66  141441  141438
      67  141450  141447      66  141453  141447      66  141453  141450      67
  141462  141459      66  141465  141459      66  141465  141462      67  141474
  141471      66  141477  141471      66  141477  141474      67  141486  141483
      66  141489  141483      66  141489  141486      67  141498  141495      66
  141501  141495      66  141501  141498      67  141510  141507      66  141513
  141507      66  141513  141510      67  141522  141519      66  141525  141519
      66  141525  141522      67  141534  141531      66  141537  141531      66
  141537  141534      67  141546  141543      66  141549  141543      66  141549
  141546      67  141558  141555      66  141561  141555      66  141561  141558
      67  141570  141567      66  141573  141567      66  141573  141570      67
  141582  141579      66  141585  141579      66  141585  141582      67  141594
  141591      66  141597  141591      66  141597  141594      67  141606  141603
      66  141609  141603      66  141609  141606      67  141618  141615      66
  141621  141615      66  141621  141618      67  141630  141627      66  141633
  141627      66  141633  141630      67  141642  141639      66  141645  141639
      66  141645  141642      67  141654  141651      66  141657  141651      66
  141657  141654      67  141666  141663      66  141669  141663      66  141669
  141666      67  141678  141675      66  141681  141675      66  141681  141678
      67  141690  141687      66  141693  141687      66  141693  141690      67
  141702  141699      66  141705  141699      66  141705  141702      67  141714
  141711      66  141717  141711      66  141717  141714      67  141726  141723
      66  141729  141723      66  141729  141726      67  141738  141735      66
  141741  141735      66  141741  141738      67  141750  141747      66  141753
  141747      66  141753  141750      67  141762  141759      66  141765  141759
      66  141765  141762      67  141774  141771      66  141777  141771      66
  141777  141774      67  141786  141783      66  141789  141783      66  141789
  141786      67  141798  141795      66  141801  141795      66  141801  141798
      67  141810  141807      66  141813  141807      66  141813  141810      67
  141822  141819      66  141825  141819      66  141825  141822      67  141834
  141831      66  141837  141831      66  141837  141834      67  141846  141843
      66  141849  141843      66  141849  141846      67  141858  141855      66
  141861  141855      66  141861  141858      67  141870  141867      66  141873
  141867      66  141873  141870      67  141882  141879      66  141885  141879
      66  141885  141882      67  141894  141891      66  141897  141891      66
  141897  141894      67  141906  141903      66  141909  141903      66  141909
  141906      67  141918  141915      66  141921  141915      66  141921  141918
      67  141930  141927      66  141933  141927      66  141933  141930      67
  141942  141939      66  141945  141939      66  141945  141942      67  141954
  141951      66  141957  141951      66  141957  141954      67  141966  141963
      66  141969  141963      66  141969  141966      67  141978  141975      66
  141981  141975      66  141981  141978      67  141990  141987      66  141993
  141987      66  141993  141990      67  142002  141999      66  142005  141999
      66  142005  142002      67  142014  142011      66  142017  142011      66
  142017  142014      67  142026  142023      66  142029  142023      66  142029
  142026      67  142038  142035      66  142041  142035      66  142041  142038
      67  142050  142047      66  142053  142047      66  142053  142050      67
  142062  142059      66  142065  142059      66  142065  142062      67  142074
  142071      66  142077  142071      66  142077  142074      67  142086  142083
      66  142089  142083      66  142089  142086      67  142098  142095      66
  142101  142095      66  142101  142098      67  142110  142107      66  142113
  142107      66  142113  142110      67  142122  142119      66  142125  142119
      66  142125  142122      67  142134  142131      66  142137  142131      66
  142137  142134      67  142146  142143      66  142149  142143      66  142149
  142146      67  142158  142155      66  142161  142155      66  142161  142158
      67  142170  142167      66  142173  142167      66  142173  142170      67
  142182  142179      66  142185  142179      66  142185  142182      67  142194
  142191      66  142197  142191      66  142197  142194      67  142206  142203
      66  142209  142203      66  142209  142206      67  142218  142215      66
  142221  142215      66  142221  142218      67  142230  142227      66  142233
  142227      66  142233  142230      67  142242  142239      66  142245  142239
      66  142245  142242      67  142254  142251      66  142257  142251      66
  142257  142254      67  142266  142263      66  142269  142263      66  142269
  142266      67  142278  142275      66  142281  142275      66  142281  142278
      67  142290  142287      66  142293  142287      66  142293  142290      67
  142302  142299      66  142305  142299      66  142305  142302      67  142314
  142311      66  142317  142311      66  142317  142314      67  142326  142323
      66  142329  142323      66  142329  142326      67  142338  142335      66
  142341  142335      66  142341  142338      67  142350  142347      66  142353
  142347      66  142353  142350      67  142362  142359      66  142365  142359
      66  142365  142362      67  142374  142371      66  142377  142371      66
  142377  142374      67  142386  142383      66  142389  142383      66  142389
  142386      67  142398  142395      66  142401  142395      66  142401  142398
      67  142410  142407      66  142413  142407      66  142413  142410      67
  142422  142419      66  142425  142419      66  142425  142422      67  142434
  142431      66  142437  142431      66  142437  142434      67  142446  142443
      66  142449  142443      66  142449  142446      67  142458  142455      66
  142461  142455      66  142461  142458      67  142470  142467      66  142473
  142467      66  142473  142470      67  142482  142479      66  142485  142479
      66  142485  142482      67  142494  142491      66  142497  142491      66
  142497  142494      67  142506  142503      66  142509  142503      66  142509
  142506      67  142518  142515      66  142521  142515      66  142521  142518
      67  142530  142527      66  142533  142527      66  142533  142530      67
  142542  142539      66  142545  142539      66  142545  142542      67  142554
  142551      66  142557  142551      66  142557  142554      67  142566  142563
      66  142569  142563      66  142569  142566      67  142578  142575      66
  142581  142575      66  142581  142578      67  142590  142587      66  142593
  142587      66  142593  142590      67  142602  142599      66  142605  142599
      66  142605  142602      67  142614  142611      66  142617  142611      66
  142617  142614      67  142626  142623      66  142629  142623      66  142629
  142626      67  142638  142635      66  142641  142635      66  142641  142638
      67  142650  142647      66  142653  142647      66  142653  142650      67
  142662  142659      66  142665  142659      66  142665  142662      67  142674
  142671      66  142677  142671      66  142677  142674      67  142686  142683
      66  142689  142683      66  142689  142686      67  142698  142695      66
  142701  142695      66  142701  142698      67  142710  142707      66  142713
  142707      66  142713  142710      67  142722  142719      66  142725  142719
      66  142725  142722      67  142734  142731      66  142737  142731      66
  142737  142734      67  142746  142743      66  142749  142743      66  142749
  142746      67  142758  142755      66  142761  142755      66  142761  142758
      67  142770  142767      66  142773  142767      66  142773  142770      67
  142782  142779      66  142785  142779      66  142785  142782      67  142794
  142791      66  142797  142791      66  142797  142794      67  142806  142803
      66  142809  142803      66  142809  142806      67  142818  142815      66
  142821  142815      66  142821  142818      67  142830  142827      66  142833
  142827      66  142833  142830      67  142842  142839      66  142845  142839
      66  142845  142842      67  142854  142851      66  142857  142851      66
  142857  142854      67  142866  142863      66  142869  142863      66  142869
  142866      67  142878  142875      66  142881  142875      66  142881  142878
      67  142890  142887      66  142893  142887      66  142893  142890      67
  142902  142899      66  142905  142899      66  142905  142902      67  142914
  142911      66  142917  142911      66  142917  142914      67  142926  142923
      66  142929  142923      66  142929  142926      67  142938  142935      66
  142941  142935      66  142941  142938      67  142950  142947      66  142953
  142947      66  142953  142950      67  142962  142959      66  142965  142959
      66  142965  142962      67  142974  142971      66  142977  142971      66
  142977  142974      67  142986  142983      66  142989  142983      66  142989
  142986      67  142998  142995      66  143001  142995      66  143001  142998
      67  143010  143007      66  143013  143007      66  143013  143010      67
  143022  143019      66  143025  143019      66  143025  143022      67  143034
  143031      66  143037  143031      66  143037  143034      67  143046  143043
      66  143049  143043      66  143049  143046      67  143058  143055      66
  143061  143055      66  143061  143058      67  143070  143067      66  143073
  143067      66  143073  143070      67  143082  143079      66  143085  143079
      66  143085  143082      67  143094  143091      66  143097  143091      66
  143097  143094      67  143106  143103      66  143109  143103      66  143109
  143106      67  143118  143115      66  143121  143115      66  143121  143118
      67  143130  143127      66  143133  143127      66  143133  143130      67
  143142  143139      66  143145  143139      66  143145  143142      67  143154
  143151      66  143157  143151      66  143157  143154      67  143166  143163
      66  143169  143163      66  143169  143166      67  143178  143175      66
  143181  143175      66  143181  143178      67  143190  143187      66  143193
  143187      66  143193  143190      67  143202  143199      66  143205  143199
      66  143205  143202      67  143214  143211      66  143217  143211      66
  143217  143214      67  143226  143223      66  143229  143223      66  143229
  143226      67  143238  143235      66  143241  143235      66  143241  143238
      67  143250  143247      66  143253  143247      66  143253  143250      67
  143262  143259      66  143265  143259      66  143265  143262      67  143274
  143271      66  143277  143271      66  143277  143274      67  143286  143283
      66  143289  143283      66  143289  143286      67  143298  143295      66
  143301  143295      66  143301  143298      67  143310  143307      66  143313
  143307      66  143313  143310      67  143322  143319      66  143325  143319
      66  143325  143322      67  143334  143331      66  143337  143331      66
  143337  143334      67  143346  143343      66  143349  143343      66  143349
  143346      67  143358  143355      66  143361  143355      66  143361  143358
      67  143370  143367      66  143373  143367      66  143373  143370      67
  143382  143379      66  143385  143379      66  143385  143382      67  143394
  143391      66  143397  143391      66  143397  143394      67  143406  143403
      66  143409  143403      66  143409  143406      67  143418  143415      66
  143421  143415      66  143421  143418      67  143430  143427      66  143433
  143427      66  143433  143430      67  143442  143439      66  143445  143439
      66  143445  143442      67  143454  143451      66  143457  143451      66
  143457  143454      67  143466  143463      66  143469  143463      66  143469
  143466      67  143478  143475      66  143481  143475      66  143481  143478
      67  143490  143487      66  143493  143487      66  143493  143490      67
  143502  143499      66  143505  143499      66  143505  143502      67  143514
  143511      66  143517  143511      66  143517  143514      67  143526  143523
      66  143529  143523      66  143529  143526      67  143538  143535      66
  143541  143535      66  143541  143538      67  143550  143547      66  143553
  143547      66  143553  143550      67  143562  143559      66  143565  143559
      66  143565  143562      67  143574  143571      66  143577  143571      66
  143577  143574      67  143586  143583      66  143589  143583      66  143589
  143586      67  143598  143595      66  143601  143595      66  143601  143598
      67  143610  143607      66  143613  143607      66  143613  143610      67
  143622  143619      66  143625  143619      66  143625  143622      67  143634
  143631      66  143637  143631      66  143637  143634      67  143646  143643
      66  143649  143643      66  143649  143646      67  143658  143655      66
  143661  143655      66  143661  143658      67  143670  143667      66  143673
  143667      66  143673  143670      67  143682  143679      66  143685  143679
      66  143685  143682      67  143694  143691      66  143697  143691      66
  143697  143694      67  143706  143703      66  143709  143703      66  143709
  143706      67  143718  143715      66  143721  143715      66  143721  143718
      67  143730  143727      66  143733  143727      66  143733  143730      67
  143742  143739      66  143745  143739      66  143745  143742      67  143754
  143751      66  143757  143751      66  143757  143754      67  143766  143763
      66  143769  143763      66  143769  143766      67  143778  143775      66
  143781  143775      66  143781  143778      67  143790  143787      66  143793
  143787      66  143793  143790      67  143802  143799      66  143805  143799
      66  143805  143802      67  143814  143811      66  143817  143811      66
  143817  143814      67  143826  143823      66  143829  143823      66  143829
  143826      67  143838  143835      66  143841  143835      66  143841  143838
      67  143850  143847      66  143853  143847      66  143853  143850      67
  143862  143859      66  143865  143859      66  143865  143862      67  143874
  143871      66  143877  143871      66  143877  143874      67  143886  143883
      66  143889  143883      66  143889  143886      67  143898  143895      66
  143901  143895      66  143901  143898      67  143910  143907      66  143913
  143907      66  143913  143910      67  143922  143919      66  143925  143919
      66  143925  143922      67  143934  143931      66  143937  143931      66
  143937  143934      67  143946  143943      66  143949  143943      66  143949
  143946      67  143958  143955      66  143961  143955      66  143961  143958
      67  143970  143967      66  143973  143967      66  143973  143970      67
  143982  143979      66  143985  143979      66  143985  143982      67  143994
  143991      66  143997  143991      66  143997  143994      67  144006  144003
      66  144009  144003      66  144009  144006      67  144018  144015      66
  144021  144015      66  144021  144018      67  144030  144027      66  144033
  144027      66  144033  144030      67  144042  144039      66  144045  144039
      66  144045  144042      67  144054  144051      66  144057  144051      66
  144057  144054      67  144066  144063      66  144069  144063      66  144069
  144066      67  144078  144075      66  144081  144075      66  144081  144078
      67  144090  144087      66  144093  144087      66  144093  144090      67
  144102  144099      66  144105  144099      66  144105  144102      67  144114
  144111      66  144117  144111      66  144117  144114      67  144126  144123
      66  144129  144123      66  144129  144126      67  144138  144135      66
  144141  144135      66  144141  144138      67  144150  144147      66  144153
  144147      66  144153  144150      67  144162  144159      66  144165  144159
      66  144165  144162      67  144174  144171      66  144177  144171      66
  144177  144174      67  144186  144183      66  144189  144183      66  144189
  144186      67  144198  144195      66  144201  144195      66  144201  144198
      67  144210  144207      66  144213  144207      66  144213  144210      67
  144222  144219      66  144225  144219      66  144225  144222      67  144234
  144231      66  144237  144231      66  144237  144234      67  144246  144243
      66  144249  144243      66  144249  144246      67  144258  144255      66
  144261  144255      66  144261  144258      67  144270  144267      66  144273
  144267      66  144273  144270      67  144282  144279      66  144285  144279
      66  144285  144282      67  144294  144291      66  144297  144291      66
  144297  144294      67  144306  144303      66  144309  144303      66  144309
  144306      67  144318  144315      66  144321  144315      66  144321  144318
      67  144330  144327      66  144333  144327      66  144333  144330      67
  144342  144339      66  144345  144339      66  144345  144342      67  144354
  144351      66  144357  144351      66  144357  144354      67  144366  144363
      66  144369  144363      66  144369  144366      67  144378  144375      66
  144381  144375      66  144381  144378      67  144390  144387      66  144393
  144387      66  144393  144390      67  144402  144399      66  144405  144399
      66  144405  144402      67  144414  144411      66  144417  144411      66
  144417  144414      67  144426  144423      66  144429  144423      66  144429
  144426      67  144438  144435      66  144441  144435      66  144441  144438
      67  144450  144447      66  144453  144447      66  144453  144450      67
  144462  144459      66  144465  144459      66  144465  144462      67  144474
  144471      66  144477  144471      66  144477  144474      67  144486  144483
      66  144489  144483      66  144489  144486      67  144498  144495      66
  144501  144495      66  144501  144498      67  144510  144507      66  144513
  144507      66  144513  144510      67  144522  144519      66  144525  144519
      66  144525  144522      67  144534  144531      66  144537  144531      66
  144537  144534      67  144546  144543      66  144549  144543      66  144549
  144546      67  144558  144555      66  144561  144555      66  144561  144558
      67  144570  144567      66  144573  144567      66  144573  144570      67
  144582  144579      66  144585  144579      66  144585  144582      67  144594
  144591      66  144597  144591      66  144597  144594      67  144606  144603
      66  144609  144603      66  144609  144606      67  144618  144615      66
  144621  144615      66  144621  144618      67  144630  144627      66  144633
  144627      66  144633  144630      67  144642  144639      66  144645  144639
      66  144645  144642      67  144654  144651      66  144657  144651      66
  144657  144654      67  144666  144663      66  144669  144663      66  144669
  144666      67  144678  144675      66  144681  144675      66  144681  144678
      67  144690  144687      66  144693  144687      66  144693  144690      67
  144702  144699      66  144705  144699      66  144705  144702      67  144714
  144711      66  144717  144711      66  144717  144714      67  144726  144723
      66  144729  144723      66  144729  144726      67  144738  144735      66
  144741  144735      66  144741  144738      67  144750  144747      66  144753
  144747      66  144753  144750      67  144762  144759      66  144765  144759
      66  144765  144762      67  144774  144771      66  144777  144771      66
  144777  144774      67  144786  144783      66  144789  144783      66  144789
  144786      67  144798  144795      66  144801  144795      66  144801  144798
      67  144810  144807      66  144813  144807      66  144813  144810      67
  144822  144819      66  144825  144819      66  144825  144822      67  144834
  144831      66  144837  144831      66  144837  144834      67  144846  144843
      66  144849  144843      66  144849  144846      67  144858  144855      66
  144861  144855      66  144861  144858      67  144870  144867      66  144873
  144867      66  144873  144870      67  144882  144879      66  144885  144879
      66  144885  144882      67  144894  144891      66  144897  144891      66
  144897  144894      67  144906  144903      66  144909  144903      66  144909
  144906      67  144918  144915      66  144921  144915      66  144921  144918
      67  144930  144927      66  144933  144927      66  144933  144930      67
  144942  144939      66  144945  144939      66  144945  144942      67  144954
  144951      66  144957  144951      66  144957  144954      67  144966  144963
      66  144969  144963      66  144969  144966      67  144978  144975      66
  144981  144975      66  144981  144978      67  144990  144987      66  144993
  144987      66  144993  144990      67  145002  144999      66  145005  144999
      66  145005  145002      67  145014  145011      66  145017  145011      66
  145017  145014      67  145026  145023      66  145029  145023      66  145029
  145026      67  145038  145035      66  145041  145035      66  145041  145038
      67  145050  145047      66  145053  145047      66  145053  145050      67
  145062  145059      66  145065  145059      66  145065  145062      67  145074
  145071      66  145077  145071      66  145077  145074      67  145086  145083
      66  145089  145083      66  145089  145086      67  145098  145095      66
  145101  145095      66  145101  145098      67  145110  145107      66  145113
  145107      66  145113  145110      67  145122  145119      66  145125  145119
      66  145125  145122      67  145134  145131      66  145137  145131      66
  145137  145134      67  145146  145143      66  145149  145143      66  145149
  145146      67  145158  145155      66  145161  145155      66  145161  145158
      67  145170  145167      66  145173  145167      66  145173  145170      67
  145182  145179      66  145185  145179      66  145185  145182      67  145194
  145191      66  145197  145191      66  145197  145194      67  145206  145203
      66  145209  145203      66  145209  145206      67  145218  145215      66
  145221  145215      66  145221  145218      67  145230  145227      66  145233
  145227      66  145233  145230      67  145242  145239      66  145245  145239
      66  145245  145242      67  145254  145251      66  145257  145251      66
  145257  145254      67  145266  145263      66  145269  145263      66  145269
  145266      67  145278  145275      66  145281  145275      66  145281  145278
      67  145290  145287      66  145293  145287      66  145293  145290      67
  145302  145299      66  145305  145299      66  145305  145302      67  145314
  145311      66  145317  145311      66  145317  145314      67  145326  145323
      66  145329  145323      66  145329  145326      67  145338  145335      66
  145341  145335      66  145341  145338      67  145350  145347      66  145353
  145347      66  145353  145350      67  145362  145359      66  145365  145359
      66  145365  145362      67  145374  145371      66  145377  145371      66
  145377  145374      67  145386  145383      66  145389  145383      66  145389
  145386      67  145398  145395      66  145401  145395      66  145401  145398
      67  145410  145407      66  145413  145407      66  145413  145410      67
  145422  145419      66  145425  145419      66  145425  145422      67  145434
  145431      66  145437  145431      66  145437  145434      67  145446  145443
      66  145449  145443      66  145449  145446      67  145458  145455      66
  145461  145455      66  145461  145458      67  145470  145467      66  145473
  145467      66  145473  145470      67  145482  145479      66  145485  145479
      66  145485  145482      67  145494  145491      66  145497  145491      66
  145497  145494      67  145506  145503      66  145509  145503      66  145509
  145506      67  145518  145515      66  145521  145515      66  145521  145518
      67  145530  145527      66  145533  145527      66  145533  145530      67
  145542  145539      66  145545  145539      66  145545  145542      67  145554
  145551      66  145557  145551      66  145557  145554      67  145566  145563
      66  145569  145563      66  145569  145566      67  145578  145575      66
  145581  145575      66  145581  145578      67  145590  145587      66  145593
  145587      66  145593  145590      67  145602  145599      66  145605  145599
      66  145605  145602      67  145614  145611      66  145617  145611      66
  145617  145614      67  145626  145623      66  145629  145623      66  145629
  145626      67  145638  145635      66  145641  145635      66  145641  145638
      67  145650  145647      66  145653  145647      66  145653  145650      67
  145662  145659      66  145665  145659      66  145665  145662      67  145674
  145671      66  145677  145671      66  145677  145674      67  145686  145683
      66  145689  145683      66  145689  145686      67  145698  145695      66
  145701  145695      66  145701  145698      67  145710  145707      66  145713
  145707      66  145713  145710      67  145722  145719      66  145725  145719
      66  145725  145722      67  145734  145731      66  145737  145731      66
  145737  145734      67  145746  145743      66  145749  145743      66  145749
  145746      67  145758  145755      66  145761  145755      66  145761  145758
      67  145770  145767      66  145773  145767      66  145773  145770      67
  145782  145779      66  145785  145779      66  145785  145782      67  145794
  145791      66  145797  145791      66  145797  145794      67  145806  145803
      66  145809  145803      66  145809  145806      67  145818  145815      66
  145821  145815      66  145821  145818      67  145830  145827      66  145833
  145827      66  145833  145830      67  145842  145839      66  145845  145839
      66  145845  145842      67  145854  145851      66  145857  145851      66
  145857  145854      67  145866  145863      66  145869  145863      66  145869
  145866      67  145878  145875      66  145881  145875      66  145881  145878
      67  145890  145887      66  145893  145887      66  145893  145890      67
  145902  145899      66  145905  145899      66  145905  145902      67  145914
  145911      66  145917  145911      66  145917  145914      67  145926  145923
      66  145929  145923      66  145929  145926      67  145938  145935      66
  145941  145935      66  145941  145938      67  145950  145947      66  145953
  145947      66  145953  145950      67  145962  145959      66  145965  145959
      66  145965  145962      67  145974  145971      66  145977  145971      66
  145977  145974      67  145986  145983      66  145989  145983      66  145989
  145986      67  145998  145995      66  146001  145995      66  146001  145998
      67  146010  146007      66  146013  146007      66  146013  146010      67
  146022  146019      66  146025  146019      66  146025  146022      67  146034
  146031      66  146037  146031      66  146037  146034      67  146046  146043
      66  146049  146043      66  146049  146046      67  146058  146055      66
  146061  146055      66  146061  146058      67  146070  146067      66  146073
  146067      66  146073  146070      67  146082  146079      66  146085  146079
      66  146085  146082      67  146094  146091      66  146097  146091      66
  146097  146094      67  146106  146103      66  146109  146103      66  146109
  146106      67  146118  146115      66  146121  146115      66  146121  146118
      67  146130  146127      66  146133  146127      66  146133  146130      67
  146142  146139      66  146145  146139      66  146145  146142      67  146154
  146151      66  146157  146151      66  146157  146154      67  146166  146163
      66  146169  146163      66  146169  146166      67  146178  146175      66
  146181  146175      66  146181  146178      67  146190  146187      66  146193
  146187      66  146193  146190      67  146202  146199      66  146205  146199
      66  146205  146202      67  146214  146211      66  146217  146211      66
  146217  146214      67  146226  146223      66  146229  146223      66  146229
  146226      67  146238  146235      66  146241  146235      66  146241  146238
      67  146250  146247      66  146253  146247      66  146253  146250      67
  146262  146259      66  146265  146259      66  146265  146262      67  146274
  146271      66  146277  146271      66  146277  146274      67  146286  146283
      66  146289  146283      66  146289  146286      67  146298  146295      66
  146301  146295      66  146301  146298      67  146310  146307      66  146313
  146307      66  146313  146310      67  146322  146319      66  146325  146319
      66  146325  146322      67  146334  146331      66  146337  146331      66
  146337  146334      67  146346  146343      66  146349  146343      66  146349
  146346      67  146358  146355      66  146361  146355      66  146361  146358
      67  146370  146367      66  146373  146367      66  146373  146370      67
  146382  146379      66  146385  146379      66  146385  146382      67  146394
  146391      66  146397  146391      66  146397  146394      67  146406  146403
      66  146409  146403      66  146409  146406      67  146418  146415      66
  146421  146415      66  146421  146418      67  146430  146427      66  146433
  146427      66  146433  146430      67  146442  146439      66  146445  146439
      66  146445  146442      67  146454  146451      66  146457  146451      66
  146457  146454      67  146466  146463      66  146469  146463      66  146469
  146466      67  146478  146475      66  146481  146475      66  146481  146478
      67  146490  146487      66  146493  146487      66  146493  146490      67
  146502  146499      66  146505  146499      66  146505  146502      67  146514
  146511      66  146517  146511      66  146517  146514      67  146526  146523
      66  146529  146523      66  146529  146526      67  146538  146535      66
  146541  146535      66  146541  146538      67  146550  146547      66  146553
  146547      66  146553  146550      67  146562  146559      66  146565  146559
      66  146565  146562      67  146574  146571      66  146577  146571      66
  146577  146574      67  146586  146583      66  146589  146583      66  146589
  146586      67  146598  146595      66  146601  146595      66  146601  146598
      67  146610  146607      66  146613  146607      66  146613  146610      67
  146622  146619      66  146625  146619      66  146625  146622      67  146634
  146631      66  146637  146631      66  146637  146634      67  146646  146643
      66  146649  146643      66  146649  146646      67  146658  146655      66
  146661  146655      66  146661  146658      67  146670  146667      66  146673
  146667      66  146673  146670      67  146682  146679      66  146685  146679
      66  146685  146682      67  146694  146691      66  146697  146691      66
  146697  146694      67  146706  146703      66  146709  146703      66  146709
  146706      67  146718  146715      66  146721  146715      66  146721  146718
      67  146730  146727      66  146733  146727      66  146733  146730      67
  146742  146739      66  146745  146739      66  146745  146742      67  146754
  146751      66  146757  146751      66  146757  146754      67  146766  146763
      66  146769  146763      66  146769  146766      67  146778  146775      66
  146781  146775      66  146781  146778      67  146790  146787      66  146793
  146787      66  146793  146790      67  146802  146799      66  146805  146799
      66  146805  146802      67  146814  146811      66  146817  146811      66
  146817  146814      67  146826  146823      66  146829  146823      66  146829
  146826      67  146838  146835      66  146841  146835      66  146841  146838
      67  146850  146847      66  146853  146847      66  146853  146850      67
  146862  146859      66  146865  146859      66  146865  146862      67  146874
  146871      66  146877  146871      66  146877  146874      67  146886  146883
      66  146889  146883      66  146889  146886      67  146898  146895      66
  146901  146895      66  146901  146898      67  146910  146907      66  146913
  146907      66  146913  146910      67  146922  146919      66  146925  146919
      66  146925  146922      67  146934  146931      66  146937  146931      66
  146937  146934      67  146946  146943      66  146949  146943      66  146949
  146946      67  146958  146955      66  146961  146955      66  146961  146958
      67  146970  146967      66  146973  146967      66  146973  146970      67
  146982  146979      66  146985  146979      66  146985  146982      67  146994
  146991      66  146997  146991      66  146997  146994      67  147006  147003
      66  147009  147003      66  147009  147006      67  147018  147015      66
  147021  147015      66  147021  147018      67  147030  147027      66  147033
  147027      66  147033  147030      67  147042  147039      66  147045  147039
      66  147045  147042      67  147054  147051      66  147057  147051      66
  147057  147054      67  147066  147063      66  147069  147063      66  147069
  147066      67  147078  147075      66  147081  147075      66  147081  147078
      67  147090  147087      66  147093  147087      66  147093  147090      67
  147102  147099      66  147105  147099      66  147105  147102      67  147114
  147111      66  147117  147111      66  147117  147114      67  147126  147123
      66  147129  147123      66  147129  147126      67  147138  147135      66
  147141  147135      66  147141  147138      67  147150  147147      66  147153
  147147      66  147153  147150      67  147162  147159      66  147165  147159
      66  147165  147162      67  147174  147171      66  147177  147171      66
  147177  147174      67  147186  147183      66  147189  147183      66  147189
  147186      67  147198  147195      66  147201  147195      66  147201  147198
      67  147210  147207      66  147213  147207      66  147213  147210      67
  147222  147219      66  147225  147219      66  147225  147222      67  147234
  147231      66  147237  147231      66  147237  147234      67  147246  147243
      66  147249  147243      66  147249  147246      67  147258  147255      66
  147261  147255      66  147261  147258      67  147270  147267      66  147273
  147267      66  147273  147270      67  147282  147279      66  147285  147279
      66  147285  147282      67  147294  147291      66  147297  147291      66
  147297  147294      67  147306  147303      66  147309  147303      66  147309
  147306      67  147318  147315      66  147321  147315      66  147321  147318
      67  147330  147327      66  147333  147327      66  147333  147330      67
  147342  147339      66  147345  147339      66  147345  147342      67  147354
  147351      66  147357  147351      66  147357  147354      67  147366  147363
      66  147369  147363      66  147369  147366      67  147378  147375      66
  147381  147375      66  147381  147378      67  147390  147387      66  147393
  147387      66  147393  147390      67  147402  147399      66  147405  147399
      66  147405  147402      67  147414  147411      66  147417  147411      66
  147417  147414      67  147426  147423      66  147429  147423      66  147429
  147426      67  147438  147435      66  147441  147435      66  147441  147438
      67  147450  147447      66  147453  147447      66  147453  147450      67
  147462  147459      66  147465  147459      66  147465  147462      67  147474
  147471      66  147477  147471      66  147477  147474      67  147486  147483
      66  147489  147483      66  147489  147486      67  147498  147495      66
  147501  147495      66  147501  147498      67  147510  147507      66  147513
  147507      66  147513  147510      67  147522  147519      66  147525  147519
      66  147525  147522      67  147534  147531      66  147537  147531      66
  147537  147534      67  147546  147543      66  147549  147543      66  147549
  147546      67  147558  147555      66  147561  147555      66  147561  147558
      67  147570  147567      66  147573  147567      66  147573  147570      67
  147582  147579      66  147585  147579      66  147585  147582      67  147594
  147591      66  147597  147591      66  147597  147594      67  147606  147603
      66  147609  147603      66  147609  147606      67  147618  147615      66
  147621  147615      66  147621  147618      67  147630  147627      66  147633
  147627      66  147633  147630      67  147642  147639      66  147645  147639
      66  147645  147642      67  147654  147651      66  147657  147651      66
  147657  147654      67  147666  147663      66  147669  147663      66  147669
  147666      67  147678  147675      66  147681  147675      66  147681  147678
      67  147690  147687      66  147693  147687      66  147693  147690      67
  147702  147699      66  147705  147699      66  147705  147702      67  147714
  147711      66  147717  147711      66  147717  147714      67  147726  147723
      66  147729  147723      66  147729  147726      67  147738  147735      66
  147741  147735      66  147741  147738      67  147750  147747      66  147753
  147747      66  147753  147750      67  147762  147759      66  147765  147759
      66  147765  147762      67  147774  147771      66  147777  147771      66
  147777  147774      67  147786  147783      66  147789  147783      66  147789
  147786      67  147798  147795      66  147801  147795      66  147801  147798
      67  147810  147807      66  147813  147807      66  147813  147810      67
  147822  147819      66  147825  147819      66  147825  147822      67  147834
  147831      66  147837  147831      66  147837  147834      67  147846  147843
      66  147849  147843      66  147849  147846      67  147858  147855      66
  147861  147855      66  147861  147858      67  147870  147867      66  147873
  147867      66  147873  147870      67  147882  147879      66  147885  147879
      66  147885  147882      67  147894  147891      66  147897  147891      66
  147897  147894      67  147906  147903      66  147909  147903      66  147909
  147906      67  147918  147915      66  147921  147915      66  147921  147918
      67  147930  147927      66  147933  147927      66  147933  147930      67
  147942  147939      66  147945  147939      66  147945  147942      67  147954
  147951      66  147957  147951      66  147957  147954      67  147966  147963
      66  147969  147963      66  147969  147966      67  147978  147975      66
  147981  147975      66  147981  147978      67  147990  147987      66  147993
  147987      66  147993  147990      67  148002  147999      66  148005  147999
      66  148005  148002      67  148014  148011      66  148017  148011      66
  148017  148014      67  148026  148023      66  148029  148023      66  148029
  148026      67  148038  148035      66  148041  148035      66  148041  148038
      67  148050  148047      66  148053  148047      66  148053  148050      67
  148062  148059      66  148065  148059      66  148065  148062      67  148074
  148071      66  148077  148071      66  148077  148074      67  148086  148083
      66  148089  148083      66  148089  148086      67  148098  148095      66
  148101  148095      66  148101  148098      67  148110  148107      66  148113
  148107      66  148113  148110      67  148122  148119      66  148125  148119
      66  148125  148122      67  148134  148131      66  148137  148131      66
  148137  148134      67  148146  148143      66  148149  148143      66  148149
  148146      67  148158  148155      66  148161  148155      66  148161  148158
      67  148170  148167      66  148173  148167      66  148173  148170      67
  148182  148179      66  148185  148179      66  148185  148182      67  148194
  148191      66  148197  148191      66  148197  148194      67  148206  148203
      66  148209  148203      66  148209  148206      67  148218  148215      66
  148221  148215      66  148221  148218      67  148230  148227      66  148233
  148227      66  148233  148230      67  148242  148239      66  148245  148239
      66  148245  148242      67  148254  148251      66  148257  148251      66
  148257  148254      67  148266  148263      66  148269  148263      66  148269
  148266      67  148278  148275      66  148281  148275      66  148281  148278
      67  148290  148287      66  148293  148287      66  148293  148290      67
  148302  148299      66  148305  148299      66  148305  148302      67  148314
  148311      66  148317  148311      66  148317  148314      67  148326  148323
      66  148329  148323      66  148329  148326      67  148338  148335      66
  148341  148335      66  148341  148338      67  148350  148347      66  148353
  148347      66  148353  148350      67  148362  148359      66  148365  148359
      66  148365  148362      67  148374  148371      66  148377  148371      66
  148377  148374      67  148386  148383      66  148389  148383      66  148389
  148386      67  148398  148395      66  148401  148395      66  148401  148398
      67  148410  148407      66  148413  148407      66  148413  148410      67
  148422  148419      66  148425  148419      66  148425  148422      67  148434
  148431      66  148437  148431      66  148437  148434      67  148446  148443
      66  148449  148443      66  148449  148446      67  148458  148455      66
  148461  148455      66  148461  148458      67  148470  148467      66  148473
  148467      66  148473  148470      67  148482  148479      66  148485  148479
      66  148485  148482      67  148494  148491      66  148497  148491      66
  148497  148494      67  148506  148503      66  148509  148503      66  148509
  148506      67  148518  148515      66  148521  148515      66  148521  148518
      67  148530  148527      66  148533  148527      66  148533  148530      67
  148542  148539      66  148545  148539      66  148545  148542      67  148554
  148551      66  148557  148551      66  148557  148554      67  148566  148563
      66  148569  148563      66  148569  148566      67  148578  148575      66
  148581  148575      66  148581  148578      67  148590  148587      66  148593
  148587      66  148593  148590      67  148602  148599      66  148605  148599
      66  148605  148602      67  148614  148611      66  148617  148611      66
  148617  148614      67  148626  148623      66  148629  148623      66  148629
  148626      67  148638  148635      66  148641  148635      66  148641  148638
      67  148650  148647      66  148653  148647      66  148653  148650      67
  148662  148659      66  148665  148659      66  148665  148662      67  148674
  148671      66  148677  148671      66  148677  148674      67  148686  148683
      66  148689  148683      66  148689  148686      67  148698  148695      66
  148701  148695      66  148701  148698      67  148710  148707      66  148713
  148707      66  148713  148710      67  148722  148719      66  148725  148719
      66  148725  148722      67  148734  148731      66  148737  148731      66
  148737  148734      67  148746  148743      66  148749  148743      66  148749
  148746      67  148758  148755      66  148761  148755      66  148761  148758
      67  148770  148767      66  148773  148767      66  148773  148770      67
  148782  148779      66  148785  148779      66  148785  148782      67  148794
  148791      66  148797  148791      66  148797  148794      67  148806  148803
      66  148809  148803      66  148809  148806      67  148818  148815      66
  148821  148815      66  148821  148818      67  148830  148827      66  148833
  148827      66  148833  148830      67  148842  148839      66  148845  148839
      66  148845  148842      67  148854  148851      66  148857  148851      66
  148857  148854      67  148866  148863      66  148869  148863      66  148869
  148866      67  148878  148875      66  148881  148875      66  148881  148878
      67  148890  148887      66  148893  148887      66  148893  148890      67
  148902  148899      66  148905  148899      66  148905  148902      67  148914
  148911      66  148917  148911      66  148917  148914      67  148926  148923
      66  148929  148923      66  148929  148926      67  148938  148935      66
  148941  148935      66  148941  148938      67  148950  148947      66  148953
  148947      66  148953  148950      67  148962  148959      66  148965  148959
      66  148965  148962      67  148974  148971      66  148977  148971      66
  148977  148974      67  148986  148983      66  148989  148983      66  148989
  148986      67  148998  148995      66  149001  148995      66  149001  148998
      67  149010  149007      66  149013  149007      66  149013  149010      67
  149022  149019      66  149025  149019      66  149025  149022      67  149034
  149031      66  149037  149031      66  149037  149034      67  149046  149043
      66  149049  149043      66  149049  149046      67  149058  149055      66
  149061  149055      66  149061  149058      67  149070  149067      66  149073
  149067      66  149073  149070      67  149082  149079      66  149085  149079
      66  149085  149082      67  149094  149091      66  149097  149091      66
  149097  149094      67  149106  149103      66  149109  149103      66  149109
  149106      67  149118  149115      66  149121  149115      66  149121  149118
      67  149130  149127      66  149133  149127      66  149133  149130      67
  149142  149139      66  149145  149139      66  149145  149142      67  149154
  149151      66  149157  149151      66  149157  149154      67  149166  149163
      66  149169  149163      66  149169  149166      67  149178  149175      66
  149181  149175      66  149181  149178      67  149190  149187      66  149193
  149187      66  149193  149190      67  149202  149199      66  149205  149199
      66  149205  149202      67  149214  149211      66  149217  149211      66
  149217  149214      67  149226  149223      66  149229  149223      66  149229
  149226      67  149238  149235      66  149241  149235      66  149241  149238
      67  149250  149247      66  149253  149247      66  149253  149250      67
  149262  149259      66  149265  149259      66  149265  149262      67  149274
  149271      66  149277  149271      66  149277  149274      67  149286  149283
      66  149289  149283      66  149289  149286      67  149298  149295      66
  149301  149295      66  149301  149298      67  149310  149307      66  149313
  149307      66  149313  149310      67  149322  149319      66  149325  149319
      66  149325  149322      67  149334  149331      66  149337  149331      66
  149337  149334      67  149346  149343      66  149349  149343      66  149349
  149346      67  149358  149355      66  149361  149355      66  149361  149358
      67  149370  149367      66  149373  149367      66  149373  149370      67
  149382  149379      66  149385  149379      66  149385  149382      67  149394
  149391      66  149397  149391      66  149397  149394      67  149406  149403
      66  149409  149403      66  149409  149406      67  149418  149415      66
  149421  149415      66  149421  149418      67  149430  149427      66  149433
  149427      66  149433  149430      67  149442  149439      66  149445  149439
      66  149445  149442      67  149454  149451      66  149457  149451      66
  149457  149454      67  149466  149463      66  149469  149463      66  149469
  149466      67  149478  149475      66  149481  149475      66  149481  149478
      67  149490  149487      66  149493  149487      66  149493  149490      67
  149502  149499      66  149505  149499      66  149505  149502      67  149514
  149511      66  149517  149511      66  149517  149514      67  149526  149523
      66  149529  149523      66  149529  149526      67  149538  149535      66
  149541  149535      66  149541  149538      67  149550  149547      66  149553
  149547      66  149553  149550      67  149562  149559      66  149565  149559
      66  149565  149562      67  149574  149571      66  149577  149571      66
  149577  149574      67  149586  149583      66  149589  149583      66  149589
  149586      67  149598  149595      66  149601  149595      66  149601  149598
      67  149610  149607      66  149613  149607      66  149613  149610      67
  149622  149619      66  149625  149619      66  149625  149622      67  149634
  149631      66  149637  149631      66  149637  149634      67  149646  149643
      66  149649  149643      66  149649  149646      67  149658  149655      66
  149661  149655      66  149661  149658      67  149670  149667      66  149673
  149667      66  149673  149670      67  149682  149679      66  149685  149679
      66  149685  149682      67  149694  149691      66  149697  149691      66
  149697  149694      67  149706  149703      66  149709  149703      66  149709
  149706      67  149718  149715      66  149721  149715      66  149721  149718
      67  149730  149727      66  149733  149727      66  149733  149730      67
  149742  149739      66  149745  149739      66  149745  149742      67  149754
  149751      66  149757  149751      66  149757  149754      67  149766  149763
      66  149769  149763      66  149769  149766      67  149778  149775      66
  149781  149775      66  149781  149778      67  149790  149787      66  149793
  149787      66  149793  149790      67  149802  149799      66  149805  149799
      66  149805  149802      67  149814  149811      66  149817  149811      66
  149817  149814      67  149826  149823      66  149829  149823      66  149829
  149826      67  149838  149835      66  149841  149835      66  149841  149838
      67  149850  149847      66  149853  149847      66  149853  149850      67
  149862  149859      66  149865  149859      66  149865  149862      67  149874
  149871      66  149877  149871      66  149877  149874      67  149886  149883
      66  149889  149883      66  149889  149886      67  149898  149895      66
  149901  149895      66  149901  149898      67  149910  149907      66  149913
  149907      66  149913  149910      67  149922  149919      66  149925  149919
      66  149925  149922      67  149934  149931      66  149937  149931      66
  149937  149934      67  149946  149943      66  149949  149943      66  149949
  149946      67  149958  149955      66  149961  149955      66  149961  149958
      67  149970  149967      66  149973  149967      66  149973  149970      67
  149982  149979      66  149985  149979      66  149985  149982      67  149994
  149991      66  149997  149991      66  149997  149994      67  150006  150003
      66  150009  150003      66  150009  150006      67  150018  150015      66
  150021  150015      66  150021  150018      67  150030  150027      66  150033
  150027      66  150033  150030      67  150042  150039      66  150045  150039
      66  150045  150042      67  150054  150051      66  150057  150051      66
  150057  150054      67  150066  150063      66  150069  150063      66  150069
  150066      67  150078  150075      66  150081  150075      66  150081  150078
      67  150090  150087      66  150093  150087      66  150093  150090      67
  150102  150099      66  150105  150099      66  150105  150102      67  150114
  150111      66  150117  150111      66  150117  150114      67  150126  150123
      66  150129  150123      66  150129  150126      67  150138  150135      66
  150141  150135      66  150141  150138      67  150150  150147      66  150153
  150147      66  150153  150150      67  150162  150159      66  150165  150159
      66  150165  150162      67  150174  150171      66  150177  150171      66
  150177  150174      67  150186  150183      66  150189  150183      66  150189
  150186      67  150198  150195      66  150201  150195      66  150201  150198
      67  150210  150207      66  150213  150207      66  150213  150210      67
  150222  150219      66  150225  150219      66  150225  150222      67  150234
  150231      66  150237  150231      66  150237  150234      67  150246  150243
      66  150249  150243      66  150249  150246      67  150258  150255      66
  150261  150255      66  150261  150258      67  150270  150267      66  150273
  150267      66  150273  150270      67  150282  150279      66  150285  150279
      66  150285  150282      67  150294  150291      66  150297  150291      66
  150297  150294      67  150306  150303      66  150309  150303      66  150309
  150306      67  150318  150315      66  150321  150315      66  150321  150318
      67  150330  150327      66  150333  150327      66  150333  150330      67
  150342  150339      66  150345  150339      66  150345  150342      67  150354
  150351      66  150357  150351      66  150357  150354      67  150366  150363
      66  150369  150363      66  150369  150366      67  150378  150375      66
  150381  150375      66  150381  150378      67  150390  150387      66  150393
  150387      66  150393  150390      67  150402  150399      66  150405  150399
      66  150405  150402      67  150414  150411      66  150417  150411      66
  150417  150414      67  150426  150423      66  150429  150423      66  150429
  150426      67  150438  150435      66  150441  150435      66  150441  150438
      67  150450  150447      66  150453  150447      66  150453  150450      67
  150462  150459      66  150465  150459      66  150465  150462      67  150474
  150471      66  150477  150471      66  150477  150474      67  150486  150483
      66  150489  150483      66  150489  150486      67  150498  150495      66
  150501  150495      66  150501  150498      67  150510  150507      66  150513
  150507      66  150513  150510      67  150522  150519      66  150525  150519
      66  150525  150522      67  150534  150531      66  150537  150531      66
  150537  150534      67  150546  150543      66  150549  150543      66  150549
  150546      67  150558  150555      66  150561  150555      66  150561  150558
      67  150570  150567      66  150573  150567      66  150573  150570      67
  150582  150579      66  150585  150579      66  150585  150582      67  150594
  150591      66  150597  150591      66  150597  150594      67  150606  150603
      66  150609  150603      66  150609  150606      67  150618  150615      66
  150621  150615      66  150621  150618      67  150630  150627      66  150633
  150627      66  150633  150630      67  150642  150639      66  150645  150639
      66  150645  150642      67  150654  150651      66  150657  150651      66
  150657  150654      67  150666  150663      66  150669  150663      66  150669
  150666      67  150678  150675      66  150681  150675      66  150681  150678
      67  150690  150687      66  150693  150687      66  150693  150690      67
  150702  150699      66  150705  150699      66  150705  150702      67  150714
  150711      66  150717  150711      66  150717  150714      67  150726  150723
      66  150729  150723      66  150729  150726      67  150738  150735      66
  150741  150735      66  150741  150738      67  150750  150747      66  150753
  150747      66  150753  150750      67  150762  150759      66  150765  150759
      66  150765  150762      67  150774  150771      66  150777  150771      66
  150777  150774      67  150786  150783      66  150789  150783      66  150789
  150786      67  150798  150795      66  150801  150795      66  150801  150798
      67  150810  150807      66  150813  150807      66  150813  150810      67
  150822  150819      66  150825  150819      66  150825  150822      67  150834
  150831      66  150837  150831      66  150837  150834      67  150846  150843
      66  150849  150843      66  150849  150846      67  150858  150855      66
  150861  150855      66  150861  150858      67  150870  150867      66  150873
  150867      66  150873  150870      67  150882  150879      66  150885  150879
      66  150885  150882      67  150894  150891      66  150897  150891      66
  150897  150894      67  150906  150903      66  150909  150903      66  150909
  150906      67  150918  150915      66  150921  150915      66  150921  150918
      67  150930  150927      66  150933  150927      66  150933  150930      67
  150942  150939      66  150945  150939      66  150945  150942      67  150954
  150951      66  150957  150951      66  150957  150954      67  150966  150963
      66  150969  150963      66  150969  150966      67  150978  150975      66
  150981  150975      66  150981  150978      67  150990  150987      66  150993
  150987      66  150993  150990      67  151002  150999      66  151005  150999
      66  151005  151002      67  151014  151011      66  151017  151011      66
  151017  151014      67  151026  151023      66  151029  151023      66  151029
  151026      67  151038  151035      66  151041  151035      66  151041  151038
      67  151050  151047      66  151053  151047      66  151053  151050      67
  151062  151059      66  151065  151059      66  151065  151062      67  151074
  151071      66  151077  151071      66  151077  151074      67  151086  151083
      66  151089  151083      66  151089  151086      67  151098  151095      66
  151101  151095      66  151101  151098      67  151110  151107      66  151113
  151107      66  151113  151110      67  151122  151119      66  151125  151119
      66  151125  151122      67  151134  151131      66  151137  151131      66
  151137  151134      67  151146  151143      66  151149  151143      66  151149
  151146      67  151158  151155      66  151161  151155      66  151161  151158
      67  151170  151167      66  151173  151167      66  151173  151170      67
  151182  151179      66  151185  151179      66  151185  151182      67  151194
  151191      66  151197  151191      66  151197  151194      67  151206  151203
      66  151209  151203      66  151209  151206      67  151218  151215      66
  151221  151215      66  151221  151218      67  151230  151227      66  151233
  151227      66  151233  151230      67  151242  151239      66  151245  151239
      66  151245  151242      67  151254  151251      66  151257  151251      66
  151257  151254      67  151266  151263      66  151269  151263      66  151269
  151266      67  151278  151275      66  151281  151275      66  151281  151278
      67  151290  151287      66  151293  151287      66  151293  151290      67
  151302  151299      66  151305  151299      66  151305  151302      67  151314
  151311      66  151317  151311      66  151317  151314      67  151326  151323
      66  151329  151323      66  151329  151326      67  151338  151335      66
  151341  151335      66  151341  151338      67  151350  151347      66  151353
  151347      66  151353  151350      67  151362  151359      66  151365  151359
      66  151365  151362      67  151374  151371      66  151377  151371      66
  151377  151374      67  151386  151383      66  151389  151383      66  151389
  151386      67  151398  151395      66  151401  151395      66  151401  151398
      67  151410  151407      66  151413  151407      66  151413  151410      67
  151422  151419      66  151425  151419      66  151425  151422      67  151434
  151431      66  151437  151431      66  151437  151434      67  151446  151443
      66  151449  151443      66  151449  151446      67  151458  151455      66
  151461  151455      66  151461  151458      67  151470  151467      66  151473
  151467      66  151473  151470      67  151482  151479      66  151485  151479
      66  151485  151482      67  151494  151491      66  151497  151491      66
  151497  151494      67  151506  151503      66  151509  151503      66  151509
  151506      67  151518  151515      66  151521  151515      66  151521  151518
      67  151530  151527      66  151533  151527      66  151533  151530      67
  151542  151539      66  151545  151539      66  151545  151542      67  151554
  151551      66  151557  151551      66  151557  151554      67  151566  151563
      66  151569  151563      66  151569  151566      67  151578  151575      66
  151581  151575      66  151581  151578      67  151590  151587      66  151593
  151587      66  151593  151590      67  151602  151599      66  151605  151599
      66  151605  151602      67  151614  151611      66  151617  151611      66
  151617  151614      67  151626  151623      66  151629  151623      66  151629
  151626      67  151638  151635      66  151641  151635      66  151641  151638
      67  151650  151647      66  151653  151647      66  151653  151650      67
  151662  151659      66  151665  151659      66  151665  151662      67  151674
  151671      66  151677  151671      66  151677  151674      67  151686  151683
      66  151689  151683      66  151689  151686      67  151698  151695      66
  151701  151695      66  151701  151698      67  151710  151707      66  151713
  151707      66  151713  151710      67  151722  151719      66  151725  151719
      66  151725  151722      67  151734  151731      66  151737  151731      66
  151737  151734      67  151746  151743      66  151749  151743      66  151749
  151746      67  151758  151755      66  151761  151755      66  151761  151758
      67  151770  151767      66  151773  151767      66  151773  151770      67
  151782  151779      66  151785  151779      66  151785  151782      67  151794
  151791      66  151797  151791      66  151797  151794      67  151806  151803
      66  151809  151803      66  151809  151806      67  151818  151815      66
  151821  151815      66  151821  151818      67  151830  151827      66  151833
  151827      66  151833  151830      67  151842  151839      66  151845  151839
      66  151845  151842      67  151854  151851      66  151857  151851      66
  151857  151854      67  151866  151863      66  151869  151863      66  151869
  151866      67  151878  151875      66  151881  151875      66  151881  151878
      67  151890  151887      66  151893  151887      66  151893  151890      67
  151902  151899      66  151905  151899      66  151905  151902      67  151914
  151911      66  151917  151911      66  151917  151914      67  151926  151923
      66  151929  151923      66  151929  151926      67  151938  151935      66
  151941  151935      66  151941  151938      67  151950  151947      66  151953
  151947      66  151953  151950      67  151962  151959      66  151965  151959
      66  151965  151962      67  151974  151971      66  151977  151971      66
  151977  151974      67  151986  151983      66  151989  151983      66  151989
  151986      67  151998  151995      66  152001  151995      66  152001  151998
      67  152010  152007      66  152013  152007      66  152013  152010      67
  152022  152019      66  152025  152019      66  152025  152022      67  152034
  152031      66  152037  152031      66  152037  152034      67  152046  152043
      66  152049  152043      66  152049  152046      67  152058  152055      66
  152061  152055      66  152061  152058      67  152070  152067      66  152073
  152067      66  152073  152070      67  152082  152079      66  152085  152079
      66  152085  152082      67  152094  152091      66  152097  152091      66
  152097  152094      67  152106  152103      66  152109  152103      66  152109
  152106      67  152118  152115      66  152121  152115      66  152121  152118
      67  152130  152127      66  152133  152127      66  152133  152130      67
  152142  152139      66  152145  152139      66  152145  152142      67  152154
  152151      66  152157  152151      66  152157  152154      67  152166  152163
      66  152169  152163      66  152169  152166      67  152178  152175      66
  152181  152175      66  152181  152178      67  152190  152187      66  152193
  152187      66  152193  152190      67  152202  152199      66  152205  152199
      66  152205  152202      67  152214  152211      66  152217  152211      66
  152217  152214      67  152226  152223      66  152229  152223      66  152229
  152226      67  152238  152235      66  152241  152235      66  152241  152238
      67  152250  152247      66  152253  152247      66  152253  152250      67
  152262  152259      66  152265  152259      66  152265  152262      67  152274
  152271      66  152277  152271      66  152277  152274      67  152286  152283
      66  152289  152283      66  152289  152286      67  152298  152295      66
  152301  152295      66  152301  152298      67  152310  152307      66  152313
  152307      66  152313  152310      67  152322  152319      66  152325  152319
      66  152325  152322      67  152334  152331      66  152337  152331      66
  152337  152334      67  152346  152343      66  152349  152343      66  152349
  152346      67  152358  152355      66  152361  152355      66  152361  152358
      67  152370  152367      66  152373  152367      66  152373  152370      67
  152382  152379      66  152385  152379      66  152385  152382      67  152394
  152391      66  152397  152391      66  152397  152394      67  152406  152403
      66  152409  152403      66  152409  152406      67  152418  152415      66
  152421  152415      66  152421  152418      67  152430  152427      66  152433
  152427      66  152433  152430      67  152442  152439      66  152445  152439
      66  152445  152442      67  152454  152451      66  152457  152451      66
  152457  152454      67  152466  152463      66  152469  152463      66  152469
  152466      67  152478  152475      66  152481  152475      66  152481  152478
      67  152490  152487      66  152493  152487      66  152493  152490      67
  152502  152499      66  152505  152499      66  152505  152502      67  152514
  152511      66  152517  152511      66  152517  152514      67  152526  152523
      66  152529  152523      66  152529  152526      67  152538  152535      66
  152541  152535      66  152541  152538      67  152550  152547      66  152553
  152547      66  152553  152550      67  152562  152559      66  152565  152559
      66  152565  152562      67  152574  152571      66  152577  152571      66
  152577  152574      67  152586  152583      66  152589  152583      66  152589
  152586      67  152598  152595      66  152601  152595      66  152601  152598
      67  152610  152607      66  152613  152607      66  152613  152610      67
  152622  152619      66  152625  152619      66  152625  152622      67  152634
  152631      66  152637  152631      66  152637  152634      67  152646  152643
      66  152649  152643      66  152649  152646      67  152658  152655      66
  152661  152655      66  152661  152658      67  152670  152667      66  152673
  152667      66  152673  152670      67  152682  152679      66  152685  152679
      66  152685  152682      67  152694  152691      66  152697  152691      66
  152697  152694      67  152706  152703      66  152709  152703      66  152709
  152706      67  152718  152715      66  152721  152715      66  152721  152718
      67  152730  152727      66  152733  152727      66  152733  152730      67
  152742  152739      66  152745  152739      66  152745  152742      67  152754
  152751      66  152757  152751      66  152757  152754      67  152766  152763
      66  152769  152763      66  152769  152766      67  152778  152775      66
  152781  152775      66  152781  152778      67  152790  152787      66  152793
  152787      66  152793  152790      67  152802  152799      66  152805  152799
      66  152805  152802      67  152814  152811      66  152817  152811      66
  152817  152814      67  152826  152823      66  152829  152823      66  152829
  152826      67  152838  152835      66  152841  152835      66  152841  152838
      67  152850  152847      66  152853  152847      66  152853  152850      67
  152862  152859      66  152865  152859      66  152865  152862      67  152874
  152871      66  152877  152871      66  152877  152874      67  152886  152883
      66  152889  152883      66  152889  152886      67  152898  152895      66
  152901  152895      66  152901  152898      67  152910  152907      66  152913
  152907      66  152913  152910      67  152922  152919      66  152925  152919
      66  152925  152922      67  152934  152931      66  152937  152931      66
  152937  152934      67  152946  152943      66  152949  152943      66  152949
  152946      67  152958  152955      66  152961  152955      66  152961  152958
      67  152970  152967      66  152973  152967      66  152973  152970      67
  152982  152979      66  152985  152979      66  152985  152982      67  152994
  152991      66  152997  152991      66  152997  152994      67  153006  153003
      66  153009  153003      66  153009  153006      67  153018  153015      66
  153021  153015      66  153021  153018      67  153030  153027      66  153033
  153027      66  153033  153030      67  153042  153039      66  153045  153039
      66  153045  153042      67  153054  153051      66  153057  153051      66
  153057  153054      67  153066  153063      66  153069  153063      66  153069
  153066      67  153078  153075      66  153081  153075      66  153081  153078
      67  153090  153087      66  153093  153087      66  153093  153090      67
  153102  153099      66  153105  153099      66  153105  153102      67  153114
  153111      66  153117  153111      66  153117  153114      67  153126  153123
      66  153129  153123      66  153129  153126      67  153138  153135      66
  153141  153135      66  153141  153138      67  153150  153147      66  153153
  153147      66  153153  153150      67  153162  153159      66  153165  153159
      66  153165  153162      67  153174  153171      66  153177  153171      66
  153177  153174      67  153186  153183      66  153189  153183      66  153189
  153186      67  153198  153195      66  153201  153195      66  153201  153198
      67  153210  153207      66  153213  153207      66  153213  153210      67
  153222  153219      66  153225  153219      66  153225  153222      67  153234
  153231      66  153237  153231      66  153237  153234      67  153246  153243
      66  153249  153243      66  153249  153246      67  153258  153255      66
  153261  153255      66  153261  153258      67  153270  153267      66  153273
  153267      66  153273  153270      67  153282  153279      66  153285  153279
      66  153285  153282      67  153294  153291      66  153297  153291      66
  153297  153294      67  153306  153303      66  153309  153303      66  153309
  153306      67  153318  153315      66  153321  153315      66  153321  153318
      67  153330  153327      66  153333  153327      66  153333  153330      67
  153342  153339      66  153345  153339      66  153345  153342      67  153354
  153351      66  153357  153351      66  153357  153354      67  153366  153363
      66  153369  153363      66  153369  153366      67  153378  153375      66
  153381  153375      66  153381  153378      67  153390  153387      66  153393
  153387      66  153393  153390      67  153402  153399      66  153405  153399
      66  153405  153402      67  153414  153411      66  153417  153411      66
  153417  153414      67  153426  153423      66  153429  153423      66  153429
  153426      67  153438  153435      66  153441  153435      66  153441  153438
      67  153450  153447      66  153453  153447      66  153453  153450      67
  153462  153459      66  153465  153459      66  153465  153462      67  153474
  153471      66  153477  153471      66  153477  153474      67  153486  153483
      66  153489  153483      66  153489  153486      67  153498  153495      66
  153501  153495      66  153501  153498      67  153510  153507      66  153513
  153507      66  153513  153510      67  153522  153519      66  153525  153519
      66  153525  153522      67  153534  153531      66  153537  153531      66
  153537  153534      67  153546  153543      66  153549  153543      66  153549
  153546      67  153558  153555      66  153561  153555      66  153561  153558
      67  153570  153567      66  153573  153567      66  153573  153570      67
  153582  153579      66  153585  153579      66  153585  153582      67  153594
  153591      66  153597  153591      66  153597  153594      67  153606  153603
      66  153609  153603      66  153609  153606      67  153618  153615      66
  153621  153615      66  153621  153618      67  153630  153627      66  153633
  153627      66  153633  153630      67  153642  153639      66  153645  153639
      66  153645  153642      67  153654  153651      66  153657  153651      66
  153657  153654      67  153666  153663      66  153669  153663      66  153669
  153666      67  153678  153675      66  153681  153675      66  153681  153678
      67  153690  153687      66  153693  153687      66  153693  153690      67
  153702  153699      66  153705  153699      66  153705  153702      67  153714
  153711      66  153717  153711      66  153717  153714      67  153726  153723
      66  153729  153723      66  153729  153726      67  153738  153735      66
  153741  153735      66  153741  153738      67  153750  153747      66  153753
  153747      66  153753  153750      67  153762  153759      66  153765  153759
      66  153765  153762      67  153774  153771      66  153777  153771      66
  153777  153774      67  153786  153783      66  153789  153783      66  153789
  153786      67  153798  153795      66  153801  153795      66  153801  153798
      67  153810  153807      66  153813  153807      66  153813  153810      67
  153822  153819      66  153825  153819      66  153825  153822      67  153834
  153831      66  153837  153831      66  153837  153834      67  153846  153843
      66  153849  153843      66  153849  153846      67  153858  153855      66
  153861  153855      66  153861  153858      67  153870  153867      66  153873
  153867      66  153873  153870      67  153882  153879      66  153885  153879
      66  153885  153882      67  153894  153891      66  153897  153891      66
  153897  153894      67  153906  153903      66  153909  153903      66  153909
  153906      67  153918  153915      66  153921  153915      66  153921  153918
      67  153930  153927      66  153933  153927      66  153933  153930      67
  153942  153939      66  153945  153939      66  153945  153942      67  153954
  153951      66  153957  153951      66  153957  153954      67  153966  153963
      66  153969  153963      66  153969  153966      67  153978  153975      66
  153981  153975      66  153981  153978      67  153990  153987      66  153993
  153987      66  153993  153990      67  154002  153999      66  154005  153999
      66  154005  154002      67  154014  154011      66  154017  154011      66
  154017  154014      67  154026  154023      66  154029  154023      66  154029
  154026      67  154038  154035      66  154041  154035      66  154041  154038
      67  154050  154047      66  154053  154047      66  154053  154050      67
  154062  154059      66  154065  154059      66  154065  154062      67  154074
  154071      66  154077  154071      66  154077  154074      67  154086  154083
      66  154089  154083      66  154089  154086      67  154098  154095      66
  154101  154095      66  154101  154098      67  154110  154107      66  154113
  154107      66  154113  154110      67  154122  154119      66  154125  154119
      66  154125  154122      67  154134  154131      66  154137  154131      66
  154137  154134      67  154146  154143      66  154149  154143      66  154149
  154146      67  154158  154155      66  154161  154155      66  154161  154158
      67  154170  154167      66  154173  154167      66  154173  154170      67
  154182  154179      66  154185  154179      66  154185  154182      67  154194
  154191      66  154197  154191      66  154197  154194      67  154206  154203
      66  154209  154203      66  154209  154206      67  154218  154215      66
  154221  154215      66  154221  154218      67  154230  154227      66  154233
  154227      66  154233  154230      67  154242  154239      66  154245  154239
      66  154245  154242      67  154254  154251      66  154257  154251      66
  154257  154254      67  154266  154263      66  154269  154263      66  154269
  154266      67  154278  154275      66  154281  154275      66  154281  154278
      67  154290  154287      66  154293  154287      66  154293  154290      67
  154302  154299      66  154305  154299      66  154305  154302      67  154314
  154311      66  154317  154311      66  154317  154314      67  154326  154323
      66  154329  154323      66  154329  154326      67  154338  154335      66
  154341  154335      66  154341  154338      67  154350  154347      66  154353
  154347      66  154353  154350      67  154362  154359      66  154365  154359
      66  154365  154362      67  154374  154371      66  154377  154371      66
  154377  154374      67  154386  154383      66  154389  154383      66  154389
  154386      67  154398  154395      66  154401  154395      66  154401  154398
      67  154410  154407      66  154413  154407      66  154413  154410      67
  154422  154419      66  154425  154419      66  154425  154422      67  154434
  154431      66  154437  154431      66  154437  154434      67  154446  154443
      66  154449  154443      66  154449  154446      67  154458  154455      66
  154461  154455      66  154461  154458      67  154470  154467      66  154473
  154467      66  154473  154470      67  154482  154479      66  154485  154479
      66  154485  154482      67  154494  154491      66  154497  154491      66
  154497  154494      67  154506  154503      66  154509  154503      66  154509
  154506      67  154518  154515      66  154521  154515      66  154521  154518
      67  154530  154527      66  154533  154527      66  154533  154530      67
  154542  154539      66  154545  154539      66  154545  154542      67  154554
  154551      66  154557  154551      66  154557  154554      67  154566  154563
      66  154569  154563      66  154569  154566      67  154578  154575      66
  154581  154575      66  154581  154578      67  154590  154587      66  154593
  154587      66  154593  154590      67  154602  154599      66  154605  154599
      66  154605  154602      67  154614  154611      66  154617  154611      66
  154617  154614      67  154626  154623      66  154629  154623      66  154629
  154626      67  154638  154635      66  154641  154635      66  154641  154638
      67  154650  154647      66  154653  154647      66  154653  154650      67
  154662  154659      66  154665  154659      66  154665  154662      67  154674
  154671      66  154677  154671      66  154677  154674      67  154686  154683
      66  154689  154683      66  154689  154686      67  154698  154695      66
  154701  154695      66  154701  154698      67  154710  154707      66  154713
  154707      66  154713  154710      67  154722  154719      66  154725  154719
      66  154725  154722      67  154734  154731      66  154737  154731      66
  154737  154734      67  154746  154743      66  154749  154743      66  154749
  154746      67  154758  154755      66  154761  154755      66  154761  154758
      67  154770  154767      66  154773  154767      66  154773  154770      67
  154782  154779      66  154785  154779      66  154785  154782      67  154794
  154791      66  154797  154791      66  154797  154794      67  154806  154803
      66  154809  154803      66  154809  154806      67  154818  154815      66
  154821  154815      66  154821  154818      67  154830  154827      66  154833
  154827      66  154833  154830      67  154842  154839      66  154845  154839
      66  154845  154842      67  154854  154851      66  154857  154851      66
  154857  154854      67  154866  154863      66  154869  154863      66  154869
  154866      67  154878  154875      66  154881  154875      66  154881  154878
      67  154890  154887      66  154893  154887      66  154893  154890      67
  154902  154899      66  154905  154899      66  154905  154902      67  154914
  154911      66  154917  154911      66  154917  154914      67  154926  154923
      66  154929  154923      66  154929  154926      67  154938  154935      66
  154941  154935      66  154941  154938      67  154950  154947      66  154953
  154947      66  154953  154950      67  154962  154959      66  154965  154959
      66  154965  154962      67  154974  154971      66  154977  154971      66
  154977  154974      67  154986  154983      66  154989  154983      66  154989
  154986      67  154998  154995      66  155001  154995      66  155001  154998
      67  155010  155007      66  155013  155007      66  155013  155010      67
  155022  155019      66  155025  155019      66  155025  155022      67  155034
  155031      66  155037  155031      66  155037  155034      67  155046  155043
      66  155049  155043      66  155049  155046      67  155058  155055      66
  155061  155055      66  155061  155058      67  155070  155067      66  155073
  155067      66  155073  155070      67  155082  155079      66  155085  155079
      66  155085  155082      67  155094  155091      66  155097  155091      66
  155097  155094      67  155106  155103      66  155109  155103      66  155109
  155106      67  155118  155115      66  155121  155115      66  155121  155118
      67  155130  155127      66  155133  155127      66  155133  155130      67
  155142  155139      66  155145  155139      66  155145  155142      67  155154
  155151      66  155157  155151      66  155157  155154      67  155166  155163
      66  155169  155163      66  155169  155166      67  155178  155175      66
  155181  155175      66  155181  155178      67  155190  155187      66  155193
  155187      66  155193  155190      67  155202  155199      66  155205  155199
      66  155205  155202      67  155214  155211      66  155217  155211      66
  155217  155214      67  155226  155223      66  155229  155223      66  155229
  155226      67  155238  155235      66  155241  155235      66  155241  155238
      67  155250  155247      66  155253  155247      66  155253  155250      67
  155262  155259      66  155265  155259      66  155265  155262      67  155274
  155271      66  155277  155271      66  155277  155274      67  155286  155283
      66  155289  155283      66  155289  155286      67  155298  155295      66
  155301  155295      66  155301  155298      67
%FLAG BONDS_WITHOUT_HYDROGEN                                                    
%FORMAT(10I8)                                                                   
      12      15       1      12      18       2       3      12       4      84
      87       1      84      90       2      75      81       6      69      75
       7      63      69       7      57      63       7      54      57       8
      54      81       9      48      54      11      42      48      13      39
      42      14      39      81      15      30      39      16      24      30
      18      24      84      19      18      24      21     132     135       1
     132     138       2     102     108      23     102     120      23      96
     102      24      96     132      19      90      96      21     174     177
       1     174     180       2     150     156      23     150     168      27
     144     150      24     144     174      19     138     144      21     225
     228       1     225     231       2     216     219      29     210     216
      31     204     210      32     201     204      33     201     219      34
     192     201      35     186     192      18     186     225      19     180
     186      21     297     300       1     297     333       2     276     279
      37     276     288      37     270     276      37     261     270      39
     252     261      41     243     252      41     237     243      42     237
     297      19     231     237      21     330     501      44     327     330
      45     324     327      47     321     324      45     318     321      44
     315     318      44     309     312      48     309     315      48     309
     333      49     303     306       1     303     309      50     303     378
       2     402     405       1     402     408       2     384     390      18
     384     402      19     378     384      21     423     426       1     423
     429       2     414     423      19     408     414      21     480     483
       1     480     504       2     450     456      23     450     468      23
     441     450      52     435     441      53     435     480      19     429
     435      21     498     501      44     492     495      48     492     498
      48     492     504      49     486     489       1     486     492      50
     486     531       2     558     561       1     558     564       2     543
     552      55     537     543      53     537     558      19     531     537
      21     630     633       1     630     636       2     609     612      37
     609     621      37     603     609      37     594     603      39     585
     594      41     576     585      41     570     576      42     570     630
      19     564     570      21     663     666       1     663     669       2
     648     657      55     642     648      53     642     663      19     636
     642      21     684     687       1     684     690       2     675     684
      19     669     675      21     705     708       1     705     711       2
     696     705      19     690     696      21     753     756       1     753
     759       2     723     729      23     723     741      23     717     723
      24     717     753      19     711     717      21     801     804       1
     801     807       2     771     777      23     771     789      23     765
     771      24     765     801      19     759     765      21     867     870
       1     867     873       2     846     855      58     837     846      41
     828     837      41     819     828      41     813     819      42     813
     867      19     807     813      21     909     912       1     909     915
       2     894     897       1     894     900       2     885     894      59
     879     885      53     879     909      19     873     879      21     951
     954       1     951     957       2     936     939       1     936     942
       2     927     936      59     921     927      53     921     951      19
     915     921      21    1011    1014       1    1011    1017       2     999
    1005       7     993     999       7     987     993       7     981     987
       7     978     981       7     978    1005       7     969     978      60
     963     969      18     963    1011      19     957     963      21    1059
    1062       1    1059    1065       2    1029    1035      23    1029    1047
      23    1023    1029      24    1023    1059      19    1017    1023      21
    1101    1104       1    1101    1107       2    1095    1101      19    1086
    1095      18    1077    1086      61    1068    1077      61    1065    1068
      63    1065    1095      21    1143    1146       1    1143    1149       2
    1119    1125      23    1119    1137      27    1113    1119      24    1113
    1143      19    1107    1113      21    1179    1182       1    1179    1185
       2    1170    1173      64    1170    1176      64    1161    1170      65
    1155    1161      53    1155    1179      19    1149    1155      21    1227
    1230       1    1227    1233       2    1197    1203      23    1197    1215
      23    1191    1197      24    1191    1227      19    1185    1191      21
    1248    1251       1    1248    1254       2    1239    1248      19    1233
    1239      21    1290    1293       1    1290    1296       2    1284    1290
      19    1275    1284      18    1266    1275      61    1257    1266      61
    1254    1257      63    1254    1284      21    1350    1353       1    1350
    1356       2    1338    1344       7    1332    1338       7    1326    1332
       7    1320    1326       7    1317    1320       7    1317    1344       7
    1308    1317      60    1302    1308      18    1302    1350      19    1296
    1302      21    1380    1383       1    1380    1386       2    1362    1368
      18    1362    1380      19    1356    1362      21    1440    1443       1
    1440    1446       2    1428    1434       7    1422    1428       7    1416
    1422       7    1410    1416       7    1407    1410       7    1407    1434
       7    1398    1407      60    1392    1398      18    1392    1440      19
    1386    1392      21    1596    1587      68    1608    1599      68    1620
    1611      68    1632    1623      68    1644    1635      68    1656    1647
      68    1668    1659      68    1680    1671      68    1692    1683      68
    1704    1695      68    1716    1707      68    1728    1719      68    1740
    1731      68    1752    1743      68    1764    1755      68    1776    1767
      68    1788    1779      68    1800    1791      68    1812    1803      68
    1824    1815      68    1836    1827      68    1848    1839      68    1860
    1851      68    1872    1863      68    1884    1875      68    1896    1887
      68    1908    1899      68    1920    1911      68    1932    1923      68
    1944    1935      68    1956    1947      68    1968    1959      68    1980
    1971      68    1992    1983      68    2004    1995      68    2016    2007
      68    2028    2019      68    2040    2031      68    2052    2043      68
    2064    2055      68    2076    2067      68    2088    2079      68    2100
    2091      68    2112    2103      68    2124    2115      68    2136    2127
      68    2148    2139      68    2160    2151      68    2172    2163      68
    2184    2175      68    2196    2187      68    2208    2199      68    2220
    2211      68    2232    2223      68    2244    2235      68    2256    2247
      68    2268    2259      68    2280    2271      68    2292    2283      68
    2304    2295      68    2316    2307      68    2328    2319      68    2340
    2331      68    2352    2343      68    2364    2355      68    2376    2367
      68    2388    2379      68    2400    2391      68    2412    2403      68
    2424    2415      68    2436    2427      68    2448    2439      68    2460
    2451      68    2472    2463      68    2484    2475      68    2496    2487
      68    2508    2499      68    2520    2511      68    2532    2523      68
    2544    2535      68    2556    2547      68    2568    2559      68    2580
    2571      68    2592    2583      68    2604    2595      68    2616    2607
      68    2628    2619      68    2640    2631      68    2652    2643      68
    2664    2655      68    2676    2667      68    2688    2679      68    2700
    2691      68    2712    2703      68    2724    2715      68    2736    2727
      68    2748    2739      68    2760    2751      68    2772    2763      68
    2784    2775      68    2796    2787      68    2808    2799      68    2820
    2811      68    2832    2823      68    2844    2835      68    2856    2847
      68    2868    2859      68    2880    2871      68    2892    2883      68
    2904    2895      68    2916    2907      68    2928    2919      68    2940
    2931      68    2952    2943      68    2964    2955      68    2976    2967
      68    2988    2979      68    3000    2991      68    3012    3003      68
    3024    3015      68    3036    3027      68    3048    3039      68    3060
    3051      68    3072    3063      68    3084    3075      68    3096    3087
      68    3108    3099      68    3120    3111      68    3132    3123      68
    3144    3135      68    3156    3147      68    3168    3159      68    3180
    3171      68    3192    3183      68    3204    3195      68    3216    3207
      68    3228    3219      68    3240    3231      68    3252    3243      68
    3264    3255      68    3276    3267      68    3288    3279      68    3300
    3291      68    3312    3303      68    3324    3315      68    3336    3327
      68    3348    3339      68    3360    3351      68    3372    3363      68
    3384    3375      68    3396    3387      68    3408    3399      68    3420
    3411      68    3432    3423      68    3444    3435      68    3456    3447
      68    3468    3459      68    3480    3471      68    3492    3483      68
    3504    3495      68    3516    3507      68    3528    3519      68    3540
    3531      68    3552    3543      68    3564    3555      68    3576    3567
      68    3588    3579      68    3600    3591      68    3612    3603      68
    3624    3615      68    3636    3627      68    3648    3639      68    3660
    3651      68    3672    3663      68    3684    3675      68    3696    3687
      68    3708    3699      68    3720    3711      68    3732    3723      68
    3744    3735      68    3756    3747      68    3768    3759      68    3780
    3771      68    3792    3783      68    3804    3795      68    3816    3807
      68    3828    3819      68    3840    3831      68    3852    3843      68
    3864    3855      68    3876    3867      68    3888    3879      68    3900
    3891      68    3912    3903      68    3924    3915      68    3936    3927
      68    3948    3939      68    3960    3951      68    3972    3963      68
    3984    3975      68    3996    3987      68    4008    3999      68    4020
    4011      68    4032    4023      68    4044    4035      68    4056    4047
      68    4068    4059      68    4080    4071      68    4092    4083      68
    4104    4095      68    4116    4107      68    4128    4119      68    4140
    4131      68    4152    4143      68    4164    4155      68    4176    4167
      68    4188    4179      68    4200    4191      68    4212    4203      68
    4224    4215      68    4236    4227      68    4248    4239      68    4260
    4251      68    4272    4263      68    4284    4275      68    4296    4287
      68    4308    4299      68    4320    4311      68    4332    4323      68
    4344    4335      68    4356    4347      68    4368    4359      68    4380
    4371      68    4392    4383      68    4404    4395      68    4416    4407
      68    4428    4419      68    4440    4431      68    4452    4443      68
    4464    4455      68    4476    4467      68    4488    4479      68    4500
    4491      68    4512    4503      68    4524    4515      68    4536    4527
      68    4548    4539      68    4560    4551      68    4572    4563      68
    4584    4575      68    4596    4587      68    4608    4599      68    4620
    4611      68    4632    4623      68    4644    4635      68    4656    4647
      68    4668    4659      68    4680    4671      68    4692    4683      68
    4704    4695      68    4716    4707      68    4728    4719      68    4740
    4731      68    4752    4743      68    4764    4755      68    4776    4767
      68    4788    4779      68    4800    4791      68    4812    4803      68
    4824    4815      68    4836    4827      68    4848    4839      68    4860
    4851      68    4872    4863      68    4884    4875      68    4896    4887
      68    4908    4899      68    4920    4911      68    4932    4923      68
    4944    4935      68    4956    4947      68    4968    4959      68    4980
    4971      68    4992    4983      68    5004    4995      68    5016    5007
      68    5028    5019      68    5040    5031      68    5052    5043      68
    5064    5055      68    5076    5067      68    5088    5079      68    5100
    5091      68    5112    5103      68    5124    5115      68    5136    5127
      68    5148    5139      68    5160    5151      68    5172    5163      68
    5184    5175      68    5196    5187      68    5208    5199      68    5220
    5211      68    5232    5223      68    5244    5235      68    5256    5247
      68    5268    5259      68    5280    5271      68    5292    5283      68
    5304    5295      68    5316    5307      68    5328    5319      68    5340
    5331      68    5352    5343      68    5364    5355      68    5376    5367
      68    5388    5379      68    5400    5391      68    5412    5403      68
    5424    5415      68    5436    5427      68    5448    5439      68    5460
    5451      68    5472    5463      68    5484    5475      68    5496    5487
      68    5508    5499      68    5520    5511      68    5532    5523      68
    5544    5535      68    5556    5547      68    5568    5559      68    5580
    5571      68    5592    5583      68    5604    5595      68    5616    5607
      68    5628    5619      68    5640    5631      68    5652    5643      68
    5664    5655      68    5676    5667      68    5688    5679      68    5700
    5691      68    5712    5703      68    5724    5715      68    5736    5727
      68    5748    5739      68    5760    5751      68    5772    5763      68
    5784    5775      68    5796    5787      68    5808    5799      68    5820
    5811      68    5832    5823      68    5844    5835      68    5856    5847
      68    5868    5859      68    5880    5871      68    5892    5883      68
    5904    5895      68    5916    5907      68    5928    5919      68    5940
    5931      68    5952    5943      68    5964    5955      68    5976    5967
      68    5988    5979      68    6000    5991      68    6012    6003      68
    6024    6015      68    6036    6027      68    6048    6039      68    6060
    6051      68    6072    6063      68    6084    6075      68    6096    6087
      68    6108    6099      68    6120    6111      68    6132    6123      68
    6144    6135      68    6156    6147      68    6168    6159      68    6180
    6171      68    6192    6183      68    6204    6195      68    6216    6207
      68    6228    6219      68    6240    6231      68    6252    6243      68
    6264    6255      68    6276    6267      68    6288    6279      68    6300
    6291      68    6312    6303      68    6324    6315      68    6336    6327
      68    6348    6339      68    6360    6351      68    6372    6363      68
    6384    6375      68    6396    6387      68    6408    6399      68    6420
    6411      68    6432    6423      68    6444    6435      68    6456    6447
      68    6468    6459      68    6480    6471      68    6492    6483      68
    6504    6495      68    6516    6507      68    6528    6519      68    6540
    6531      68    6552    6543      68    6564    6555      68    6576    6567
      68    6588    6579      68    6600    6591      68    6612    6603      68
    6624    6615      68    6636    6627      68    6648    6639      68    6660
    6651      68    6672    6663      68    6684    6675      68    6696    6687
      68    6708    6699      68    6720    6711      68    6732    6723      68
    6744    6735      68    6756    6747      68    6768    6759      68    6780
    6771      68    6792    6783      68    6804    6795      68    6816    6807
      68    6828    6819      68    6840    6831      68    6852    6843      68
    6864    6855      68    6876    6867      68    6888    6879      68    6900
    6891      68    6912    6903      68    6924    6915      68    6936    6927
      68    6948    6939      68    6960    6951      68    6972    6963      68
    6984    6975      68    6996    6987      68    7008    6999      68    7020
    7011      68    7032    7023      68    7044    7035      68    7056    7047
      68    7068    7059      68    7080    7071      68    7092    7083      68
    7104    7095      68    7116    7107      68    7128    7119      68    7140
    7131      68    7152    7143      68    7164    7155      68    7176    7167
      68    7188    7179      68    7200    7191      68    7212    7203      68
    7224    7215      68    7236    7227      68    7248    7239      68    7260
    7251      68    7272    7263      68    7284    7275      68    7296    7287
      68    7308    7299      68    7320    7311      68    7332    7323      68
    7344    7335      68    7356    7347      68    7368    7359      68    7380
    7371      68    7392    7383      68    7404    7395      68    7416    7407
      68    7428    7419      68    7440    7431      68    7452    7443      68
    7464    7455      68    7476    7467      68    7488    7479      68    7500
    7491      68    7512    7503      68    7524    7515      68    7536    7527
      68    7548    7539      68    7560    7551      68    7572    7563      68
    7584    7575      68    7596    7587      68    7608    7599      68    7620
    7611      68    7632    7623      68    7644    7635      68    7656    7647
      68    7668    7659      68    7680    7671      68    7692    7683      68
    7704    7695      68    7716    7707      68    7728    7719      68    7740
    7731      68    7752    7743      68    7764    7755      68    7776    7767
      68    7788    7779      68    7800    7791      68    7812    7803      68
    7824    7815      68    7836    7827      68    7848    7839      68    7860
    7851      68    7872    7863      68    7884    7875      68    7896    7887
      68    7908    7899      68    7920    7911      68    7932    7923      68
    7944    7935      68    7956    7947      68    7968    7959      68    7980
    7971      68    7992    7983      68    8004    7995      68    8016    8007
      68    8028    8019      68    8040    8031      68    8052    8043      68
    8064    8055      68    8076    8067      68    8088    8079      68    8100
    8091      68    8112    8103      68    8124    8115      68    8136    8127
      68    8148    8139      68    8160    8151      68    8172    8163      68
    8184    8175      68    8196    8187      68    8208    8199      68    8220
    8211      68    8232    8223      68    8244    8235      68    8256    8247
      68    8268    8259      68    8280    8271      68    8292    8283      68
    8304    8295      68    8316    8307      68    8328    8319      68    8340
    8331      68    8352    8343      68    8364    8355      68    8376    8367
      68    8388    8379      68    8400    8391      68    8412    8403      68
    8424    8415      68    8436    8427      68    8448    8439      68    8460
    8451      68    8472    8463      68    8484    8475      68    8496    8487
      68    8508    8499      68    8520    8511      68    8532    8523      68
    8544    8535      68    8556    8547      68    8568    8559      68    8580
    8571      68    8592    8583      68    8604    8595      68    8616    8607
      68    8628    8619      68    8640    8631      68    8652    8643      68
    8664    8655      68    8676    8667      68    8688    8679      68    8700
    8691      68    8712    8703      68    8724    8715      68    8736    8727
      68    8748    8739      68    8760    8751      68    8772    8763      68
    8784    8775      68    8796    8787      68    8808    8799      68    8820
    8811      68    8832    8823      68    8844    8835      68    8856    8847
      68    8868    8859      68    8880    8871      68    8892    8883      68
    8904    8895      68    8916    8907      68    8928    8919      68    8940
    8931      68    8952    8943      68    8964    8955      68    8976    8967
      68    8988    8979      68    9000    8991      68    9012    9003      68
    9024    9015      68    9036    9027      68    9048    9039      68    9060
    9051      68    9072    9063      68    9084    9075      68    9096    9087
      68    9108    9099      68    9120    9111      68    9132    9123      68
    9144    9135      68    9156    9147      68    9168    9159      68    9180
    9171      68    9192    9183      68    9204    9195      68    9216    9207
      68    9228    9219      68    9240    9231      68    9252    9243      68
    9264    9255      68    9276    9267      68    9288    9279      68    9300
    9291      68    9312    9303      68    9324    9315      68    9336    9327
      68    9348    9339      68    9360    9351      68    9372    9363      68
    9384    9375      68    9396    9387      68    9408    9399      68    9420
    9411      68    9432    9423      68    9444    9435      68    9456    9447
      68    9468    9459      68    9480    9471      68    9492    9483      68
    9504    9495      68    9516    9507      68    9528    9519      68    9540
    9531      68    9552    9543      68    9564    9555      68    9576    9567
      68    9588    9579      68    9600    9591      68    9612    9603      68
    9624    9615      68    9636    9627      68    9648    9639      68    9660
    9651      68    9672    9663      68    9684    9675      68    9696    9687
      68    9708    9699      68    9720    9711      68    9732    9723      68
    9744    9735      68    9756    9747      68    9768    9759      68    9780
    9771      68    9792    9783      68    9804    9795      68    9816    9807
      68    9828    9819      68    9840    9831      68    9852    9843      68
    9864    9855      68    9876    9867      68    9888    9879      68    9900
    9891      68    9912    9903      68    9924    9915      68    9936    9927
      68    9948    9939      68    9960    9951      68    9972    9963      68
    9984    9975      68    9996    9987      68   10008    9999      68   10020
   10011      68   10032   10023      68   10044   10035      68   10056   10047
      68   10068   10059      68   10080   10071      68   10092   10083      68
   10104   10095      68   10116   10107      68   10128   10119      68   10140
   10131      68   10152   10143      68   10164   10155      68   10176   10167
      68   10188   10179      68   10200   10191      68   10212   10203      68
   10224   10215      68   10236   10227      68   10248   10239      68   10260
   10251      68   10272   10263      68   10284   10275      68   10296   10287
      68   10308   10299      68   10320   10311      68   10332   10323      68
   10344   10335      68   10356   10347      68   10368   10359      68   10380
   10371      68   10392   10383      68   10404   10395      68   10416   10407
      68   10428   10419      68   10440   10431      68   10452   10443      68
   10464   10455      68   10476   10467      68   10488   10479      68   10500
   10491      68   10512   10503      68   10524   10515      68   10536   10527
      68   10548   10539      68   10560   10551      68   10572   10563      68
   10584   10575      68   10596   10587      68   10608   10599      68   10620
   10611      68   10632   10623      68   10644   10635      68   10656   10647
      68   10668   10659      68   10680   10671      68   10692   10683      68
   10704   10695      68   10716   10707      68   10728   10719      68   10740
   10731      68   10752   10743      68   10764   10755      68   10776   10767
      68   10788   10779      68   10800   10791      68   10812   10803      68
   10824   10815      68   10836   10827      68   10848   10839      68   10860
   10851      68   10872   10863      68   10884   10875      68   10896   10887
      68   10908   10899      68   10920   10911      68   10932   10923      68
   10944   10935      68   10956   10947      68   10968   10959      68   10980
   10971      68   10992   10983      68   11004   10995      68   11016   11007
      68   11028   11019      68   11040   11031      68   11052   11043      68
   11064   11055      68   11076   11067      68   11088   11079      68   11100
   11091      68   11112   11103      68   11124   11115      68   11136   11127
      68   11148   11139      68   11160   11151      68   11172   11163      68
   11184   11175      68   11196   11187      68   11208   11199      68   11220
   11211      68   11232   11223      68   11244   11235      68   11256   11247
      68   11268   11259      68   11280   11271      68   11292   11283      68
   11304   11295      68   11316   11307      68   11328   11319      68   11340
   11331      68   11352   11343      68   11364   11355      68   11376   11367
      68   11388   11379      68   11400   11391      68   11412   11403      68
   11424   11415      68   11436   11427      68   11448   11439      68   11460
   11451      68   11472   11463      68   11484   11475      68   11496   11487
      68   11508   11499      68   11520   11511      68   11532   11523      68
   11544   11535      68   11556   11547      68   11568   11559      68   11580
   11571      68   11592   11583      68   11604   11595      68   11616   11607
      68   11628   11619      68   11640   11631      68   11652   11643      68
   11664   11655      68   11676   11667      68   11688   11679      68   11700
   11691      68   11712   11703      68   11724   11715      68   11736   11727
      68   11748   11739      68   11760   11751      68   11772   11763      68
   11784   11775      68   11796   11787      68   11808   11799      68   11820
   11811      68   11832   11823      68   11844   11835      68   11856   11847
      68   11868   11859      68   11880   11871      68   11892   11883      68
   11904   11895      68   11916   11907      68   11928   11919      68   11940
   11931      68   11952   11943      68   11964   11955      68   11976   11967
      68   11988   11979      68   12000   11991      68   12012   12003      68
   12024   12015      68   12036   12027      68   12048   12039      68   12060
   12051      68   12072   12063      68   12084   12075      68   12096   12087
      68   12108   12099      68   12120   12111      68   12132   12123      68
   12144   12135      68   12156   12147      68   12168   12159      68   12180
   12171      68   12192   12183      68   12204   12195      68   12216   12207
      68   12228   12219      68   12240   12231      68   12252   12243      68
   12264   12255      68   12276   12267      68   12288   12279      68   12300
   12291      68   12312   12303      68   12324   12315      68   12336   12327
      68   12348   12339      68   12360   12351      68   12372   12363      68
   12384   12375      68   12396   12387      68   12408   12399      68   12420
   12411      68   12432   12423      68   12444   12435      68   12456   12447
      68   12468   12459      68   12480   12471      68   12492   12483      68
   12504   12495      68   12516   12507      68   12528   12519      68   12540
   12531      68   12552   12543      68   12564   12555      68   12576   12567
      68   12588   12579      68   12600   12591      68   12612   12603      68
   12624   12615      68   12636   12627      68   12648   12639      68   12660
   12651      68   12672   12663      68   12684   12675      68   12696   12687
      68   12708   12699      68   12720   12711      68   12732   12723      68
   12744   12735      68   12756   12747      68   12768   12759      68   12780
   12771      68   12792   12783      68   12804   12795      68   12816   12807
      68   12828   12819      68   12840   12831      68   12852   12843      68
   12864   12855      68   12876   12867      68   12888   12879      68   12900
   12891      68   12912   12903      68   12924   12915      68   12936   12927
      68   12948   12939      68   12960   12951      68   12972   12963      68
   12984   12975      68   12996   12987      68   13008   12999      68   13020
   13011      68   13032   13023      68   13044   13035      68   13056   13047
      68   13068   13059      68   13080   13071      68   13092   13083      68
   13104   13095      68   13116   13107      68   13128   13119      68   13140
   13131      68   13152   13143      68   13164   13155      68   13176   13167
      68   13188   13179      68   13200   13191      68   13212   13203      68
   13224   13215      68   13236   13227      68   13248   13239      68   13260
   13251      68   13272   13263      68   13284   13275      68   13296   13287
      68   13308   13299      68   13320   13311      68   13332   13323      68
   13344   13335      68   13356   13347      68   13368   13359      68   13380
   13371      68   13392   13383      68   13404   13395      68   13416   13407
      68   13428   13419      68   13440   13431      68   13452   13443      68
   13464   13455      68   13476   13467      68   13488   13479      68   13500
   13491      68   13512   13503      68   13524   13515      68   13536   13527
      68   13548   13539      68   13560   13551      68   13572   13563      68
   13584   13575      68   13596   13587      68   13608   13599      68   13620
   13611      68   13632   13623      68   13644   13635      68   13656   13647
      68   13668   13659      68   13680   13671      68   13692   13683      68
   13704   13695      68   13716   13707      68   13728   13719      68   13740
   13731      68   13752   13743      68   13764   13755      68   13776   13767
      68   13788   13779      68   13800   13791      68   13812   13803      68
   13824   13815      68   13836   13827      68   13848   13839      68   13860
   13851      68   13872   13863      68   13884   13875      68   13896   13887
      68   13908   13899      68   13920   13911      68   13932   13923      68
   13944   13935      68   13956   13947      68   13968   13959      68   13980
   13971      68   13992   13983      68   14004   13995      68   14016   14007
      68   14028   14019      68   14040   14031      68   14052   14043      68
   14064   14055      68   14076   14067      68   14088   14079      68   14100
   14091      68   14112   14103      68   14124   14115      68   14136   14127
      68   14148   14139      68   14160   14151      68   14172   14163      68
   14184   14175      68   14196   14187      68   14208   14199      68   14220
   14211      68   14232   14223      68   14244   14235      68   14256   14247
      68   14268   14259      68   14280   14271      68   14292   14283      68
   14304   14295      68   14316   14307      68   14328   14319      68   14340
   14331      68   14352   14343      68   14364   14355      68   14376   14367
      68   14388   14379      68   14400   14391      68   14412   14403      68
   14424   14415      68   14436   14427      68   14448   14439      68   14460
   14451      68   14472   14463      68   14484   14475      68   14496   14487
      68   14508   14499      68   14520   14511      68   14532   14523      68
   14544   14535      68   14556   14547      68   14568   14559      68   14580
   14571      68   14592   14583      68   14604   14595      68   14616   14607
      68   14628   14619      68   14640   14631      68   14652   14643      68
   14664   14655      68   14676   14667      68   14688   14679      68   14700
   14691      68   14712   14703      68   14724   14715      68   14736   14727
      68   14748   14739      68   14760   14751      68   14772   14763      68
   14784   14775      68   14796   14787      68   14808   14799      68   14820
   14811      68   14832   14823      68   14844   14835      68   14856   14847
      68   14868   14859      68   14880   14871      68   14892   14883      68
   14904   14895      68   14916   14907      68   14928   14919      68   14940
   14931      68   14952   14943      68   14964   14955      68   14976   14967
      68   14988   14979      68   15000   14991      68   15012   15003      68
   15024   15015      68   15036   15027      68   15048   15039      68   15060
   15051      68   15072   15063      68   15084   15075      68   15096   15087
      68   15108   15099      68   15120   15111      68   15132   15123      68
   15144   15135      68   15156   15147      68   15168   15159      68   15180
   15171      68   15192   15183      68   15204   15195      68   15216   15207
      68   15228   15219      68   15240   15231      68   15252   15243      68
   15264   15255      68   15276   15267      68   15288   15279      68   15300
   15291      68   15312   15303      68   15324   15315      68   15336   15327
      68   15348   15339      68   15360   15351      68   15372   15363      68
   15384   15375      68   15396   15387      68   15408   15399      68   15420
   15411      68   15432   15423      68   15444   15435      68   15456   15447
      68   15468   15459      68   15480   15471      68   15492   15483      68
   15504   15495      68   15516   15507      68   15528   15519      68   15540
   15531      68   15552   15543      68   15564   15555      68   15576   15567
      68   15588   15579      68   15600   15591      68   15612   15603      68
   15624   15615      68   15636   15627      68   15648   15639      68   15660
   15651      68   15672   15663      68   15684   15675      68   15696   15687
      68   15708   15699      68   15720   15711      68   15732   15723      68
   15744   15735      68   15756   15747      68   15768   15759      68   15780
   15771      68   15792   15783      68   15804   15795      68   15816   15807
      68   15828   15819      68   15840   15831      68   15852   15843      68
   15864   15855      68   15876   15867      68   15888   15879      68   15900
   15891      68   15912   15903      68   15924   15915      68   15936   15927
      68   15948   15939      68   15960   15951      68   15972   15963      68
   15984   15975      68   15996   15987      68   16008   15999      68   16020
   16011      68   16032   16023      68   16044   16035      68   16056   16047
      68   16068   16059      68   16080   16071      68   16092   16083      68
   16104   16095      68   16116   16107      68   16128   16119      68   16140
   16131      68   16152   16143      68   16164   16155      68   16176   16167
      68   16188   16179      68   16200   16191      68   16212   16203      68
   16224   16215      68   16236   16227      68   16248   16239      68   16260
   16251      68   16272   16263      68   16284   16275      68   16296   16287
      68   16308   16299      68   16320   16311      68   16332   16323      68
   16344   16335      68   16356   16347      68   16368   16359      68   16380
   16371      68   16392   16383      68   16404   16395      68   16416   16407
      68   16428   16419      68   16440   16431      68   16452   16443      68
   16464   16455      68   16476   16467      68   16488   16479      68   16500
   16491      68   16512   16503      68   16524   16515      68   16536   16527
      68   16548   16539      68   16560   16551      68   16572   16563      68
   16584   16575      68   16596   16587      68   16608   16599      68   16620
   16611      68   16632   16623      68   16644   16635      68   16656   16647
      68   16668   16659      68   16680   16671      68   16692   16683      68
   16704   16695      68   16716   16707      68   16728   16719      68   16740
   16731      68   16752   16743      68   16764   16755      68   16776   16767
      68   16788   16779      68   16800   16791      68   16812   16803      68
   16824   16815      68   16836   16827      68   16848   16839      68   16860
   16851      68   16872   16863      68   16884   16875      68   16896   16887
      68   16908   16899      68   16920   16911      68   16932   16923      68
   16944   16935      68   16956   16947      68   16968   16959      68   16980
   16971      68   16992   16983      68   17004   16995      68   17016   17007
      68   17028   17019      68   17040   17031      68   17052   17043      68
   17064   17055      68   17076   17067      68   17088   17079      68   17100
   17091      68   17112   17103      68   17124   17115      68   17136   17127
      68   17148   17139      68   17160   17151      68   17172   17163      68
   17184   17175      68   17196   17187      68   17208   17199      68   17220
   17211      68   17232   17223      68   17244   17235      68   17256   17247
      68   17268   17259      68   17280   17271      68   17292   17283      68
   17304   17295      68   17316   17307      68   17328   17319      68   17340
   17331      68   17352   17343      68   17364   17355      68   17376   17367
      68   17388   17379      68   17400   17391      68   17412   17403      68
   17424   17415      68   17436   17427      68   17448   17439      68   17460
   17451      68   17472   17463      68   17484   17475      68   17496   17487
      68   17508   17499      68   17520   17511      68   17532   17523      68
   17544   17535      68   17556   17547      68   17568   17559      68   17580
   17571      68   17592   17583      68   17604   17595      68   17616   17607
      68   17628   17619      68   17640   17631      68   17652   17643      68
   17664   17655      68   17676   17667      68   17688   17679      68   17700
   17691      68   17712   17703      68   17724   17715      68   17736   17727
      68   17748   17739      68   17760   17751      68   17772   17763      68
   17784   17775      68   17796   17787      68   17808   17799      68   17820
   17811      68   17832   17823      68   17844   17835      68   17856   17847
      68   17868   17859      68   17880   17871      68   17892   17883      68
   17904   17895      68   17916   17907      68   17928   17919      68   17940
   17931      68   17952   17943      68   17964   17955      68   17976   17967
      68   17988   17979      68   18000   17991      68   18012   18003      68
   18024   18015      68   18036   18027      68   18048   18039      68   18060
   18051      68   18072   18063      68   18084   18075      68   18096   18087
      68   18108   18099      68   18120   18111      68   18132   18123      68
   18144   18135      68   18156   18147      68   18168   18159      68   18180
   18171      68   18192   18183      68   18204   18195      68   18216   18207
      68   18228   18219      68   18240   18231      68   18252   18243      68
   18264   18255      68   18276   18267      68   18288   18279      68   18300
   18291      68   18312   18303      68   18324   18315      68   18336   18327
      68   18348   18339      68   18360   18351      68   18372   18363      68
   18384   18375      68   18396   18387      68   18408   18399      68   18420
   18411      68   18432   18423      68   18444   18435      68   18456   18447
      68   18468   18459      68   18480   18471      68   18492   18483      68
   18504   18495      68   18516   18507      68   18528   18519      68   18540
   18531      68   18552   18543      68   18564   18555      68   18576   18567
      68   18588   18579      68   18600   18591      68   18612   18603      68
   18624   18615      68   18636   18627      68   18648   18639      68   18660
   18651      68   18672   18663      68   18684   18675      68   18696   18687
      68   18708   18699      68   18720   18711      68   18732   18723      68
   18744   18735      68   18756   18747      68   18768   18759      68   18780
   18771      68   18792   18783      68   18804   18795      68   18816   18807
      68   18828   18819      68   18840   18831      68   18852   18843      68
   18864   18855      68   18876   18867      68   18888   18879      68   18900
   18891      68   18912   18903      68   18924   18915      68   18936   18927
      68   18948   18939      68   18960   18951      68   18972   18963      68
   18984   18975      68   18996   18987      68   19008   18999      68   19020
   19011      68   19032   19023      68   19044   19035      68   19056   19047
      68   19068   19059      68   19080   19071      68   19092   19083      68
   19104   19095      68   19116   19107      68   19128   19119      68   19140
   19131      68   19152   19143      68   19164   19155      68   19176   19167
      68   19188   19179      68   19200   19191      68   19212   19203      68
   19224   19215      68   19236   19227      68   19248   19239      68   19260
   19251      68   19272   19263      68   19284   19275      68   19296   19287
      68   19308   19299      68   19320   19311      68   19332   19323      68
   19344   19335      68   19356   19347      68   19368   19359      68   19380
   19371      68   19392   19383      68   19404   19395      68   19416   19407
      68   19428   19419      68   19440   19431      68   19452   19443      68
   19464   19455      68   19476   19467      68   19488   19479      68   19500
   19491      68   19512   19503      68   19524   19515      68   19536   19527
      68   19548   19539      68   19560   19551      68   19572   19563      68
   19584   19575      68   19596   19587      68   19608   19599      68   19620
   19611      68   19632   19623      68   19644   19635      68   19656   19647
      68   19668   19659      68   19680   19671      68   19692   19683      68
   19704   19695      68   19716   19707      68   19728   19719      68   19740
   19731      68   19752   19743      68   19764   19755      68   19776   19767
      68   19788   19779      68   19800   19791      68   19812   19803      68
   19824   19815      68   19836   19827      68   19848   19839      68   19860
   19851      68   19872   19863      68   19884   19875      68   19896   19887
      68   19908   19899      68   19920   19911      68   19932   19923      68
   19944   19935      68   19956   19947      68   19968   19959      68   19980
   19971      68   19992   19983      68   20004   19995      68   20016   20007
      68   20028   20019      68   20040   20031      68   20052   20043      68
   20064   20055      68   20076   20067      68   20088   20079      68   20100
   20091      68   20112   20103      68   20124   20115      68   20136   20127
      68   20148   20139      68   20160   20151      68   20172   20163      68
   20184   20175      68   20196   20187      68   20208   20199      68   20220
   20211      68   20232   20223      68   20244   20235      68   20256   20247
      68   20268   20259      68   20280   20271      68   20292   20283      68
   20304   20295      68   20316   20307      68   20328   20319      68   20340
   20331      68   20352   20343      68   20364   20355      68   20376   20367
      68   20388   20379      68   20400   20391      68   20412   20403      68
   20424   20415      68   20436   20427      68   20448   20439      68   20460
   20451      68   20472   20463      68   20484   20475      68   20496   20487
      68   20508   20499      68   20520   20511      68   20532   20523      68
   20544   20535      68   20556   20547      68   20568   20559      68   20580
   20571      68   20592   20583      68   20604   20595      68   20616   20607
      68   20628   20619      68   20640   20631      68   20652   20643      68
   20664   20655      68   20676   20667      68   20688   20679      68   20700
   20691      68   20712   20703      68   20724   20715      68   20736   20727
      68   20748   20739      68   20760   20751      68   20772   20763      68
   20784   20775      68   20796   20787      68   20808   20799      68   20820
   20811      68   20832   20823      68   20844   20835      68   20856   20847
      68   20868   20859      68   20880   20871      68   20892   20883      68
   20904   20895      68   20916   20907      68   20928   20919      68   20940
   20931      68   20952   20943      68   20964   20955      68   20976   20967
      68   20988   20979      68   21000   20991      68   21012   21003      68
   21024   21015      68   21036   21027      68   21048   21039      68   21060
   21051      68   21072   21063      68   21084   21075      68   21096   21087
      68   21108   21099      68   21120   21111      68   21132   21123      68
   21144   21135      68   21156   21147      68   21168   21159      68   21180
   21171      68   21192   21183      68   21204   21195      68   21216   21207
      68   21228   21219      68   21240   21231      68   21252   21243      68
   21264   21255      68   21276   21267      68   21288   21279      68   21300
   21291      68   21312   21303      68   21324   21315      68   21336   21327
      68   21348   21339      68   21360   21351      68   21372   21363      68
   21384   21375      68   21396   21387      68   21408   21399      68   21420
   21411      68   21432   21423      68   21444   21435      68   21456   21447
      68   21468   21459      68   21480   21471      68   21492   21483      68
   21504   21495      68   21516   21507      68   21528   21519      68   21540
   21531      68   21552   21543      68   21564   21555      68   21576   21567
      68   21588   21579      68   21600   21591      68   21612   21603      68
   21624   21615      68   21636   21627      68   21648   21639      68   21660
   21651      68   21672   21663      68   21684   21675      68   21696   21687
      68   21708   21699      68   21720   21711      68   21732   21723      68
   21744   21735      68   21756   21747      68   21768   21759      68   21780
   21771      68   21792   21783      68   21804   21795      68   21816   21807
      68   21828   21819      68   21840   21831      68   21852   21843      68
   21864   21855      68   21876   21867      68   21888   21879      68   21900
   21891      68   21912   21903      68   21924   21915      68   21936   21927
      68   21948   21939      68   21960   21951      68   21972   21963      68
   21984   21975      68   21996   21987      68   22008   21999      68   22020
   22011      68   22032   22023      68   22044   22035      68   22056   22047
      68   22068   22059      68   22080   22071      68   22092   22083      68
   22104   22095      68   22116   22107      68   22128   22119      68   22140
   22131      68   22152   22143      68   22164   22155      68   22176   22167
      68   22188   22179      68   22200   22191      68   22212   22203      68
   22224   22215      68   22236   22227      68   22248   22239      68   22260
   22251      68   22272   22263      68   22284   22275      68   22296   22287
      68   22308   22299      68   22320   22311      68   22332   22323      68
   22344   22335      68   22356   22347      68   22368   22359      68   22380
   22371      68   22392   22383      68   22404   22395      68   22416   22407
      68   22428   22419      68   22440   22431      68   22452   22443      68
   22464   22455      68   22476   22467      68   22488   22479      68   22500
   22491      68   22512   22503      68   22524   22515      68   22536   22527
      68   22548   22539      68   22560   22551      68   22572   22563      68
   22584   22575      68   22596   22587      68   22608   22599      68   22620
   22611      68   22632   22623      68   22644   22635      68   22656   22647
      68   22668   22659      68   22680   22671      68   22692   22683      68
   22704   22695      68   22716   22707      68   22728   22719      68   22740
   22731      68   22752   22743      68   22764   22755      68   22776   22767
      68   22788   22779      68   22800   22791      68   22812   22803      68
   22824   22815      68   22836   22827      68   22848   22839      68   22860
   22851      68   22872   22863      68   22884   22875      68   22896   22887
      68   22908   22899      68   22920   22911      68   22932   22923      68
   22944   22935      68   22956   22947      68   22968   22959      68   22980
   22971      68   22992   22983      68   23004   22995      68   23016   23007
      68   23028   23019      68   23040   23031      68   23052   23043      68
   23064   23055      68   23076   23067      68   23088   23079      68   23100
   23091      68   23112   23103      68   23124   23115      68   23136   23127
      68   23148   23139      68   23160   23151      68   23172   23163      68
   23184   23175      68   23196   23187      68   23208   23199      68   23220
   23211      68   23232   23223      68   23244   23235      68   23256   23247
      68   23268   23259      68   23280   23271      68   23292   23283      68
   23304   23295      68   23316   23307      68   23328   23319      68   23340
   23331      68   23352   23343      68   23364   23355      68   23376   23367
      68   23388   23379      68   23400   23391      68   23412   23403      68
   23424   23415      68   23436   23427      68   23448   23439      68   23460
   23451      68   23472   23463      68   23484   23475      68   23496   23487
      68   23508   23499      68   23520   23511      68   23532   23523      68
   23544   23535      68   23556   23547      68   23568   23559      68   23580
   23571      68   23592   23583      68   23604   23595      68   23616   23607
      68   23628   23619      68   23640   23631      68   23652   23643      68
   23664   23655      68   23676   23667      68   23688   23679      68   23700
   23691      68   23712   23703      68   23724   23715      68   23736   23727
      68   23748   23739      68   23760   23751      68   23772   23763      68
   23784   23775      68   23796   23787      68   23808   23799      68   23820
   23811      68   23832   23823      68   23844   23835      68   23856   23847
      68   23868   23859      68   23880   23871      68   23892   23883      68
   23904   23895      68   23916   23907      68   23928   23919      68   23940
   23931      68   23952   23943      68   23964   23955      68   23976   23967
      68   23988   23979      68   24000   23991      68   24012   24003      68
   24024   24015      68   24036   24027      68   24048   24039      68   24060
   24051      68   24072   24063      68   24084   24075      68   24096   24087
      68   24108   24099      68   24120   24111      68   24132   24123      68
   24144   24135      68   24156   24147      68   24168   24159      68   24180
   24171      68   24192   24183      68   24204   24195      68   24216   24207
      68   24228   24219      68   24240   24231      68   24252   24243      68
   24264   24255      68   24276   24267      68   24288   24279      68   24300
   24291      68   24312   24303      68   24324   24315      68   24336   24327
      68   24348   24339      68   24360   24351      68   24372   24363      68
   24384   24375      68   24396   24387      68   24408   24399      68   24420
   24411      68   24432   24423      68   24444   24435      68   24456   24447
      68   24468   24459      68   24480   24471      68   24492   24483      68
   24504   24495      68   24516   24507      68   24528   24519      68   24540
   24531      68   24552   24543      68   24564   24555      68   24576   24567
      68   24588   24579      68   24600   24591      68   24612   24603      68
   24624   24615      68   24636   24627      68   24648   24639      68   24660
   24651      68   24672   24663      68   24684   24675      68   24696   24687
      68   24708   24699      68   24720   24711      68   24732   24723      68
   24744   24735      68   24756   24747      68   24768   24759      68   24780
   24771      68   24792   24783      68   24804   24795      68   24816   24807
      68   24828   24819      68   24840   24831      68   24852   24843      68
   24864   24855      68   24876   24867      68   24888   24879      68   24900
   24891      68   24912   24903      68   24924   24915      68   24936   24927
      68   24948   24939      68   24960   24951      68   24972   24963      68
   24984   24975      68   24996   24987      68   25008   24999      68   25020
   25011      68   25032   25023      68   25044   25035      68   25056   25047
      68   25068   25059      68   25080   25071      68   25092   25083      68
   25104   25095      68   25116   25107      68   25128   25119      68   25140
   25131      68   25152   25143      68   25164   25155      68   25176   25167
      68   25188   25179      68   25200   25191      68   25212   25203      68
   25224   25215      68   25236   25227      68   25248   25239      68   25260
   25251      68   25272   25263      68   25284   25275      68   25296   25287
      68   25308   25299      68   25320   25311      68   25332   25323      68
   25344   25335      68   25356   25347      68   25368   25359      68   25380
   25371      68   25392   25383      68   25404   25395      68   25416   25407
      68   25428   25419      68   25440   25431      68   25452   25443      68
   25464   25455      68   25476   25467      68   25488   25479      68   25500
   25491      68   25512   25503      68   25524   25515      68   25536   25527
      68   25548   25539      68   25560   25551      68   25572   25563      68
   25584   25575      68   25596   25587      68   25608   25599      68   25620
   25611      68   25632   25623      68   25644   25635      68   25656   25647
      68   25668   25659      68   25680   25671      68   25692   25683      68
   25704   25695      68   25716   25707      68   25728   25719      68   25740
   25731      68   25752   25743      68   25764   25755      68   25776   25767
      68   25788   25779      68   25800   25791      68   25812   25803      68
   25824   25815      68   25836   25827      68   25848   25839      68   25860
   25851      68   25872   25863      68   25884   25875      68   25896   25887
      68   25908   25899      68   25920   25911      68   25932   25923      68
   25944   25935      68   25956   25947      68   25968   25959      68   25980
   25971      68   25992   25983      68   26004   25995      68   26016   26007
      68   26028   26019      68   26040   26031      68   26052   26043      68
   26064   26055      68   26076   26067      68   26088   26079      68   26100
   26091      68   26112   26103      68   26124   26115      68   26136   26127
      68   26148   26139      68   26160   26151      68   26172   26163      68
   26184   26175      68   26196   26187      68   26208   26199      68   26220
   26211      68   26232   26223      68   26244   26235      68   26256   26247
      68   26268   26259      68   26280   26271      68   26292   26283      68
   26304   26295      68   26316   26307      68   26328   26319      68   26340
   26331      68   26352   26343      68   26364   26355      68   26376   26367
      68   26388   26379      68   26400   26391      68   26412   26403      68
   26424   26415      68   26436   26427      68   26448   26439      68   26460
   26451      68   26472   26463      68   26484   26475      68   26496   26487
      68   26508   26499      68   26520   26511      68   26532   26523      68
   26544   26535      68   26556   26547      68   26568   26559      68   26580
   26571      68   26592   26583      68   26604   26595      68   26616   26607
      68   26628   26619      68   26640   26631      68   26652   26643      68
   26664   26655      68   26676   26667      68   26688   26679      68   26700
   26691      68   26712   26703      68   26724   26715      68   26736   26727
      68   26748   26739      68   26760   26751      68   26772   26763      68
   26784   26775      68   26796   26787      68   26808   26799      68   26820
   26811      68   26832   26823      68   26844   26835      68   26856   26847
      68   26868   26859      68   26880   26871      68   26892   26883      68
   26904   26895      68   26916   26907      68   26928   26919      68   26940
   26931      68   26952   26943      68   26964   26955      68   26976   26967
      68   26988   26979      68   27000   26991      68   27012   27003      68
   27024   27015      68   27036   27027      68   27048   27039      68   27060
   27051      68   27072   27063      68   27084   27075      68   27096   27087
      68   27108   27099      68   27120   27111      68   27132   27123      68
   27144   27135      68   27156   27147      68   27168   27159      68   27180
   27171      68   27192   27183      68   27204   27195      68   27216   27207
      68   27228   27219      68   27240   27231      68   27252   27243      68
   27264   27255      68   27276   27267      68   27288   27279      68   27300
   27291      68   27312   27303      68   27324   27315      68   27336   27327
      68   27348   27339      68   27360   27351      68   27372   27363      68
   27384   27375      68   27396   27387      68   27408   27399      68   27420
   27411      68   27432   27423      68   27444   27435      68   27456   27447
      68   27468   27459      68   27480   27471      68   27492   27483      68
   27504   27495      68   27516   27507      68   27528   27519      68   27540
   27531      68   27552   27543      68   27564   27555      68   27576   27567
      68   27588   27579      68   27600   27591      68   27612   27603      68
   27624   27615      68   27636   27627      68   27648   27639      68   27660
   27651      68   27672   27663      68   27684   27675      68   27696   27687
      68   27708   27699      68   27720   27711      68   27732   27723      68
   27744   27735      68   27756   27747      68   27768   27759      68   27780
   27771      68   27792   27783      68   27804   27795      68   27816   27807
      68   27828   27819      68   27840   27831      68   27852   27843      68
   27864   27855      68   27876   27867      68   27888   27879      68   27900
   27891      68   27912   27903      68   27924   27915      68   27936   27927
      68   27948   27939      68   27960   27951      68   27972   27963      68
   27984   27975      68   27996   27987      68   28008   27999      68   28020
   28011      68   28032   28023      68   28044   28035      68   28056   28047
      68   28068   28059      68   28080   28071      68   28092   28083      68
   28104   28095      68   28116   28107      68   28128   28119      68   28140
   28131      68   28152   28143      68   28164   28155      68   28176   28167
      68   28188   28179      68   28200   28191      68   28212   28203      68
   28224   28215      68   28236   28227      68   28248   28239      68   28260
   28251      68   28272   28263      68   28284   28275      68   28296   28287
      68   28308   28299      68   28320   28311      68   28332   28323      68
   28344   28335      68   28356   28347      68   28368   28359      68   28380
   28371      68   28392   28383      68   28404   28395      68   28416   28407
      68   28428   28419      68   28440   28431      68   28452   28443      68
   28464   28455      68   28476   28467      68   28488   28479      68   28500
   28491      68   28512   28503      68   28524   28515      68   28536   28527
      68   28548   28539      68   28560   28551      68   28572   28563      68
   28584   28575      68   28596   28587      68   28608   28599      68   28620
   28611      68   28632   28623      68   28644   28635      68   28656   28647
      68   28668   28659      68   28680   28671      68   28692   28683      68
   28704   28695      68   28716   28707      68   28728   28719      68   28740
   28731      68   28752   28743      68   28764   28755      68   28776   28767
      68   28788   28779      68   28800   28791      68   28812   28803      68
   28824   28815      68   28836   28827      68   28848   28839      68   28860
   28851      68   28872   28863      68   28884   28875      68   28896   28887
      68   28908   28899      68   28920   28911      68   28932   28923      68
   28944   28935      68   28956   28947      68   28968   28959      68   28980
   28971      68   28992   28983      68   29004   28995      68   29016   29007
      68   29028   29019      68   29040   29031      68   29052   29043      68
   29064   29055      68   29076   29067      68   29088   29079      68   29100
   29091      68   29112   29103      68   29124   29115      68   29136   29127
      68   29148   29139      68   29160   29151      68   29172   29163      68
   29184   29175      68   29196   29187      68   29208   29199      68   29220
   29211      68   29232   29223      68   29244   29235      68   29256   29247
      68   29268   29259      68   29280   29271      68   29292   29283      68
   29304   29295      68   29316   29307      68   29328   29319      68   29340
   29331      68   29352   29343      68   29364   29355      68   29376   29367
      68   29388   29379      68   29400   29391      68   29412   29403      68
   29424   29415      68   29436   29427      68   29448   29439      68   29460
   29451      68   29472   29463      68   29484   29475      68   29496   29487
      68   29508   29499      68   29520   29511      68   29532   29523      68
   29544   29535      68   29556   29547      68   29568   29559      68   29580
   29571      68   29592   29583      68   29604   29595      68   29616   29607
      68   29628   29619      68   29640   29631      68   29652   29643      68
   29664   29655      68   29676   29667      68   29688   29679      68   29700
   29691      68   29712   29703      68   29724   29715      68   29736   29727
      68   29748   29739      68   29760   29751      68   29772   29763      68
   29784   29775      68   29796   29787      68   29808   29799      68   29820
   29811      68   29832   29823      68   29844   29835      68   29856   29847
      68   29868   29859      68   29880   29871      68   29892   29883      68
   29904   29895      68   29916   29907      68   29928   29919      68   29940
   29931      68   29952   29943      68   29964   29955      68   29976   29967
      68   29988   29979      68   30000   29991      68   30012   30003      68
   30024   30015      68   30036   30027      68   30048   30039      68   30060
   30051      68   30072   30063      68   30084   30075      68   30096   30087
      68   30108   30099      68   30120   30111      68   30132   30123      68
   30144   30135      68   30156   30147      68   30168   30159      68   30180
   30171      68   30192   30183      68   30204   30195      68   30216   30207
      68   30228   30219      68   30240   30231      68   30252   30243      68
   30264   30255      68   30276   30267      68   30288   30279      68   30300
   30291      68   30312   30303      68   30324   30315      68   30336   30327
      68   30348   30339      68   30360   30351      68   30372   30363      68
   30384   30375      68   30396   30387      68   30408   30399      68   30420
   30411      68   30432   30423      68   30444   30435      68   30456   30447
      68   30468   30459      68   30480   30471      68   30492   30483      68
   30504   30495      68   30516   30507      68   30528   30519      68   30540
   30531      68   30552   30543      68   30564   30555      68   30576   30567
      68   30588   30579      68   30600   30591      68   30612   30603      68
   30624   30615      68   30636   30627      68   30648   30639      68   30660
   30651      68   30672   30663      68   30684   30675      68   30696   30687
      68   30708   30699      68   30720   30711      68   30732   30723      68
   30744   30735      68   30756   30747      68   30768   30759      68   30780
   30771      68   30792   30783      68   30804   30795      68   30816   30807
      68   30828   30819      68   30840   30831      68   30852   30843      68
   30864   30855      68   30876   30867      68   30888   30879      68   30900
   30891      68   30912   30903      68   30924   30915      68   30936   30927
      68   30948   30939      68   30960   30951      68   30972   30963      68
   30984   30975      68   30996   30987      68   31008   30999      68   31020
   31011      68   31032   31023      68   31044   31035      68   31056   31047
      68   31068   31059      68   31080   31071      68   31092   31083      68
   31104   31095      68   31116   31107      68   31128   31119      68   31140
   31131      68   31152   31143      68   31164   31155      68   31176   31167
      68   31188   31179      68   31200   31191      68   31212   31203      68
   31224   31215      68   31236   31227      68   31248   31239      68   31260
   31251      68   31272   31263      68   31284   31275      68   31296   31287
      68   31308   31299      68   31320   31311      68   31332   31323      68
   31344   31335      68   31356   31347      68   31368   31359      68   31380
   31371      68   31392   31383      68   31404   31395      68   31416   31407
      68   31428   31419      68   31440   31431      68   31452   31443      68
   31464   31455      68   31476   31467      68   31488   31479      68   31500
   31491      68   31512   31503      68   31524   31515      68   31536   31527
      68   31548   31539      68   31560   31551      68   31572   31563      68
   31584   31575      68   31596   31587      68   31608   31599      68   31620
   31611      68   31632   31623      68   31644   31635      68   31656   31647
      68   31668   31659      68   31680   31671      68   31692   31683      68
   31704   31695      68   31716   31707      68   31728   31719      68   31740
   31731      68   31752   31743      68   31764   31755      68   31776   31767
      68   31788   31779      68   31800   31791      68   31812   31803      68
   31824   31815      68   31836   31827      68   31848   31839      68   31860
   31851      68   31872   31863      68   31884   31875      68   31896   31887
      68   31908   31899      68   31920   31911      68   31932   31923      68
   31944   31935      68   31956   31947      68   31968   31959      68   31980
   31971      68   31992   31983      68   32004   31995      68   32016   32007
      68   32028   32019      68   32040   32031      68   32052   32043      68
   32064   32055      68   32076   32067      68   32088   32079      68   32100
   32091      68   32112   32103      68   32124   32115      68   32136   32127
      68   32148   32139      68   32160   32151      68   32172   32163      68
   32184   32175      68   32196   32187      68   32208   32199      68   32220
   32211      68   32232   32223      68   32244   32235      68   32256   32247
      68   32268   32259      68   32280   32271      68   32292   32283      68
   32304   32295      68   32316   32307      68   32328   32319      68   32340
   32331      68   32352   32343      68   32364   32355      68   32376   32367
      68   32388   32379      68   32400   32391      68   32412   32403      68
   32424   32415      68   32436   32427      68   32448   32439      68   32460
   32451      68   32472   32463      68   32484   32475      68   32496   32487
      68   32508   32499      68   32520   32511      68   32532   32523      68
   32544   32535      68   32556   32547      68   32568   32559      68   32580
   32571      68   32592   32583      68   32604   32595      68   32616   32607
      68   32628   32619      68   32640   32631      68   32652   32643      68
   32664   32655      68   32676   32667      68   32688   32679      68   32700
   32691      68   32712   32703      68   32724   32715      68   32736   32727
      68   32748   32739      68   32760   32751      68   32772   32763      68
   32784   32775      68   32796   32787      68   32808   32799      68   32820
   32811      68   32832   32823      68   32844   32835      68   32856   32847
      68   32868   32859      68   32880   32871      68   32892   32883      68
   32904   32895      68   32916   32907      68   32928   32919      68   32940
   32931      68   32952   32943      68   32964   32955      68   32976   32967
      68   32988   32979      68   33000   32991      68   33012   33003      68
   33024   33015      68   33036   33027      68   33048   33039      68   33060
   33051      68   33072   33063      68   33084   33075      68   33096   33087
      68   33108   33099      68   33120   33111      68   33132   33123      68
   33144   33135      68   33156   33147      68   33168   33159      68   33180
   33171      68   33192   33183      68   33204   33195      68   33216   33207
      68   33228   33219      68   33240   33231      68   33252   33243      68
   33264   33255      68   33276   33267      68   33288   33279      68   33300
   33291      68   33312   33303      68   33324   33315      68   33336   33327
      68   33348   33339      68   33360   33351      68   33372   33363      68
   33384   33375      68   33396   33387      68   33408   33399      68   33420
   33411      68   33432   33423      68   33444   33435      68   33456   33447
      68   33468   33459      68   33480   33471      68   33492   33483      68
   33504   33495      68   33516   33507      68   33528   33519      68   33540
   33531      68   33552   33543      68   33564   33555      68   33576   33567
      68   33588   33579      68   33600   33591      68   33612   33603      68
   33624   33615      68   33636   33627      68   33648   33639      68   33660
   33651      68   33672   33663      68   33684   33675      68   33696   33687
      68   33708   33699      68   33720   33711      68   33732   33723      68
   33744   33735      68   33756   33747      68   33768   33759      68   33780
   33771      68   33792   33783      68   33804   33795      68   33816   33807
      68   33828   33819      68   33840   33831      68   33852   33843      68
   33864   33855      68   33876   33867      68   33888   33879      68   33900
   33891      68   33912   33903      68   33924   33915      68   33936   33927
      68   33948   33939      68   33960   33951      68   33972   33963      68
   33984   33975      68   33996   33987      68   34008   33999      68   34020
   34011      68   34032   34023      68   34044   34035      68   34056   34047
      68   34068   34059      68   34080   34071      68   34092   34083      68
   34104   34095      68   34116   34107      68   34128   34119      68   34140
   34131      68   34152   34143      68   34164   34155      68   34176   34167
      68   34188   34179      68   34200   34191      68   34212   34203      68
   34224   34215      68   34236   34227      68   34248   34239      68   34260
   34251      68   34272   34263      68   34284   34275      68   34296   34287
      68   34308   34299      68   34320   34311      68   34332   34323      68
   34344   34335      68   34356   34347      68   34368   34359      68   34380
   34371      68   34392   34383      68   34404   34395      68   34416   34407
      68   34428   34419      68   34440   34431      68   34452   34443      68
   34464   34455      68   34476   34467      68   34488   34479      68   34500
   34491      68   34512   34503      68   34524   34515      68   34536   34527
      68   34548   34539      68   34560   34551      68   34572   34563      68
   34584   34575      68   34596   34587      68   34608   34599      68   34620
   34611      68   34632   34623      68   34644   34635      68   34656   34647
      68   34668   34659      68   34680   34671      68   34692   34683      68
   34704   34695      68   34716   34707      68   34728   34719      68   34740
   34731      68   34752   34743      68   34764   34755      68   34776   34767
      68   34788   34779      68   34800   34791      68   34812   34803      68
   34824   34815      68   34836   34827      68   34848   34839      68   34860
   34851      68   34872   34863      68   34884   34875      68   34896   34887
      68   34908   34899      68   34920   34911      68   34932   34923      68
   34944   34935      68   34956   34947      68   34968   34959      68   34980
   34971      68   34992   34983      68   35004   34995      68   35016   35007
      68   35028   35019      68   35040   35031      68   35052   35043      68
   35064   35055      68   35076   35067      68   35088   35079      68   35100
   35091      68   35112   35103      68   35124   35115      68   35136   35127
      68   35148   35139      68   35160   35151      68   35172   35163      68
   35184   35175      68   35196   35187      68   35208   35199      68   35220
   35211      68   35232   35223      68   35244   35235      68   35256   35247
      68   35268   35259      68   35280   35271      68   35292   35283      68
   35304   35295      68   35316   35307      68   35328   35319      68   35340
   35331      68   35352   35343      68   35364   35355      68   35376   35367
      68   35388   35379      68   35400   35391      68   35412   35403      68
   35424   35415      68   35436   35427      68   35448   35439      68   35460
   35451      68   35472   35463      68   35484   35475      68   35496   35487
      68   35508   35499      68   35520   35511      68   35532   35523      68
   35544   35535      68   35556   35547      68   35568   35559      68   35580
   35571      68   35592   35583      68   35604   35595      68   35616   35607
      68   35628   35619      68   35640   35631      68   35652   35643      68
   35664   35655      68   35676   35667      68   35688   35679      68   35700
   35691      68   35712   35703      68   35724   35715      68   35736   35727
      68   35748   35739      68   35760   35751      68   35772   35763      68
   35784   35775      68   35796   35787      68   35808   35799      68   35820
   35811      68   35832   35823      68   35844   35835      68   35856   35847
      68   35868   35859      68   35880   35871      68   35892   35883      68
   35904   35895      68   35916   35907      68   35928   35919      68   35940
   35931      68   35952   35943      68   35964   35955      68   35976   35967
      68   35988   35979      68   36000   35991      68   36012   36003      68
   36024   36015      68   36036   36027      68   36048   36039      68   36060
   36051      68   36072   36063      68   36084   36075      68   36096   36087
      68   36108   36099      68   36120   36111      68   36132   36123      68
   36144   36135      68   36156   36147      68   36168   36159      68   36180
   36171      68   36192   36183      68   36204   36195      68   36216   36207
      68   36228   36219      68   36240   36231      68   36252   36243      68
   36264   36255      68   36276   36267      68   36288   36279      68   36300
   36291      68   36312   36303      68   36324   36315      68   36336   36327
      68   36348   36339      68   36360   36351      68   36372   36363      68
   36384   36375      68   36396   36387      68   36408   36399      68   36420
   36411      68   36432   36423      68   36444   36435      68   36456   36447
      68   36468   36459      68   36480   36471      68   36492   36483      68
   36504   36495      68   36516   36507      68   36528   36519      68   36540
   36531      68   36552   36543      68   36564   36555      68   36576   36567
      68   36588   36579      68   36600   36591      68   36612   36603      68
   36624   36615      68   36636   36627      68   36648   36639      68   36660
   36651      68   36672   36663      68   36684   36675      68   36696   36687
      68   36708   36699      68   36720   36711      68   36732   36723      68
   36744   36735      68   36756   36747      68   36768   36759      68   36780
   36771      68   36792   36783      68   36804   36795      68   36816   36807
      68   36828   36819      68   36840   36831      68   36852   36843      68
   36864   36855      68   36876   36867      68   36888   36879      68   36900
   36891      68   36912   36903      68   36924   36915      68   36936   36927
      68   36948   36939      68   36960   36951      68   36972   36963      68
   36984   36975      68   36996   36987      68   37008   36999      68   37020
   37011      68   37032   37023      68   37044   37035      68   37056   37047
      68   37068   37059      68   37080   37071      68   37092   37083      68
   37104   37095      68   37116   37107      68   37128   37119      68   37140
   37131      68   37152   37143      68   37164   37155      68   37176   37167
      68   37188   37179      68   37200   37191      68   37212   37203      68
   37224   37215      68   37236   37227      68   37248   37239      68   37260
   37251      68   37272   37263      68   37284   37275      68   37296   37287
      68   37308   37299      68   37320   37311      68   37332   37323      68
   37344   37335      68   37356   37347      68   37368   37359      68   37380
   37371      68   37392   37383      68   37404   37395      68   37416   37407
      68   37428   37419      68   37440   37431      68   37452   37443      68
   37464   37455      68   37476   37467      68   37488   37479      68   37500
   37491      68   37512   37503      68   37524   37515      68   37536   37527
      68   37548   37539      68   37560   37551      68   37572   37563      68
   37584   37575      68   37596   37587      68   37608   37599      68   37620
   37611      68   37632   37623      68   37644   37635      68   37656   37647
      68   37668   37659      68   37680   37671      68   37692   37683      68
   37704   37695      68   37716   37707      68   37728   37719      68   37740
   37731      68   37752   37743      68   37764   37755      68   37776   37767
      68   37788   37779      68   37800   37791      68   37812   37803      68
   37824   37815      68   37836   37827      68   37848   37839      68   37860
   37851      68   37872   37863      68   37884   37875      68   37896   37887
      68   37908   37899      68   37920   37911      68   37932   37923      68
   37944   37935      68   37956   37947      68   37968   37959      68   37980
   37971      68   37992   37983      68   38004   37995      68   38016   38007
      68   38028   38019      68   38040   38031      68   38052   38043      68
   38064   38055      68   38076   38067      68   38088   38079      68   38100
   38091      68   38112   38103      68   38124   38115      68   38136   38127
      68   38148   38139      68   38160   38151      68   38172   38163      68
   38184   38175      68   38196   38187      68   38208   38199      68   38220
   38211      68   38232   38223      68   38244   38235      68   38256   38247
      68   38268   38259      68   38280   38271      68   38292   38283      68
   38304   38295      68   38316   38307      68   38328   38319      68   38340
   38331      68   38352   38343      68   38364   38355      68   38376   38367
      68   38388   38379      68   38400   38391      68   38412   38403      68
   38424   38415      68   38436   38427      68   38448   38439      68   38460
   38451      68   38472   38463      68   38484   38475      68   38496   38487
      68   38508   38499      68   38520   38511      68   38532   38523      68
   38544   38535      68   38556   38547      68   38568   38559      68   38580
   38571      68   38592   38583      68   38604   38595      68   38616   38607
      68   38628   38619      68   38640   38631      68   38652   38643      68
   38664   38655      68   38676   38667      68   38688   38679      68   38700
   38691      68   38712   38703      68   38724   38715      68   38736   38727
      68   38748   38739      68   38760   38751      68   38772   38763      68
   38784   38775      68   38796   38787      68   38808   38799      68   38820
   38811      68   38832   38823      68   38844   38835      68   38856   38847
      68   38868   38859      68   38880   38871      68   38892   38883      68
   38904   38895      68   38916   38907      68   38928   38919      68   38940
   38931      68   38952   38943      68   38964   38955      68   38976   38967
      68   38988   38979      68   39000   38991      68   39012   39003      68
   39024   39015      68   39036   39027      68   39048   39039      68   39060
   39051      68   39072   39063      68   39084   39075      68   39096   39087
      68   39108   39099      68   39120   39111      68   39132   39123      68
   39144   39135      68   39156   39147      68   39168   39159      68   39180
   39171      68   39192   39183      68   39204   39195      68   39216   39207
      68   39228   39219      68   39240   39231      68   39252   39243      68
   39264   39255      68   39276   39267      68   39288   39279      68   39300
   39291      68   39312   39303      68   39324   39315      68   39336   39327
      68   39348   39339      68   39360   39351      68   39372   39363      68
   39384   39375      68   39396   39387      68   39408   39399      68   39420
   39411      68   39432   39423      68   39444   39435      68   39456   39447
      68   39468   39459      68   39480   39471      68   39492   39483      68
   39504   39495      68   39516   39507      68   39528   39519      68   39540
   39531      68   39552   39543      68   39564   39555      68   39576   39567
      68   39588   39579      68   39600   39591      68   39612   39603      68
   39624   39615      68   39636   39627      68   39648   39639      68   39660
   39651      68   39672   39663      68   39684   39675      68   39696   39687
      68   39708   39699      68   39720   39711      68   39732   39723      68
   39744   39735      68   39756   39747      68   39768   39759      68   39780
   39771      68   39792   39783      68   39804   39795      68   39816   39807
      68   39828   39819      68   39840   39831      68   39852   39843      68
   39864   39855      68   39876   39867      68   39888   39879      68   39900
   39891      68   39912   39903      68   39924   39915      68   39936   39927
      68   39948   39939      68   39960   39951      68   39972   39963      68
   39984   39975      68   39996   39987      68   40008   39999      68   40020
   40011      68   40032   40023      68   40044   40035      68   40056   40047
      68   40068   40059      68   40080   40071      68   40092   40083      68
   40104   40095      68   40116   40107      68   40128   40119      68   40140
   40131      68   40152   40143      68   40164   40155      68   40176   40167
      68   40188   40179      68   40200   40191      68   40212   40203      68
   40224   40215      68   40236   40227      68   40248   40239      68   40260
   40251      68   40272   40263      68   40284   40275      68   40296   40287
      68   40308   40299      68   40320   40311      68   40332   40323      68
   40344   40335      68   40356   40347      68   40368   40359      68   40380
   40371      68   40392   40383      68   40404   40395      68   40416   40407
      68   40428   40419      68   40440   40431      68   40452   40443      68
   40464   40455      68   40476   40467      68   40488   40479      68   40500
   40491      68   40512   40503      68   40524   40515      68   40536   40527
      68   40548   40539      68   40560   40551      68   40572   40563      68
   40584   40575      68   40596   40587      68   40608   40599      68   40620
   40611      68   40632   40623      68   40644   40635      68   40656   40647
      68   40668   40659      68   40680   40671      68   40692   40683      68
   40704   40695      68   40716   40707      68   40728   40719      68   40740
   40731      68   40752   40743      68   40764   40755      68   40776   40767
      68   40788   40779      68   40800   40791      68   40812   40803      68
   40824   40815      68   40836   40827      68   40848   40839      68   40860
   40851      68   40872   40863      68   40884   40875      68   40896   40887
      68   40908   40899      68   40920   40911      68   40932   40923      68
   40944   40935      68   40956   40947      68   40968   40959      68   40980
   40971      68   40992   40983      68   41004   40995      68   41016   41007
      68   41028   41019      68   41040   41031      68   41052   41043      68
   41064   41055      68   41076   41067      68   41088   41079      68   41100
   41091      68   41112   41103      68   41124   41115      68   41136   41127
      68   41148   41139      68   41160   41151      68   41172   41163      68
   41184   41175      68   41196   41187      68   41208   41199      68   41220
   41211      68   41232   41223      68   41244   41235      68   41256   41247
      68   41268   41259      68   41280   41271      68   41292   41283      68
   41304   41295      68   41316   41307      68   41328   41319      68   41340
   41331      68   41352   41343      68   41364   41355      68   41376   41367
      68   41388   41379      68   41400   41391      68   41412   41403      68
   41424   41415      68   41436   41427      68   41448   41439      68   41460
   41451      68   41472   41463      68   41484   41475      68   41496   41487
      68   41508   41499      68   41520   41511      68   41532   41523      68
   41544   41535      68   41556   41547      68   41568   41559      68   41580
   41571      68   41592   41583      68   41604   41595      68   41616   41607
      68   41628   41619      68   41640   41631      68   41652   41643      68
   41664   41655      68   41676   41667      68   41688   41679      68   41700
   41691      68   41712   41703      68   41724   41715      68   41736   41727
      68   41748   41739      68   41760   41751      68   41772   41763      68
   41784   41775      68   41796   41787      68   41808   41799      68   41820
   41811      68   41832   41823      68   41844   41835      68   41856   41847
      68   41868   41859      68   41880   41871      68   41892   41883      68
   41904   41895      68   41916   41907      68   41928   41919      68   41940
   41931      68   41952   41943      68   41964   41955      68   41976   41967
      68   41988   41979      68   42000   41991      68   42012   42003      68
   42024   42015      68   42036   42027      68   42048   42039      68   42060
   42051      68   42072   42063      68   42084   42075      68   42096   42087
      68   42108   42099      68   42120   42111      68   42132   42123      68
   42144   42135      68   42156   42147      68   42168   42159      68   42180
   42171      68   42192   42183      68   42204   42195      68   42216   42207
      68   42228   42219      68   42240   42231      68   42252   42243      68
   42264   42255      68   42276   42267      68   42288   42279      68   42300
   42291      68   42312   42303      68   42324   42315      68   42336   42327
      68   42348   42339      68   42360   42351      68   42372   42363      68
   42384   42375      68   42396   42387      68   42408   42399      68   42420
   42411      68   42432   42423      68   42444   42435      68   42456   42447
      68   42468   42459      68   42480   42471      68   42492   42483      68
   42504   42495      68   42516   42507      68   42528   42519      68   42540
   42531      68   42552   42543      68   42564   42555      68   42576   42567
      68   42588   42579      68   42600   42591      68   42612   42603      68
   42624   42615      68   42636   42627      68   42648   42639      68   42660
   42651      68   42672   42663      68   42684   42675      68   42696   42687
      68   42708   42699      68   42720   42711      68   42732   42723      68
   42744   42735      68   42756   42747      68   42768   42759      68   42780
   42771      68   42792   42783      68   42804   42795      68   42816   42807
      68   42828   42819      68   42840   42831      68   42852   42843      68
   42864   42855      68   42876   42867      68   42888   42879      68   42900
   42891      68   42912   42903      68   42924   42915      68   42936   42927
      68   42948   42939      68   42960   42951      68   42972   42963      68
   42984   42975      68   42996   42987      68   43008   42999      68   43020
   43011      68   43032   43023      68   43044   43035      68   43056   43047
      68   43068   43059      68   43080   43071      68   43092   43083      68
   43104   43095      68   43116   43107      68   43128   43119      68   43140
   43131      68   43152   43143      68   43164   43155      68   43176   43167
      68   43188   43179      68   43200   43191      68   43212   43203      68
   43224   43215      68   43236   43227      68   43248   43239      68   43260
   43251      68   43272   43263      68   43284   43275      68   43296   43287
      68   43308   43299      68   43320   43311      68   43332   43323      68
   43344   43335      68   43356   43347      68   43368   43359      68   43380
   43371      68   43392   43383      68   43404   43395      68   43416   43407
      68   43428   43419      68   43440   43431      68   43452   43443      68
   43464   43455      68   43476   43467      68   43488   43479      68   43500
   43491      68   43512   43503      68   43524   43515      68   43536   43527
      68   43548   43539      68   43560   43551      68   43572   43563      68
   43584   43575      68   43596   43587      68   43608   43599      68   43620
   43611      68   43632   43623      68   43644   43635      68   43656   43647
      68   43668   43659      68   43680   43671      68   43692   43683      68
   43704   43695      68   43716   43707      68   43728   43719      68   43740
   43731      68   43752   43743      68   43764   43755      68   43776   43767
      68   43788   43779      68   43800   43791      68   43812   43803      68
   43824   43815      68   43836   43827      68   43848   43839      68   43860
   43851      68   43872   43863      68   43884   43875      68   43896   43887
      68   43908   43899      68   43920   43911      68   43932   43923      68
   43944   43935      68   43956   43947      68   43968   43959      68   43980
   43971      68   43992   43983      68   44004   43995      68   44016   44007
      68   44028   44019      68   44040   44031      68   44052   44043      68
   44064   44055      68   44076   44067      68   44088   44079      68   44100
   44091      68   44112   44103      68   44124   44115      68   44136   44127
      68   44148   44139      68   44160   44151      68   44172   44163      68
   44184   44175      68   44196   44187      68   44208   44199      68   44220
   44211      68   44232   44223      68   44244   44235      68   44256   44247
      68   44268   44259      68   44280   44271      68   44292   44283      68
   44304   44295      68   44316   44307      68   44328   44319      68   44340
   44331      68   44352   44343      68   44364   44355      68   44376   44367
      68   44388   44379      68   44400   44391      68   44412   44403      68
   44424   44415      68   44436   44427      68   44448   44439      68   44460
   44451      68   44472   44463      68   44484   44475      68   44496   44487
      68   44508   44499      68   44520   44511      68   44532   44523      68
   44544   44535      68   44556   44547      68   44568   44559      68   44580
   44571      68   44592   44583      68   44604   44595      68   44616   44607
      68   44628   44619      68   44640   44631      68   44652   44643      68
   44664   44655      68   44676   44667      68   44688   44679      68   44700
   44691      68   44712   44703      68   44724   44715      68   44736   44727
      68   44748   44739      68   44760   44751      68   44772   44763      68
   44784   44775      68   44796   44787      68   44808   44799      68   44820
   44811      68   44832   44823      68   44844   44835      68   44856   44847
      68   44868   44859      68   44880   44871      68   44892   44883      68
   44904   44895      68   44916   44907      68   44928   44919      68   44940
   44931      68   44952   44943      68   44964   44955      68   44976   44967
      68   44988   44979      68   45000   44991      68   45012   45003      68
   45024   45015      68   45036   45027      68   45048   45039      68   45060
   45051      68   45072   45063      68   45084   45075      68   45096   45087
      68   45108   45099      68   45120   45111      68   45132   45123      68
   45144   45135      68   45156   45147      68   45168   45159      68   45180
   45171      68   45192   45183      68   45204   45195      68   45216   45207
      68   45228   45219      68   45240   45231      68   45252   45243      68
   45264   45255      68   45276   45267      68   45288   45279      68   45300
   45291      68   45312   45303      68   45324   45315      68   45336   45327
      68   45348   45339      68   45360   45351      68   45372   45363      68
   45384   45375      68   45396   45387      68   45408   45399      68   45420
   45411      68   45432   45423      68   45444   45435      68   45456   45447
      68   45468   45459      68   45480   45471      68   45492   45483      68
   45504   45495      68   45516   45507      68   45528   45519      68   45540
   45531      68   45552   45543      68   45564   45555      68   45576   45567
      68   45588   45579      68   45600   45591      68   45612   45603      68
   45624   45615      68   45636   45627      68   45648   45639      68   45660
   45651      68   45672   45663      68   45684   45675      68   45696   45687
      68   45708   45699      68   45720   45711      68   45732   45723      68
   45744   45735      68   45756   45747      68   45768   45759      68   45780
   45771      68   45792   45783      68   45804   45795      68   45816   45807
      68   45828   45819      68   45840   45831      68   45852   45843      68
   45864   45855      68   45876   45867      68   45888   45879      68   45900
   45891      68   45912   45903      68   45924   45915      68   45936   45927
      68   45948   45939      68   45960   45951      68   45972   45963      68
   45984   45975      68   45996   45987      68   46008   45999      68   46020
   46011      68   46032   46023      68   46044   46035      68   46056   46047
      68   46068   46059      68   46080   46071      68   46092   46083      68
   46104   46095      68   46116   46107      68   46128   46119      68   46140
   46131      68   46152   46143      68   46164   46155      68   46176   46167
      68   46188   46179      68   46200   46191      68   46212   46203      68
   46224   46215      68   46236   46227      68   46248   46239      68   46260
   46251      68   46272   46263      68   46284   46275      68   46296   46287
      68   46308   46299      68   46320   46311      68   46332   46323      68
   46344   46335      68   46356   46347      68   46368   46359      68   46380
   46371      68   46392   46383      68   46404   46395      68   46416   46407
      68   46428   46419      68   46440   46431      68   46452   46443      68
   46464   46455      68   46476   46467      68   46488   46479      68   46500
   46491      68   46512   46503      68   46524   46515      68   46536   46527
      68   46548   46539      68   46560   46551      68   46572   46563      68
   46584   46575      68   46596   46587      68   46608   46599      68   46620
   46611      68   46632   46623      68   46644   46635      68   46656   46647
      68   46668   46659      68   46680   46671      68   46692   46683      68
   46704   46695      68   46716   46707      68   46728   46719      68   46740
   46731      68   46752   46743      68   46764   46755      68   46776   46767
      68   46788   46779      68   46800   46791      68   46812   46803      68
   46824   46815      68   46836   46827      68   46848   46839      68   46860
   46851      68   46872   46863      68   46884   46875      68   46896   46887
      68   46908   46899      68   46920   46911      68   46932   46923      68
   46944   46935      68   46956   46947      68   46968   46959      68   46980
   46971      68   46992   46983      68   47004   46995      68   47016   47007
      68   47028   47019      68   47040   47031      68   47052   47043      68
   47064   47055      68   47076   47067      68   47088   47079      68   47100
   47091      68   47112   47103      68   47124   47115      68   47136   47127
      68   47148   47139      68   47160   47151      68   47172   47163      68
   47184   47175      68   47196   47187      68   47208   47199      68   47220
   47211      68   47232   47223      68   47244   47235      68   47256   47247
      68   47268   47259      68   47280   47271      68   47292   47283      68
   47304   47295      68   47316   47307      68   47328   47319      68   47340
   47331      68   47352   47343      68   47364   47355      68   47376   47367
      68   47388   47379      68   47400   47391      68   47412   47403      68
   47424   47415      68   47436   47427      68   47448   47439      68   47460
   47451      68   47472   47463      68   47484   47475      68   47496   47487
      68   47508   47499      68   47520   47511      68   47532   47523      68
   47544   47535      68   47556   47547      68   47568   47559      68   47580
   47571      68   47592   47583      68   47604   47595      68   47616   47607
      68   47628   47619      68   47640   47631      68   47652   47643      68
   47664   47655      68   47676   47667      68   47688   47679      68   47700
   47691      68   47712   47703      68   47724   47715      68   47736   47727
      68   47748   47739      68   47760   47751      68   47772   47763      68
   47784   47775      68   47796   47787      68   47808   47799      68   47820
   47811      68   47832   47823      68   47844   47835      68   47856   47847
      68   47868   47859      68   47880   47871      68   47892   47883      68
   47904   47895      68   47916   47907      68   47928   47919      68   47940
   47931      68   47952   47943      68   47964   47955      68   47976   47967
      68   47988   47979      68   48000   47991      68   48012   48003      68
   48024   48015      68   48036   48027      68   48048   48039      68   48060
   48051      68   48072   48063      68   48084   48075      68   48096   48087
      68   48108   48099      68   48120   48111      68   48132   48123      68
   48144   48135      68   48156   48147      68   48168   48159      68   48180
   48171      68   48192   48183      68   48204   48195      68   48216   48207
      68   48228   48219      68   48240   48231      68   48252   48243      68
   48264   48255      68   48276   48267      68   48288   48279      68   48300
   48291      68   48312   48303      68   48324   48315      68   48336   48327
      68   48348   48339      68   48360   48351      68   48372   48363      68
   48384   48375      68   48396   48387      68   48408   48399      68   48420
   48411      68   48432   48423      68   48444   48435      68   48456   48447
      68   48468   48459      68   48480   48471      68   48492   48483      68
   48504   48495      68   48516   48507      68   48528   48519      68   48540
   48531      68   48552   48543      68   48564   48555      68   48576   48567
      68   48588   48579      68   48600   48591      68   48612   48603      68
   48624   48615      68   48636   48627      68   48648   48639      68   48660
   48651      68   48672   48663      68   48684   48675      68   48696   48687
      68   48708   48699      68   48720   48711      68   48732   48723      68
   48744   48735      68   48756   48747      68   48768   48759      68   48780
   48771      68   48792   48783      68   48804   48795      68   48816   48807
      68   48828   48819      68   48840   48831      68   48852   48843      68
   48864   48855      68   48876   48867      68   48888   48879      68   48900
   48891      68   48912   48903      68   48924   48915      68   48936   48927
      68   48948   48939      68   48960   48951      68   48972   48963      68
   48984   48975      68   48996   48987      68   49008   48999      68   49020
   49011      68   49032   49023      68   49044   49035      68   49056   49047
      68   49068   49059      68   49080   49071      68   49092   49083      68
   49104   49095      68   49116   49107      68   49128   49119      68   49140
   49131      68   49152   49143      68   49164   49155      68   49176   49167
      68   49188   49179      68   49200   49191      68   49212   49203      68
   49224   49215      68   49236   49227      68   49248   49239      68   49260
   49251      68   49272   49263      68   49284   49275      68   49296   49287
      68   49308   49299      68   49320   49311      68   49332   49323      68
   49344   49335      68   49356   49347      68   49368   49359      68   49380
   49371      68   49392   49383      68   49404   49395      68   49416   49407
      68   49428   49419      68   49440   49431      68   49452   49443      68
   49464   49455      68   49476   49467      68   49488   49479      68   49500
   49491      68   49512   49503      68   49524   49515      68   49536   49527
      68   49548   49539      68   49560   49551      68   49572   49563      68
   49584   49575      68   49596   49587      68   49608   49599      68   49620
   49611      68   49632   49623      68   49644   49635      68   49656   49647
      68   49668   49659      68   49680   49671      68   49692   49683      68
   49704   49695      68   49716   49707      68   49728   49719      68   49740
   49731      68   49752   49743      68   49764   49755      68   49776   49767
      68   49788   49779      68   49800   49791      68   49812   49803      68
   49824   49815      68   49836   49827      68   49848   49839      68   49860
   49851      68   49872   49863      68   49884   49875      68   49896   49887
      68   49908   49899      68   49920   49911      68   49932   49923      68
   49944   49935      68   49956   49947      68   49968   49959      68   49980
   49971      68   49992   49983      68   50004   49995      68   50016   50007
      68   50028   50019      68   50040   50031      68   50052   50043      68
   50064   50055      68   50076   50067      68   50088   50079      68   50100
   50091      68   50112   50103      68   50124   50115      68   50136   50127
      68   50148   50139      68   50160   50151      68   50172   50163      68
   50184   50175      68   50196   50187      68   50208   50199      68   50220
   50211      68   50232   50223      68   50244   50235      68   50256   50247
      68   50268   50259      68   50280   50271      68   50292   50283      68
   50304   50295      68   50316   50307      68   50328   50319      68   50340
   50331      68   50352   50343      68   50364   50355      68   50376   50367
      68   50388   50379      68   50400   50391      68   50412   50403      68
   50424   50415      68   50436   50427      68   50448   50439      68   50460
   50451      68   50472   50463      68   50484   50475      68   50496   50487
      68   50508   50499      68   50520   50511      68   50532   50523      68
   50544   50535      68   50556   50547      68   50568   50559      68   50580
   50571      68   50592   50583      68   50604   50595      68   50616   50607
      68   50628   50619      68   50640   50631      68   50652   50643      68
   50664   50655      68   50676   50667      68   50688   50679      68   50700
   50691      68   50712   50703      68   50724   50715      68   50736   50727
      68   50748   50739      68   50760   50751      68   50772   50763      68
   50784   50775      68   50796   50787      68   50808   50799      68   50820
   50811      68   50832   50823      68   50844   50835      68   50856   50847
      68   50868   50859      68   50880   50871      68   50892   50883      68
   50904   50895      68   50916   50907      68   50928   50919      68   50940
   50931      68   50952   50943      68   50964   50955      68   50976   50967
      68   50988   50979      68   51000   50991      68   51012   51003      68
   51024   51015      68   51036   51027      68   51048   51039      68   51060
   51051      68   51072   51063      68   51084   51075      68   51096   51087
      68   51108   51099      68   51120   51111      68   51132   51123      68
   51144   51135      68   51156   51147      68   51168   51159      68   51180
   51171      68   51192   51183      68   51204   51195      68   51216   51207
      68   51228   51219      68   51240   51231      68   51252   51243      68
   51264   51255      68   51276   51267      68   51288   51279      68   51300
   51291      68   51312   51303      68   51324   51315      68   51336   51327
      68   51348   51339      68   51360   51351      68   51372   51363      68
   51384   51375      68   51396   51387      68   51408   51399      68   51420
   51411      68   51432   51423      68   51444   51435      68   51456   51447
      68   51468   51459      68   51480   51471      68   51492   51483      68
   51504   51495      68   51516   51507      68   51528   51519      68   51540
   51531      68   51552   51543      68   51564   51555      68   51576   51567
      68   51588   51579      68   51600   51591      68   51612   51603      68
   51624   51615      68   51636   51627      68   51648   51639      68   51660
   51651      68   51672   51663      68   51684   51675      68   51696   51687
      68   51708   51699      68   51720   51711      68   51732   51723      68
   51744   51735      68   51756   51747      68   51768   51759      68   51780
   51771      68   51792   51783      68   51804   51795      68   51816   51807
      68   51828   51819      68   51840   51831      68   51852   51843      68
   51864   51855      68   51876   51867      68   51888   51879      68   51900
   51891      68   51912   51903      68   51924   51915      68   51936   51927
      68   51948   51939      68   51960   51951      68   51972   51963      68
   51984   51975      68   51996   51987      68   52008   51999      68   52020
   52011      68   52032   52023      68   52044   52035      68   52056   52047
      68   52068   52059      68   52080   52071      68   52092   52083      68
   52104   52095      68   52116   52107      68   52128   52119      68   52140
   52131      68   52152   52143      68   52164   52155      68   52176   52167
      68   52188   52179      68   52200   52191      68   52212   52203      68
   52224   52215      68   52236   52227      68   52248   52239      68   52260
   52251      68   52272   52263      68   52284   52275      68   52296   52287
      68   52308   52299      68   52320   52311      68   52332   52323      68
   52344   52335      68   52356   52347      68   52368   52359      68   52380
   52371      68   52392   52383      68   52404   52395      68   52416   52407
      68   52428   52419      68   52440   52431      68   52452   52443      68
   52464   52455      68   52476   52467      68   52488   52479      68   52500
   52491      68   52512   52503      68   52524   52515      68   52536   52527
      68   52548   52539      68   52560   52551      68   52572   52563      68
   52584   52575      68   52596   52587      68   52608   52599      68   52620
   52611      68   52632   52623      68   52644   52635      68   52656   52647
      68   52668   52659      68   52680   52671      68   52692   52683      68
   52704   52695      68   52716   52707      68   52728   52719      68   52740
   52731      68   52752   52743      68   52764   52755      68   52776   52767
      68   52788   52779      68   52800   52791      68   52812   52803      68
   52824   52815      68   52836   52827      68   52848   52839      68   52860
   52851      68   52872   52863      68   52884   52875      68   52896   52887
      68   52908   52899      68   52920   52911      68   52932   52923      68
   52944   52935      68   52956   52947      68   52968   52959      68   52980
   52971      68   52992   52983      68   53004   52995      68   53016   53007
      68   53028   53019      68   53040   53031      68   53052   53043      68
   53064   53055      68   53076   53067      68   53088   53079      68   53100
   53091      68   53112   53103      68   53124   53115      68   53136   53127
      68   53148   53139      68   53160   53151      68   53172   53163      68
   53184   53175      68   53196   53187      68   53208   53199      68   53220
   53211      68   53232   53223      68   53244   53235      68   53256   53247
      68   53268   53259      68   53280   53271      68   53292   53283      68
   53304   53295      68   53316   53307      68   53328   53319      68   53340
   53331      68   53352   53343      68   53364   53355      68   53376   53367
      68   53388   53379      68   53400   53391      68   53412   53403      68
   53424   53415      68   53436   53427      68   53448   53439      68   53460
   53451      68   53472   53463      68   53484   53475      68   53496   53487
      68   53508   53499      68   53520   53511      68   53532   53523      68
   53544   53535      68   53556   53547      68   53568   53559      68   53580
   53571      68   53592   53583      68   53604   53595      68   53616   53607
      68   53628   53619      68   53640   53631      68   53652   53643      68
   53664   53655      68   53676   53667      68   53688   53679      68   53700
   53691      68   53712   53703      68   53724   53715      68   53736   53727
      68   53748   53739      68   53760   53751      68   53772   53763      68
   53784   53775      68   53796   53787      68   53808   53799      68   53820
   53811      68   53832   53823      68   53844   53835      68   53856   53847
      68   53868   53859      68   53880   53871      68   53892   53883      68
   53904   53895      68   53916   53907      68   53928   53919      68   53940
   53931      68   53952   53943      68   53964   53955      68   53976   53967
      68   53988   53979      68   54000   53991      68   54012   54003      68
   54024   54015      68   54036   54027      68   54048   54039      68   54060
   54051      68   54072   54063      68   54084   54075      68   54096   54087
      68   54108   54099      68   54120   54111      68   54132   54123      68
   54144   54135      68   54156   54147      68   54168   54159      68   54180
   54171      68   54192   54183      68   54204   54195      68   54216   54207
      68   54228   54219      68   54240   54231      68   54252   54243      68
   54264   54255      68   54276   54267      68   54288   54279      68   54300
   54291      68   54312   54303      68   54324   54315      68   54336   54327
      68   54348   54339      68   54360   54351      68   54372   54363      68
   54384   54375      68   54396   54387      68   54408   54399      68   54420
   54411      68   54432   54423      68   54444   54435      68   54456   54447
      68   54468   54459      68   54480   54471      68   54492   54483      68
   54504   54495      68   54516   54507      68   54528   54519      68   54540
   54531      68   54552   54543      68   54564   54555      68   54576   54567
      68   54588   54579      68   54600   54591      68   54612   54603      68
   54624   54615      68   54636   54627      68   54648   54639      68   54660
   54651      68   54672   54663      68   54684   54675      68   54696   54687
      68   54708   54699      68   54720   54711      68   54732   54723      68
   54744   54735      68   54756   54747      68   54768   54759      68   54780
   54771      68   54792   54783      68   54804   54795      68   54816   54807
      68   54828   54819      68   54840   54831      68   54852   54843      68
   54864   54855      68   54876   54867      68   54888   54879      68   54900
   54891      68   54912   54903      68   54924   54915      68   54936   54927
      68   54948   54939      68   54960   54951      68   54972   54963      68
   54984   54975      68   54996   54987      68   55008   54999      68   55020
   55011      68   55032   55023      68   55044   55035      68   55056   55047
      68   55068   55059      68   55080   55071      68   55092   55083      68
   55104   55095      68   55116   55107      68   55128   55119      68   55140
   55131      68   55152   55143      68   55164   55155      68   55176   55167
      68   55188   55179      68   55200   55191      68   55212   55203      68
   55224   55215      68   55236   55227      68   55248   55239      68   55260
   55251      68   55272   55263      68   55284   55275      68   55296   55287
      68   55308   55299      68   55320   55311      68   55332   55323      68
   55344   55335      68   55356   55347      68   55368   55359      68   55380
   55371      68   55392   55383      68   55404   55395      68   55416   55407
      68   55428   55419      68   55440   55431      68   55452   55443      68
   55464   55455      68   55476   55467      68   55488   55479      68   55500
   55491      68   55512   55503      68   55524   55515      68   55536   55527
      68   55548   55539      68   55560   55551      68   55572   55563      68
   55584   55575      68   55596   55587      68   55608   55599      68   55620
   55611      68   55632   55623      68   55644   55635      68   55656   55647
      68   55668   55659      68   55680   55671      68   55692   55683      68
   55704   55695      68   55716   55707      68   55728   55719      68   55740
   55731      68   55752   55743      68   55764   55755      68   55776   55767
      68   55788   55779      68   55800   55791      68   55812   55803      68
   55824   55815      68   55836   55827      68   55848   55839      68   55860
   55851      68   55872   55863      68   55884   55875      68   55896   55887
      68   55908   55899      68   55920   55911      68   55932   55923      68
   55944   55935      68   55956   55947      68   55968   55959      68   55980
   55971      68   55992   55983      68   56004   55995      68   56016   56007
      68   56028   56019      68   56040   56031      68   56052   56043      68
   56064   56055      68   56076   56067      68   56088   56079      68   56100
   56091      68   56112   56103      68   56124   56115      68   56136   56127
      68   56148   56139      68   56160   56151      68   56172   56163      68
   56184   56175      68   56196   56187      68   56208   56199      68   56220
   56211      68   56232   56223      68   56244   56235      68   56256   56247
      68   56268   56259      68   56280   56271      68   56292   56283      68
   56304   56295      68   56316   56307      68   56328   56319      68   56340
   56331      68   56352   56343      68   56364   56355      68   56376   56367
      68   56388   56379      68   56400   56391      68   56412   56403      68
   56424   56415      68   56436   56427      68   56448   56439      68   56460
   56451      68   56472   56463      68   56484   56475      68   56496   56487
      68   56508   56499      68   56520   56511      68   56532   56523      68
   56544   56535      68   56556   56547      68   56568   56559      68   56580
   56571      68   56592   56583      68   56604   56595      68   56616   56607
      68   56628   56619      68   56640   56631      68   56652   56643      68
   56664   56655      68   56676   56667      68   56688   56679      68   56700
   56691      68   56712   56703      68   56724   56715      68   56736   56727
      68   56748   56739      68   56760   56751      68   56772   56763      68
   56784   56775      68   56796   56787      68   56808   56799      68   56820
   56811      68   56832   56823      68   56844   56835      68   56856   56847
      68   56868   56859      68   56880   56871      68   56892   56883      68
   56904   56895      68   56916   56907      68   56928   56919      68   56940
   56931      68   56952   56943      68   56964   56955      68   56976   56967
      68   56988   56979      68   57000   56991      68   57012   57003      68
   57024   57015      68   57036   57027      68   57048   57039      68   57060
   57051      68   57072   57063      68   57084   57075      68   57096   57087
      68   57108   57099      68   57120   57111      68   57132   57123      68
   57144   57135      68   57156   57147      68   57168   57159      68   57180
   57171      68   57192   57183      68   57204   57195      68   57216   57207
      68   57228   57219      68   57240   57231      68   57252   57243      68
   57264   57255      68   57276   57267      68   57288   57279      68   57300
   57291      68   57312   57303      68   57324   57315      68   57336   57327
      68   57348   57339      68   57360   57351      68   57372   57363      68
   57384   57375      68   57396   57387      68   57408   57399      68   57420
   57411      68   57432   57423      68   57444   57435      68   57456   57447
      68   57468   57459      68   57480   57471      68   57492   57483      68
   57504   57495      68   57516   57507      68   57528   57519      68   57540
   57531      68   57552   57543      68   57564   57555      68   57576   57567
      68   57588   57579      68   57600   57591      68   57612   57603      68
   57624   57615      68   57636   57627      68   57648   57639      68   57660
   57651      68   57672   57663      68   57684   57675      68   57696   57687
      68   57708   57699      68   57720   57711      68   57732   57723      68
   57744   57735      68   57756   57747      68   57768   57759      68   57780
   57771      68   57792   57783      68   57804   57795      68   57816   57807
      68   57828   57819      68   57840   57831      68   57852   57843      68
   57864   57855      68   57876   57867      68   57888   57879      68   57900
   57891      68   57912   57903      68   57924   57915      68   57936   57927
      68   57948   57939      68   57960   57951      68   57972   57963      68
   57984   57975      68   57996   57987      68   58008   57999      68   58020
   58011      68   58032   58023      68   58044   58035      68   58056   58047
      68   58068   58059      68   58080   58071      68   58092   58083      68
   58104   58095      68   58116   58107      68   58128   58119      68   58140
   58131      68   58152   58143      68   58164   58155      68   58176   58167
      68   58188   58179      68   58200   58191      68   58212   58203      68
   58224   58215      68   58236   58227      68   58248   58239      68   58260
   58251      68   58272   58263      68   58284   58275      68   58296   58287
      68   58308   58299      68   58320   58311      68   58332   58323      68
   58344   58335      68   58356   58347      68   58368   58359      68   58380
   58371      68   58392   58383      68   58404   58395      68   58416   58407
      68   58428   58419      68   58440   58431      68   58452   58443      68
   58464   58455      68   58476   58467      68   58488   58479      68   58500
   58491      68   58512   58503      68   58524   58515      68   58536   58527
      68   58548   58539      68   58560   58551      68   58572   58563      68
   58584   58575      68   58596   58587      68   58608   58599      68   58620
   58611      68   58632   58623      68   58644   58635      68   58656   58647
      68   58668   58659      68   58680   58671      68   58692   58683      68
   58704   58695      68   58716   58707      68   58728   58719      68   58740
   58731      68   58752   58743      68   58764   58755      68   58776   58767
      68   58788   58779      68   58800   58791      68   58812   58803      68
   58824   58815      68   58836   58827      68   58848   58839      68   58860
   58851      68   58872   58863      68   58884   58875      68   58896   58887
      68   58908   58899      68   58920   58911      68   58932   58923      68
   58944   58935      68   58956   58947      68   58968   58959      68   58980
   58971      68   58992   58983      68   59004   58995      68   59016   59007
      68   59028   59019      68   59040   59031      68   59052   59043      68
   59064   59055      68   59076   59067      68   59088   59079      68   59100
   59091      68   59112   59103      68   59124   59115      68   59136   59127
      68   59148   59139      68   59160   59151      68   59172   59163      68
   59184   59175      68   59196   59187      68   59208   59199      68   59220
   59211      68   59232   59223      68   59244   59235      68   59256   59247
      68   59268   59259      68   59280   59271      68   59292   59283      68
   59304   59295      68   59316   59307      68   59328   59319      68   59340
   59331      68   59352   59343      68   59364   59355      68   59376   59367
      68   59388   59379      68   59400   59391      68   59412   59403      68
   59424   59415      68   59436   59427      68   59448   59439      68   59460
   59451      68   59472   59463      68   59484   59475      68   59496   59487
      68   59508   59499      68   59520   59511      68   59532   59523      68
   59544   59535      68   59556   59547      68   59568   59559      68   59580
   59571      68   59592   59583      68   59604   59595      68   59616   59607
      68   59628   59619      68   59640   59631      68   59652   59643      68
   59664   59655      68   59676   59667      68   59688   59679      68   59700
   59691      68   59712   59703      68   59724   59715      68   59736   59727
      68   59748   59739      68   59760   59751      68   59772   59763      68
   59784   59775      68   59796   59787      68   59808   59799      68   59820
   59811      68   59832   59823      68   59844   59835      68   59856   59847
      68   59868   59859      68   59880   59871      68   59892   59883      68
   59904   59895      68   59916   59907      68   59928   59919      68   59940
   59931      68   59952   59943      68   59964   59955      68   59976   59967
      68   59988   59979      68   60000   59991      68   60012   60003      68
   60024   60015      68   60036   60027      68   60048   60039      68   60060
   60051      68   60072   60063      68   60084   60075      68   60096   60087
      68   60108   60099      68   60120   60111      68   60132   60123      68
   60144   60135      68   60156   60147      68   60168   60159      68   60180
   60171      68   60192   60183      68   60204   60195      68   60216   60207
      68   60228   60219      68   60240   60231      68   60252   60243      68
   60264   60255      68   60276   60267      68   60288   60279      68   60300
   60291      68   60312   60303      68   60324   60315      68   60336   60327
      68   60348   60339      68   60360   60351      68   60372   60363      68
   60384   60375      68   60396   60387      68   60408   60399      68   60420
   60411      68   60432   60423      68   60444   60435      68   60456   60447
      68   60468   60459      68   60480   60471      68   60492   60483      68
   60504   60495      68   60516   60507      68   60528   60519      68   60540
   60531      68   60552   60543      68   60564   60555      68   60576   60567
      68   60588   60579      68   60600   60591      68   60612   60603      68
   60624   60615      68   60636   60627      68   60648   60639      68   60660
   60651      68   60672   60663      68   60684   60675      68   60696   60687
      68   60708   60699      68   60720   60711      68   60732   60723      68
   60744   60735      68   60756   60747      68   60768   60759      68   60780
   60771      68   60792   60783      68   60804   60795      68   60816   60807
      68   60828   60819      68   60840   60831      68   60852   60843      68
   60864   60855      68   60876   60867      68   60888   60879      68   60900
   60891      68   60912   60903      68   60924   60915      68   60936   60927
      68   60948   60939      68   60960   60951      68   60972   60963      68
   60984   60975      68   60996   60987      68   61008   60999      68   61020
   61011      68   61032   61023      68   61044   61035      68   61056   61047
      68   61068   61059      68   61080   61071      68   61092   61083      68
   61104   61095      68   61116   61107      68   61128   61119      68   61140
   61131      68   61152   61143      68   61164   61155      68   61176   61167
      68   61188   61179      68   61200   61191      68   61212   61203      68
   61224   61215      68   61236   61227      68   61248   61239      68   61260
   61251      68   61272   61263      68   61284   61275      68   61296   61287
      68   61308   61299      68   61320   61311      68   61332   61323      68
   61344   61335      68   61356   61347      68   61368   61359      68   61380
   61371      68   61392   61383      68   61404   61395      68   61416   61407
      68   61428   61419      68   61440   61431      68   61452   61443      68
   61464   61455      68   61476   61467      68   61488   61479      68   61500
   61491      68   61512   61503      68   61524   61515      68   61536   61527
      68   61548   61539      68   61560   61551      68   61572   61563      68
   61584   61575      68   61596   61587      68   61608   61599      68   61620
   61611      68   61632   61623      68   61644   61635      68   61656   61647
      68   61668   61659      68   61680   61671      68   61692   61683      68
   61704   61695      68   61716   61707      68   61728   61719      68   61740
   61731      68   61752   61743      68   61764   61755      68   61776   61767
      68   61788   61779      68   61800   61791      68   61812   61803      68
   61824   61815      68   61836   61827      68   61848   61839      68   61860
   61851      68   61872   61863      68   61884   61875      68   61896   61887
      68   61908   61899      68   61920   61911      68   61932   61923      68
   61944   61935      68   61956   61947      68   61968   61959      68   61980
   61971      68   61992   61983      68   62004   61995      68   62016   62007
      68   62028   62019      68   62040   62031      68   62052   62043      68
   62064   62055      68   62076   62067      68   62088   62079      68   62100
   62091      68   62112   62103      68   62124   62115      68   62136   62127
      68   62148   62139      68   62160   62151      68   62172   62163      68
   62184   62175      68   62196   62187      68   62208   62199      68   62220
   62211      68   62232   62223      68   62244   62235      68   62256   62247
      68   62268   62259      68   62280   62271      68   62292   62283      68
   62304   62295      68   62316   62307      68   62328   62319      68   62340
   62331      68   62352   62343      68   62364   62355      68   62376   62367
      68   62388   62379      68   62400   62391      68   62412   62403      68
   62424   62415      68   62436   62427      68   62448   62439      68   62460
   62451      68   62472   62463      68   62484   62475      68   62496   62487
      68   62508   62499      68   62520   62511      68   62532   62523      68
   62544   62535      68   62556   62547      68   62568   62559      68   62580
   62571      68   62592   62583      68   62604   62595      68   62616   62607
      68   62628   62619      68   62640   62631      68   62652   62643      68
   62664   62655      68   62676   62667      68   62688   62679      68   62700
   62691      68   62712   62703      68   62724   62715      68   62736   62727
      68   62748   62739      68   62760   62751      68   62772   62763      68
   62784   62775      68   62796   62787      68   62808   62799      68   62820
   62811      68   62832   62823      68   62844   62835      68   62856   62847
      68   62868   62859      68   62880   62871      68   62892   62883      68
   62904   62895      68   62916   62907      68   62928   62919      68   62940
   62931      68   62952   62943      68   62964   62955      68   62976   62967
      68   62988   62979      68   63000   62991      68   63012   63003      68
   63024   63015      68   63036   63027      68   63048   63039      68   63060
   63051      68   63072   63063      68   63084   63075      68   63096   63087
      68   63108   63099      68   63120   63111      68   63132   63123      68
   63144   63135      68   63156   63147      68   63168   63159      68   63180
   63171      68   63192   63183      68   63204   63195      68   63216   63207
      68   63228   63219      68   63240   63231      68   63252   63243      68
   63264   63255      68   63276   63267      68   63288   63279      68   63300
   63291      68   63312   63303      68   63324   63315      68   63336   63327
      68   63348   63339      68   63360   63351      68   63372   63363      68
   63384   63375      68   63396   63387      68   63408   63399      68   63420
   63411      68   63432   63423      68   63444   63435      68   63456   63447
      68   63468   63459      68   63480   63471      68   63492   63483      68
   63504   63495      68   63516   63507      68   63528   63519      68   63540
   63531      68   63552   63543      68   63564   63555      68   63576   63567
      68   63588   63579      68   63600   63591      68   63612   63603      68
   63624   63615      68   63636   63627      68   63648   63639      68   63660
   63651      68   63672   63663      68   63684   63675      68   63696   63687
      68   63708   63699      68   63720   63711      68   63732   63723      68
   63744   63735      68   63756   63747      68   63768   63759      68   63780
   63771      68   63792   63783      68   63804   63795      68   63816   63807
      68   63828   63819      68   63840   63831      68   63852   63843      68
   63864   63855      68   63876   63867      68   63888   63879      68   63900
   63891      68   63912   63903      68   63924   63915      68   63936   63927
      68   63948   63939      68   63960   63951      68   63972   63963      68
   63984   63975      68   63996   63987      68   64008   63999      68   64020
   64011      68   64032   64023      68   64044   64035      68   64056   64047
      68   64068   64059      68   64080   64071      68   64092   64083      68
   64104   64095      68   64116   64107      68   64128   64119      68   64140
   64131      68   64152   64143      68   64164   64155      68   64176   64167
      68   64188   64179      68   64200   64191      68   64212   64203      68
   64224   64215      68   64236   64227      68   64248   64239      68   64260
   64251      68   64272   64263      68   64284   64275      68   64296   64287
      68   64308   64299      68   64320   64311      68   64332   64323      68
   64344   64335      68   64356   64347      68   64368   64359      68   64380
   64371      68   64392   64383      68   64404   64395      68   64416   64407
      68   64428   64419      68   64440   64431      68   64452   64443      68
   64464   64455      68   64476   64467      68   64488   64479      68   64500
   64491      68   64512   64503      68   64524   64515      68   64536   64527
      68   64548   64539      68   64560   64551      68   64572   64563      68
   64584   64575      68   64596   64587      68   64608   64599      68   64620
   64611      68   64632   64623      68   64644   64635      68   64656   64647
      68   64668   64659      68   64680   64671      68   64692   64683      68
   64704   64695      68   64716   64707      68   64728   64719      68   64740
   64731      68   64752   64743      68   64764   64755      68   64776   64767
      68   64788   64779      68   64800   64791      68   64812   64803      68
   64824   64815      68   64836   64827      68   64848   64839      68   64860
   64851      68   64872   64863      68   64884   64875      68   64896   64887
      68   64908   64899      68   64920   64911      68   64932   64923      68
   64944   64935      68   64956   64947      68   64968   64959      68   64980
   64971      68   64992   64983      68   65004   64995      68   65016   65007
      68   65028   65019      68   65040   65031      68   65052   65043      68
   65064   65055      68   65076   65067      68   65088   65079      68   65100
   65091      68   65112   65103      68   65124   65115      68   65136   65127
      68   65148   65139      68   65160   65151      68   65172   65163      68
   65184   65175      68   65196   65187      68   65208   65199      68   65220
   65211      68   65232   65223      68   65244   65235      68   65256   65247
      68   65268   65259      68   65280   65271      68   65292   65283      68
   65304   65295      68   65316   65307      68   65328   65319      68   65340
   65331      68   65352   65343      68   65364   65355      68   65376   65367
      68   65388   65379      68   65400   65391      68   65412   65403      68
   65424   65415      68   65436   65427      68   65448   65439      68   65460
   65451      68   65472   65463      68   65484   65475      68   65496   65487
      68   65508   65499      68   65520   65511      68   65532   65523      68
   65544   65535      68   65556   65547      68   65568   65559      68   65580
   65571      68   65592   65583      68   65604   65595      68   65616   65607
      68   65628   65619      68   65640   65631      68   65652   65643      68
   65664   65655      68   65676   65667      68   65688   65679      68   65700
   65691      68   65712   65703      68   65724   65715      68   65736   65727
      68   65748   65739      68   65760   65751      68   65772   65763      68
   65784   65775      68   65796   65787      68   65808   65799      68   65820
   65811      68   65832   65823      68   65844   65835      68   65856   65847
      68   65868   65859      68   65880   65871      68   65892   65883      68
   65904   65895      68   65916   65907      68   65928   65919      68   65940
   65931      68   65952   65943      68   65964   65955      68   65976   65967
      68   65988   65979      68   66000   65991      68   66012   66003      68
   66024   66015      68   66036   66027      68   66048   66039      68   66060
   66051      68   66072   66063      68   66084   66075      68   66096   66087
      68   66108   66099      68   66120   66111      68   66132   66123      68
   66144   66135      68   66156   66147      68   66168   66159      68   66180
   66171      68   66192   66183      68   66204   66195      68   66216   66207
      68   66228   66219      68   66240   66231      68   66252   66243      68
   66264   66255      68   66276   66267      68   66288   66279      68   66300
   66291      68   66312   66303      68   66324   66315      68   66336   66327
      68   66348   66339      68   66360   66351      68   66372   66363      68
   66384   66375      68   66396   66387      68   66408   66399      68   66420
   66411      68   66432   66423      68   66444   66435      68   66456   66447
      68   66468   66459      68   66480   66471      68   66492   66483      68
   66504   66495      68   66516   66507      68   66528   66519      68   66540
   66531      68   66552   66543      68   66564   66555      68   66576   66567
      68   66588   66579      68   66600   66591      68   66612   66603      68
   66624   66615      68   66636   66627      68   66648   66639      68   66660
   66651      68   66672   66663      68   66684   66675      68   66696   66687
      68   66708   66699      68   66720   66711      68   66732   66723      68
   66744   66735      68   66756   66747      68   66768   66759      68   66780
   66771      68   66792   66783      68   66804   66795      68   66816   66807
      68   66828   66819      68   66840   66831      68   66852   66843      68
   66864   66855      68   66876   66867      68   66888   66879      68   66900
   66891      68   66912   66903      68   66924   66915      68   66936   66927
      68   66948   66939      68   66960   66951      68   66972   66963      68
   66984   66975      68   66996   66987      68   67008   66999      68   67020
   67011      68   67032   67023      68   67044   67035      68   67056   67047
      68   67068   67059      68   67080   67071      68   67092   67083      68
   67104   67095      68   67116   67107      68   67128   67119      68   67140
   67131      68   67152   67143      68   67164   67155      68   67176   67167
      68   67188   67179      68   67200   67191      68   67212   67203      68
   67224   67215      68   67236   67227      68   67248   67239      68   67260
   67251      68   67272   67263      68   67284   67275      68   67296   67287
      68   67308   67299      68   67320   67311      68   67332   67323      68
   67344   67335      68   67356   67347      68   67368   67359      68   67380
   67371      68   67392   67383      68   67404   67395      68   67416   67407
      68   67428   67419      68   67440   67431      68   67452   67443      68
   67464   67455      68   67476   67467      68   67488   67479      68   67500
   67491      68   67512   67503      68   67524   67515      68   67536   67527
      68   67548   67539      68   67560   67551      68   67572   67563      68
   67584   67575      68   67596   67587      68   67608   67599      68   67620
   67611      68   67632   67623      68   67644   67635      68   67656   67647
      68   67668   67659      68   67680   67671      68   67692   67683      68
   67704   67695      68   67716   67707      68   67728   67719      68   67740
   67731      68   67752   67743      68   67764   67755      68   67776   67767
      68   67788   67779      68   67800   67791      68   67812   67803      68
   67824   67815      68   67836   67827      68   67848   67839      68   67860
   67851      68   67872   67863      68   67884   67875      68   67896   67887
      68   67908   67899      68   67920   67911      68   67932   67923      68
   67944   67935      68   67956   67947      68   67968   67959      68   67980
   67971      68   67992   67983      68   68004   67995      68   68016   68007
      68   68028   68019      68   68040   68031      68   68052   68043      68
   68064   68055      68   68076   68067      68   68088   68079      68   68100
   68091      68   68112   68103      68   68124   68115      68   68136   68127
      68   68148   68139      68   68160   68151      68   68172   68163      68
   68184   68175      68   68196   68187      68   68208   68199      68   68220
   68211      68   68232   68223      68   68244   68235      68   68256   68247
      68   68268   68259      68   68280   68271      68   68292   68283      68
   68304   68295      68   68316   68307      68   68328   68319      68   68340
   68331      68   68352   68343      68   68364   68355      68   68376   68367
      68   68388   68379      68   68400   68391      68   68412   68403      68
   68424   68415      68   68436   68427      68   68448   68439      68   68460
   68451      68   68472   68463      68   68484   68475      68   68496   68487
      68   68508   68499      68   68520   68511      68   68532   68523      68
   68544   68535      68   68556   68547      68   68568   68559      68   68580
   68571      68   68592   68583      68   68604   68595      68   68616   68607
      68   68628   68619      68   68640   68631      68   68652   68643      68
   68664   68655      68   68676   68667      68   68688   68679      68   68700
   68691      68   68712   68703      68   68724   68715      68   68736   68727
      68   68748   68739      68   68760   68751      68   68772   68763      68
   68784   68775      68   68796   68787      68   68808   68799      68   68820
   68811      68   68832   68823      68   68844   68835      68   68856   68847
      68   68868   68859      68   68880   68871      68   68892   68883      68
   68904   68895      68   68916   68907      68   68928   68919      68   68940
   68931      68   68952   68943      68   68964   68955      68   68976   68967
      68   68988   68979      68   69000   68991      68   69012   69003      68
   69024   69015      68   69036   69027      68   69048   69039      68   69060
   69051      68   69072   69063      68   69084   69075      68   69096   69087
      68   69108   69099      68   69120   69111      68   69132   69123      68
   69144   69135      68   69156   69147      68   69168   69159      68   69180
   69171      68   69192   69183      68   69204   69195      68   69216   69207
      68   69228   69219      68   69240   69231      68   69252   69243      68
   69264   69255      68   69276   69267      68   69288   69279      68   69300
   69291      68   69312   69303      68   69324   69315      68   69336   69327
      68   69348   69339      68   69360   69351      68   69372   69363      68
   69384   69375      68   69396   69387      68   69408   69399      68   69420
   69411      68   69432   69423      68   69444   69435      68   69456   69447
      68   69468   69459      68   69480   69471      68   69492   69483      68
   69504   69495      68   69516   69507      68   69528   69519      68   69540
   69531      68   69552   69543      68   69564   69555      68   69576   69567
      68   69588   69579      68   69600   69591      68   69612   69603      68
   69624   69615      68   69636   69627      68   69648   69639      68   69660
   69651      68   69672   69663      68   69684   69675      68   69696   69687
      68   69708   69699      68   69720   69711      68   69732   69723      68
   69744   69735      68   69756   69747      68   69768   69759      68   69780
   69771      68   69792   69783      68   69804   69795      68   69816   69807
      68   69828   69819      68   69840   69831      68   69852   69843      68
   69864   69855      68   69876   69867      68   69888   69879      68   69900
   69891      68   69912   69903      68   69924   69915      68   69936   69927
      68   69948   69939      68   69960   69951      68   69972   69963      68
   69984   69975      68   69996   69987      68   70008   69999      68   70020
   70011      68   70032   70023      68   70044   70035      68   70056   70047
      68   70068   70059      68   70080   70071      68   70092   70083      68
   70104   70095      68   70116   70107      68   70128   70119      68   70140
   70131      68   70152   70143      68   70164   70155      68   70176   70167
      68   70188   70179      68   70200   70191      68   70212   70203      68
   70224   70215      68   70236   70227      68   70248   70239      68   70260
   70251      68   70272   70263      68   70284   70275      68   70296   70287
      68   70308   70299      68   70320   70311      68   70332   70323      68
   70344   70335      68   70356   70347      68   70368   70359      68   70380
   70371      68   70392   70383      68   70404   70395      68   70416   70407
      68   70428   70419      68   70440   70431      68   70452   70443      68
   70464   70455      68   70476   70467      68   70488   70479      68   70500
   70491      68   70512   70503      68   70524   70515      68   70536   70527
      68   70548   70539      68   70560   70551      68   70572   70563      68
   70584   70575      68   70596   70587      68   70608   70599      68   70620
   70611      68   70632   70623      68   70644   70635      68   70656   70647
      68   70668   70659      68   70680   70671      68   70692   70683      68
   70704   70695      68   70716   70707      68   70728   70719      68   70740
   70731      68   70752   70743      68   70764   70755      68   70776   70767
      68   70788   70779      68   70800   70791      68   70812   70803      68
   70824   70815      68   70836   70827      68   70848   70839      68   70860
   70851      68   70872   70863      68   70884   70875      68   70896   70887
      68   70908   70899      68   70920   70911      68   70932   70923      68
   70944   70935      68   70956   70947      68   70968   70959      68   70980
   70971      68   70992   70983      68   71004   70995      68   71016   71007
      68   71028   71019      68   71040   71031      68   71052   71043      68
   71064   71055      68   71076   71067      68   71088   71079      68   71100
   71091      68   71112   71103      68   71124   71115      68   71136   71127
      68   71148   71139      68   71160   71151      68   71172   71163      68
   71184   71175      68   71196   71187      68   71208   71199      68   71220
   71211      68   71232   71223      68   71244   71235      68   71256   71247
      68   71268   71259      68   71280   71271      68   71292   71283      68
   71304   71295      68   71316   71307      68   71328   71319      68   71340
   71331      68   71352   71343      68   71364   71355      68   71376   71367
      68   71388   71379      68   71400   71391      68   71412   71403      68
   71424   71415      68   71436   71427      68   71448   71439      68   71460
   71451      68   71472   71463      68   71484   71475      68   71496   71487
      68   71508   71499      68   71520   71511      68   71532   71523      68
   71544   71535      68   71556   71547      68   71568   71559      68   71580
   71571      68   71592   71583      68   71604   71595      68   71616   71607
      68   71628   71619      68   71640   71631      68   71652   71643      68
   71664   71655      68   71676   71667      68   71688   71679      68   71700
   71691      68   71712   71703      68   71724   71715      68   71736   71727
      68   71748   71739      68   71760   71751      68   71772   71763      68
   71784   71775      68   71796   71787      68   71808   71799      68   71820
   71811      68   71832   71823      68   71844   71835      68   71856   71847
      68   71868   71859      68   71880   71871      68   71892   71883      68
   71904   71895      68   71916   71907      68   71928   71919      68   71940
   71931      68   71952   71943      68   71964   71955      68   71976   71967
      68   71988   71979      68   72000   71991      68   72012   72003      68
   72024   72015      68   72036   72027      68   72048   72039      68   72060
   72051      68   72072   72063      68   72084   72075      68   72096   72087
      68   72108   72099      68   72120   72111      68   72132   72123      68
   72144   72135      68   72156   72147      68   72168   72159      68   72180
   72171      68   72192   72183      68   72204   72195      68   72216   72207
      68   72228   72219      68   72240   72231      68   72252   72243      68
   72264   72255      68   72276   72267      68   72288   72279      68   72300
   72291      68   72312   72303      68   72324   72315      68   72336   72327
      68   72348   72339      68   72360   72351      68   72372   72363      68
   72384   72375      68   72396   72387      68   72408   72399      68   72420
   72411      68   72432   72423      68   72444   72435      68   72456   72447
      68   72468   72459      68   72480   72471      68   72492   72483      68
   72504   72495      68   72516   72507      68   72528   72519      68   72540
   72531      68   72552   72543      68   72564   72555      68   72576   72567
      68   72588   72579      68   72600   72591      68   72612   72603      68
   72624   72615      68   72636   72627      68   72648   72639      68   72660
   72651      68   72672   72663      68   72684   72675      68   72696   72687
      68   72708   72699      68   72720   72711      68   72732   72723      68
   72744   72735      68   72756   72747      68   72768   72759      68   72780
   72771      68   72792   72783      68   72804   72795      68   72816   72807
      68   72828   72819      68   72840   72831      68   72852   72843      68
   72864   72855      68   72876   72867      68   72888   72879      68   72900
   72891      68   72912   72903      68   72924   72915      68   72936   72927
      68   72948   72939      68   72960   72951      68   72972   72963      68
   72984   72975      68   72996   72987      68   73008   72999      68   73020
   73011      68   73032   73023      68   73044   73035      68   73056   73047
      68   73068   73059      68   73080   73071      68   73092   73083      68
   73104   73095      68   73116   73107      68   73128   73119      68   73140
   73131      68   73152   73143      68   73164   73155      68   73176   73167
      68   73188   73179      68   73200   73191      68   73212   73203      68
   73224   73215      68   73236   73227      68   73248   73239      68   73260
   73251      68   73272   73263      68   73284   73275      68   73296   73287
      68   73308   73299      68   73320   73311      68   73332   73323      68
   73344   73335      68   73356   73347      68   73368   73359      68   73380
   73371      68   73392   73383      68   73404   73395      68   73416   73407
      68   73428   73419      68   73440   73431      68   73452   73443      68
   73464   73455      68   73476   73467      68   73488   73479      68   73500
   73491      68   73512   73503      68   73524   73515      68   73536   73527
      68   73548   73539      68   73560   73551      68   73572   73563      68
   73584   73575      68   73596   73587      68   73608   73599      68   73620
   73611      68   73632   73623      68   73644   73635      68   73656   73647
      68   73668   73659      68   73680   73671      68   73692   73683      68
   73704   73695      68   73716   73707      68   73728   73719      68   73740
   73731      68   73752   73743      68   73764   73755      68   73776   73767
      68   73788   73779      68   73800   73791      68   73812   73803      68
   73824   73815      68   73836   73827      68   73848   73839      68   73860
   73851      68   73872   73863      68   73884   73875      68   73896   73887
      68   73908   73899      68   73920   73911      68   73932   73923      68
   73944   73935      68   73956   73947      68   73968   73959      68   73980
   73971      68   73992   73983      68   74004   73995      68   74016   74007
      68   74028   74019      68   74040   74031      68   74052   74043      68
   74064   74055      68   74076   74067      68   74088   74079      68   74100
   74091      68   74112   74103      68   74124   74115      68   74136   74127
      68   74148   74139      68   74160   74151      68   74172   74163      68
   74184   74175      68   74196   74187      68   74208   74199      68   74220
   74211      68   74232   74223      68   74244   74235      68   74256   74247
      68   74268   74259      68   74280   74271      68   74292   74283      68
   74304   74295      68   74316   74307      68   74328   74319      68   74340
   74331      68   74352   74343      68   74364   74355      68   74376   74367
      68   74388   74379      68   74400   74391      68   74412   74403      68
   74424   74415      68   74436   74427      68   74448   74439      68   74460
   74451      68   74472   74463      68   74484   74475      68   74496   74487
      68   74508   74499      68   74520   74511      68   74532   74523      68
   74544   74535      68   74556   74547      68   74568   74559      68   74580
   74571      68   74592   74583      68   74604   74595      68   74616   74607
      68   74628   74619      68   74640   74631      68   74652   74643      68
   74664   74655      68   74676   74667      68   74688   74679      68   74700
   74691      68   74712   74703      68   74724   74715      68   74736   74727
      68   74748   74739      68   74760   74751      68   74772   74763      68
   74784   74775      68   74796   74787      68   74808   74799      68   74820
   74811      68   74832   74823      68   74844   74835      68   74856   74847
      68   74868   74859      68   74880   74871      68   74892   74883      68
   74904   74895      68   74916   74907      68   74928   74919      68   74940
   74931      68   74952   74943      68   74964   74955      68   74976   74967
      68   74988   74979      68   75000   74991      68   75012   75003      68
   75024   75015      68   75036   75027      68   75048   75039      68   75060
   75051      68   75072   75063      68   75084   75075      68   75096   75087
      68   75108   75099      68   75120   75111      68   75132   75123      68
   75144   75135      68   75156   75147      68   75168   75159      68   75180
   75171      68   75192   75183      68   75204   75195      68   75216   75207
      68   75228   75219      68   75240   75231      68   75252   75243      68
   75264   75255      68   75276   75267      68   75288   75279      68   75300
   75291      68   75312   75303      68   75324   75315      68   75336   75327
      68   75348   75339      68   75360   75351      68   75372   75363      68
   75384   75375      68   75396   75387      68   75408   75399      68   75420
   75411      68   75432   75423      68   75444   75435      68   75456   75447
      68   75468   75459      68   75480   75471      68   75492   75483      68
   75504   75495      68   75516   75507      68   75528   75519      68   75540
   75531      68   75552   75543      68   75564   75555      68   75576   75567
      68   75588   75579      68   75600   75591      68   75612   75603      68
   75624   75615      68   75636   75627      68   75648   75639      68   75660
   75651      68   75672   75663      68   75684   75675      68   75696   75687
      68   75708   75699      68   75720   75711      68   75732   75723      68
   75744   75735      68   75756   75747      68   75768   75759      68   75780
   75771      68   75792   75783      68   75804   75795      68   75816   75807
      68   75828   75819      68   75840   75831      68   75852   75843      68
   75864   75855      68   75876   75867      68   75888   75879      68   75900
   75891      68   75912   75903      68   75924   75915      68   75936   75927
      68   75948   75939      68   75960   75951      68   75972   75963      68
   75984   75975      68   75996   75987      68   76008   75999      68   76020
   76011      68   76032   76023      68   76044   76035      68   76056   76047
      68   76068   76059      68   76080   76071      68   76092   76083      68
   76104   76095      68   76116   76107      68   76128   76119      68   76140
   76131      68   76152   76143      68   76164   76155      68   76176   76167
      68   76188   76179      68   76200   76191      68   76212   76203      68
   76224   76215      68   76236   76227      68   76248   76239      68   76260
   76251      68   76272   76263      68   76284   76275      68   76296   76287
      68   76308   76299      68   76320   76311      68   76332   76323      68
   76344   76335      68   76356   76347      68   76368   76359      68   76380
   76371      68   76392   76383      68   76404   76395      68   76416   76407
      68   76428   76419      68   76440   76431      68   76452   76443      68
   76464   76455      68   76476   76467      68   76488   76479      68   76500
   76491      68   76512   76503      68   76524   76515      68   76536   76527
      68   76548   76539      68   76560   76551      68   76572   76563      68
   76584   76575      68   76596   76587      68   76608   76599      68   76620
   76611      68   76632   76623      68   76644   76635      68   76656   76647
      68   76668   76659      68   76680   76671      68   76692   76683      68
   76704   76695      68   76716   76707      68   76728   76719      68   76740
   76731      68   76752   76743      68   76764   76755      68   76776   76767
      68   76788   76779      68   76800   76791      68   76812   76803      68
   76824   76815      68   76836   76827      68   76848   76839      68   76860
   76851      68   76872   76863      68   76884   76875      68   76896   76887
      68   76908   76899      68   76920   76911      68   76932   76923      68
   76944   76935      68   76956   76947      68   76968   76959      68   76980
   76971      68   76992   76983      68   77004   76995      68   77016   77007
      68   77028   77019      68   77040   77031      68   77052   77043      68
   77064   77055      68   77076   77067      68   77088   77079      68   77100
   77091      68   77112   77103      68   77124   77115      68   77136   77127
      68   77148   77139      68   77160   77151      68   77172   77163      68
   77184   77175      68   77196   77187      68   77208   77199      68   77220
   77211      68   77232   77223      68   77244   77235      68   77256   77247
      68   77268   77259      68   77280   77271      68   77292   77283      68
   77304   77295      68   77316   77307      68   77328   77319      68   77340
   77331      68   77352   77343      68   77364   77355      68   77376   77367
      68   77388   77379      68   77400   77391      68   77412   77403      68
   77424   77415      68   77436   77427      68   77448   77439      68   77460
   77451      68   77472   77463      68   77484   77475      68   77496   77487
      68   77508   77499      68   77520   77511      68   77532   77523      68
   77544   77535      68   77556   77547      68   77568   77559      68   77580
   77571      68   77592   77583      68   77604   77595      68   77616   77607
      68   77628   77619      68   77640   77631      68   77652   77643      68
   77664   77655      68   77676   77667      68   77688   77679      68   77700
   77691      68   77712   77703      68   77724   77715      68   77736   77727
      68   77748   77739      68   77760   77751      68   77772   77763      68
   77784   77775      68   77796   77787      68   77808   77799      68   77820
   77811      68   77832   77823      68   77844   77835      68   77856   77847
      68   77868   77859      68   77880   77871      68   77892   77883      68
   77904   77895      68   77916   77907      68   77928   77919      68   77940
   77931      68   77952   77943      68   77964   77955      68   77976   77967
      68   77988   77979      68   78000   77991      68   78012   78003      68
   78024   78015      68   78036   78027      68   78048   78039      68   78060
   78051      68   78072   78063      68   78084   78075      68   78096   78087
      68   78108   78099      68   78120   78111      68   78132   78123      68
   78144   78135      68   78156   78147      68   78168   78159      68   78180
   78171      68   78192   78183      68   78204   78195      68   78216   78207
      68   78228   78219      68   78240   78231      68   78252   78243      68
   78264   78255      68   78276   78267      68   78288   78279      68   78300
   78291      68   78312   78303      68   78324   78315      68   78336   78327
      68   78348   78339      68   78360   78351      68   78372   78363      68
   78384   78375      68   78396   78387      68   78408   78399      68   78420
   78411      68   78432   78423      68   78444   78435      68   78456   78447
      68   78468   78459      68   78480   78471      68   78492   78483      68
   78504   78495      68   78516   78507      68   78528   78519      68   78540
   78531      68   78552   78543      68   78564   78555      68   78576   78567
      68   78588   78579      68   78600   78591      68   78612   78603      68
   78624   78615      68   78636   78627      68   78648   78639      68   78660
   78651      68   78672   78663      68   78684   78675      68   78696   78687
      68   78708   78699      68   78720   78711      68   78732   78723      68
   78744   78735      68   78756   78747      68   78768   78759      68   78780
   78771      68   78792   78783      68   78804   78795      68   78816   78807
      68   78828   78819      68   78840   78831      68   78852   78843      68
   78864   78855      68   78876   78867      68   78888   78879      68   78900
   78891      68   78912   78903      68   78924   78915      68   78936   78927
      68   78948   78939      68   78960   78951      68   78972   78963      68
   78984   78975      68   78996   78987      68   79008   78999      68   79020
   79011      68   79032   79023      68   79044   79035      68   79056   79047
      68   79068   79059      68   79080   79071      68   79092   79083      68
   79104   79095      68   79116   79107      68   79128   79119      68   79140
   79131      68   79152   79143      68   79164   79155      68   79176   79167
      68   79188   79179      68   79200   79191      68   79212   79203      68
   79224   79215      68   79236   79227      68   79248   79239      68   79260
   79251      68   79272   79263      68   79284   79275      68   79296   79287
      68   79308   79299      68   79320   79311      68   79332   79323      68
   79344   79335      68   79356   79347      68   79368   79359      68   79380
   79371      68   79392   79383      68   79404   79395      68   79416   79407
      68   79428   79419      68   79440   79431      68   79452   79443      68
   79464   79455      68   79476   79467      68   79488   79479      68   79500
   79491      68   79512   79503      68   79524   79515      68   79536   79527
      68   79548   79539      68   79560   79551      68   79572   79563      68
   79584   79575      68   79596   79587      68   79608   79599      68   79620
   79611      68   79632   79623      68   79644   79635      68   79656   79647
      68   79668   79659      68   79680   79671      68   79692   79683      68
   79704   79695      68   79716   79707      68   79728   79719      68   79740
   79731      68   79752   79743      68   79764   79755      68   79776   79767
      68   79788   79779      68   79800   79791      68   79812   79803      68
   79824   79815      68   79836   79827      68   79848   79839      68   79860
   79851      68   79872   79863      68   79884   79875      68   79896   79887
      68   79908   79899      68   79920   79911      68   79932   79923      68
   79944   79935      68   79956   79947      68   79968   79959      68   79980
   79971      68   79992   79983      68   80004   79995      68   80016   80007
      68   80028   80019      68   80040   80031      68   80052   80043      68
   80064   80055      68   80076   80067      68   80088   80079      68   80100
   80091      68   80112   80103      68   80124   80115      68   80136   80127
      68   80148   80139      68   80160   80151      68   80172   80163      68
   80184   80175      68   80196   80187      68   80208   80199      68   80220
   80211      68   80232   80223      68   80244   80235      68   80256   80247
      68   80268   80259      68   80280   80271      68   80292   80283      68
   80304   80295      68   80316   80307      68   80328   80319      68   80340
   80331      68   80352   80343      68   80364   80355      68   80376   80367
      68   80388   80379      68   80400   80391      68   80412   80403      68
   80424   80415      68   80436   80427      68   80448   80439      68   80460
   80451      68   80472   80463      68   80484   80475      68   80496   80487
      68   80508   80499      68   80520   80511      68   80532   80523      68
   80544   80535      68   80556   80547      68   80568   80559      68   80580
   80571      68   80592   80583      68   80604   80595      68   80616   80607
      68   80628   80619      68   80640   80631      68   80652   80643      68
   80664   80655      68   80676   80667      68   80688   80679      68   80700
   80691      68   80712   80703      68   80724   80715      68   80736   80727
      68   80748   80739      68   80760   80751      68   80772   80763      68
   80784   80775      68   80796   80787      68   80808   80799      68   80820
   80811      68   80832   80823      68   80844   80835      68   80856   80847
      68   80868   80859      68   80880   80871      68   80892   80883      68
   80904   80895      68   80916   80907      68   80928   80919      68   80940
   80931      68   80952   80943      68   80964   80955      68   80976   80967
      68   80988   80979      68   81000   80991      68   81012   81003      68
   81024   81015      68   81036   81027      68   81048   81039      68   81060
   81051      68   81072   81063      68   81084   81075      68   81096   81087
      68   81108   81099      68   81120   81111      68   81132   81123      68
   81144   81135      68   81156   81147      68   81168   81159      68   81180
   81171      68   81192   81183      68   81204   81195      68   81216   81207
      68   81228   81219      68   81240   81231      68   81252   81243      68
   81264   81255      68   81276   81267      68   81288   81279      68   81300
   81291      68   81312   81303      68   81324   81315      68   81336   81327
      68   81348   81339      68   81360   81351      68   81372   81363      68
   81384   81375      68   81396   81387      68   81408   81399      68   81420
   81411      68   81432   81423      68   81444   81435      68   81456   81447
      68   81468   81459      68   81480   81471      68   81492   81483      68
   81504   81495      68   81516   81507      68   81528   81519      68   81540
   81531      68   81552   81543      68   81564   81555      68   81576   81567
      68   81588   81579      68   81600   81591      68   81612   81603      68
   81624   81615      68   81636   81627      68   81648   81639      68   81660
   81651      68   81672   81663      68   81684   81675      68   81696   81687
      68   81708   81699      68   81720   81711      68   81732   81723      68
   81744   81735      68   81756   81747      68   81768   81759      68   81780
   81771      68   81792   81783      68   81804   81795      68   81816   81807
      68   81828   81819      68   81840   81831      68   81852   81843      68
   81864   81855      68   81876   81867      68   81888   81879      68   81900
   81891      68   81912   81903      68   81924   81915      68   81936   81927
      68   81948   81939      68   81960   81951      68   81972   81963      68
   81984   81975      68   81996   81987      68   82008   81999      68   82020
   82011      68   82032   82023      68   82044   82035      68   82056   82047
      68   82068   82059      68   82080   82071      68   82092   82083      68
   82104   82095      68   82116   82107      68   82128   82119      68   82140
   82131      68   82152   82143      68   82164   82155      68   82176   82167
      68   82188   82179      68   82200   82191      68   82212   82203      68
   82224   82215      68   82236   82227      68   82248   82239      68   82260
   82251      68   82272   82263      68   82284   82275      68   82296   82287
      68   82308   82299      68   82320   82311      68   82332   82323      68
   82344   82335      68   82356   82347      68   82368   82359      68   82380
   82371      68   82392   82383      68   82404   82395      68   82416   82407
      68   82428   82419      68   82440   82431      68   82452   82443      68
   82464   82455      68   82476   82467      68   82488   82479      68   82500
   82491      68   82512   82503      68   82524   82515      68   82536   82527
      68   82548   82539      68   82560   82551      68   82572   82563      68
   82584   82575      68   82596   82587      68   82608   82599      68   82620
   82611      68   82632   82623      68   82644   82635      68   82656   82647
      68   82668   82659      68   82680   82671      68   82692   82683      68
   82704   82695      68   82716   82707      68   82728   82719      68   82740
   82731      68   82752   82743      68   82764   82755      68   82776   82767
      68   82788   82779      68   82800   82791      68   82812   82803      68
   82824   82815      68   82836   82827      68   82848   82839      68   82860
   82851      68   82872   82863      68   82884   82875      68   82896   82887
      68   82908   82899      68   82920   82911      68   82932   82923      68
   82944   82935      68   82956   82947      68   82968   82959      68   82980
   82971      68   82992   82983      68   83004   82995      68   83016   83007
      68   83028   83019      68   83040   83031      68   83052   83043      68
   83064   83055      68   83076   83067      68   83088   83079      68   83100
   83091      68   83112   83103      68   83124   83115      68   83136   83127
      68   83148   83139      68   83160   83151      68   83172   83163      68
   83184   83175      68   83196   83187      68   83208   83199      68   83220
   83211      68   83232   83223      68   83244   83235      68   83256   83247
      68   83268   83259      68   83280   83271      68   83292   83283      68
   83304   83295      68   83316   83307      68   83328   83319      68   83340
   83331      68   83352   83343      68   83364   83355      68   83376   83367
      68   83388   83379      68   83400   83391      68   83412   83403      68
   83424   83415      68   83436   83427      68   83448   83439      68   83460
   83451      68   83472   83463      68   83484   83475      68   83496   83487
      68   83508   83499      68   83520   83511      68   83532   83523      68
   83544   83535      68   83556   83547      68   83568   83559      68   83580
   83571      68   83592   83583      68   83604   83595      68   83616   83607
      68   83628   83619      68   83640   83631      68   83652   83643      68
   83664   83655      68   83676   83667      68   83688   83679      68   83700
   83691      68   83712   83703      68   83724   83715      68   83736   83727
      68   83748   83739      68   83760   83751      68   83772   83763      68
   83784   83775      68   83796   83787      68   83808   83799      68   83820
   83811      68   83832   83823      68   83844   83835      68   83856   83847
      68   83868   83859      68   83880   83871      68   83892   83883      68
   83904   83895      68   83916   83907      68   83928   83919      68   83940
   83931      68   83952   83943      68   83964   83955      68   83976   83967
      68   83988   83979      68   84000   83991      68   84012   84003      68
   84024   84015      68   84036   84027      68   84048   84039      68   84060
   84051      68   84072   84063      68   84084   84075      68   84096   84087
      68   84108   84099      68   84120   84111      68   84132   84123      68
   84144   84135      68   84156   84147      68   84168   84159      68   84180
   84171      68   84192   84183      68   84204   84195      68   84216   84207
      68   84228   84219      68   84240   84231      68   84252   84243      68
   84264   84255      68   84276   84267      68   84288   84279      68   84300
   84291      68   84312   84303      68   84324   84315      68   84336   84327
      68   84348   84339      68   84360   84351      68   84372   84363      68
   84384   84375      68   84396   84387      68   84408   84399      68   84420
   84411      68   84432   84423      68   84444   84435      68   84456   84447
      68   84468   84459      68   84480   84471      68   84492   84483      68
   84504   84495      68   84516   84507      68   84528   84519      68   84540
   84531      68   84552   84543      68   84564   84555      68   84576   84567
      68   84588   84579      68   84600   84591      68   84612   84603      68
   84624   84615      68   84636   84627      68   84648   84639      68   84660
   84651      68   84672   84663      68   84684   84675      68   84696   84687
      68   84708   84699      68   84720   84711      68   84732   84723      68
   84744   84735      68   84756   84747      68   84768   84759      68   84780
   84771      68   84792   84783      68   84804   84795      68   84816   84807
      68   84828   84819      68   84840   84831      68   84852   84843      68
   84864   84855      68   84876   84867      68   84888   84879      68   84900
   84891      68   84912   84903      68   84924   84915      68   84936   84927
      68   84948   84939      68   84960   84951      68   84972   84963      68
   84984   84975      68   84996   84987      68   85008   84999      68   85020
   85011      68   85032   85023      68   85044   85035      68   85056   85047
      68   85068   85059      68   85080   85071      68   85092   85083      68
   85104   85095      68   85116   85107      68   85128   85119      68   85140
   85131      68   85152   85143      68   85164   85155      68   85176   85167
      68   85188   85179      68   85200   85191      68   85212   85203      68
   85224   85215      68   85236   85227      68   85248   85239      68   85260
   85251      68   85272   85263      68   85284   85275      68   85296   85287
      68   85308   85299      68   85320   85311      68   85332   85323      68
   85344   85335      68   85356   85347      68   85368   85359      68   85380
   85371      68   85392   85383      68   85404   85395      68   85416   85407
      68   85428   85419      68   85440   85431      68   85452   85443      68
   85464   85455      68   85476   85467      68   85488   85479      68   85500
   85491      68   85512   85503      68   85524   85515      68   85536   85527
      68   85548   85539      68   85560   85551      68   85572   85563      68
   85584   85575      68   85596   85587      68   85608   85599      68   85620
   85611      68   85632   85623      68   85644   85635      68   85656   85647
      68   85668   85659      68   85680   85671      68   85692   85683      68
   85704   85695      68   85716   85707      68   85728   85719      68   85740
   85731      68   85752   85743      68   85764   85755      68   85776   85767
      68   85788   85779      68   85800   85791      68   85812   85803      68
   85824   85815      68   85836   85827      68   85848   85839      68   85860
   85851      68   85872   85863      68   85884   85875      68   85896   85887
      68   85908   85899      68   85920   85911      68   85932   85923      68
   85944   85935      68   85956   85947      68   85968   85959      68   85980
   85971      68   85992   85983      68   86004   85995      68   86016   86007
      68   86028   86019      68   86040   86031      68   86052   86043      68
   86064   86055      68   86076   86067      68   86088   86079      68   86100
   86091      68   86112   86103      68   86124   86115      68   86136   86127
      68   86148   86139      68   86160   86151      68   86172   86163      68
   86184   86175      68   86196   86187      68   86208   86199      68   86220
   86211      68   86232   86223      68   86244   86235      68   86256   86247
      68   86268   86259      68   86280   86271      68   86292   86283      68
   86304   86295      68   86316   86307      68   86328   86319      68   86340
   86331      68   86352   86343      68   86364   86355      68   86376   86367
      68   86388   86379      68   86400   86391      68   86412   86403      68
   86424   86415      68   86436   86427      68   86448   86439      68   86460
   86451      68   86472   86463      68   86484   86475      68   86496   86487
      68   86508   86499      68   86520   86511      68   86532   86523      68
   86544   86535      68   86556   86547      68   86568   86559      68   86580
   86571      68   86592   86583      68   86604   86595      68   86616   86607
      68   86628   86619      68   86640   86631      68   86652   86643      68
   86664   86655      68   86676   86667      68   86688   86679      68   86700
   86691      68   86712   86703      68   86724   86715      68   86736   86727
      68   86748   86739      68   86760   86751      68   86772   86763      68
   86784   86775      68   86796   86787      68   86808   86799      68   86820
   86811      68   86832   86823      68   86844   86835      68   86856   86847
      68   86868   86859      68   86880   86871      68   86892   86883      68
   86904   86895      68   86916   86907      68   86928   86919      68   86940
   86931      68   86952   86943      68   86964   86955      68   86976   86967
      68   86988   86979      68   87000   86991      68   87012   87003      68
   87024   87015      68   87036   87027      68   87048   87039      68   87060
   87051      68   87072   87063      68   87084   87075      68   87096   87087
      68   87108   87099      68   87120   87111      68   87132   87123      68
   87144   87135      68   87156   87147      68   87168   87159      68   87180
   87171      68   87192   87183      68   87204   87195      68   87216   87207
      68   87228   87219      68   87240   87231      68   87252   87243      68
   87264   87255      68   87276   87267      68   87288   87279      68   87300
   87291      68   87312   87303      68   87324   87315      68   87336   87327
      68   87348   87339      68   87360   87351      68   87372   87363      68
   87384   87375      68   87396   87387      68   87408   87399      68   87420
   87411      68   87432   87423      68   87444   87435      68   87456   87447
      68   87468   87459      68   87480   87471      68   87492   87483      68
   87504   87495      68   87516   87507      68   87528   87519      68   87540
   87531      68   87552   87543      68   87564   87555      68   87576   87567
      68   87588   87579      68   87600   87591      68   87612   87603      68
   87624   87615      68   87636   87627      68   87648   87639      68   87660
   87651      68   87672   87663      68   87684   87675      68   87696   87687
      68   87708   87699      68   87720   87711      68   87732   87723      68
   87744   87735      68   87756   87747      68   87768   87759      68   87780
   87771      68   87792   87783      68   87804   87795      68   87816   87807
      68   87828   87819      68   87840   87831      68   87852   87843      68
   87864   87855      68   87876   87867      68   87888   87879      68   87900
   87891      68   87912   87903      68   87924   87915      68   87936   87927
      68   87948   87939      68   87960   87951      68   87972   87963      68
   87984   87975      68   87996   87987      68   88008   87999      68   88020
   88011      68   88032   88023      68   88044   88035      68   88056   88047
      68   88068   88059      68   88080   88071      68   88092   88083      68
   88104   88095      68   88116   88107      68   88128   88119      68   88140
   88131      68   88152   88143      68   88164   88155      68   88176   88167
      68   88188   88179      68   88200   88191      68   88212   88203      68
   88224   88215      68   88236   88227      68   88248   88239      68   88260
   88251      68   88272   88263      68   88284   88275      68   88296   88287
      68   88308   88299      68   88320   88311      68   88332   88323      68
   88344   88335      68   88356   88347      68   88368   88359      68   88380
   88371      68   88392   88383      68   88404   88395      68   88416   88407
      68   88428   88419      68   88440   88431      68   88452   88443      68
   88464   88455      68   88476   88467      68   88488   88479      68   88500
   88491      68   88512   88503      68   88524   88515      68   88536   88527
      68   88548   88539      68   88560   88551      68   88572   88563      68
   88584   88575      68   88596   88587      68   88608   88599      68   88620
   88611      68   88632   88623      68   88644   88635      68   88656   88647
      68   88668   88659      68   88680   88671      68   88692   88683      68
   88704   88695      68   88716   88707      68   88728   88719      68   88740
   88731      68   88752   88743      68   88764   88755      68   88776   88767
      68   88788   88779      68   88800   88791      68   88812   88803      68
   88824   88815      68   88836   88827      68   88848   88839      68   88860
   88851      68   88872   88863      68   88884   88875      68   88896   88887
      68   88908   88899      68   88920   88911      68   88932   88923      68
   88944   88935      68   88956   88947      68   88968   88959      68   88980
   88971      68   88992   88983      68   89004   88995      68   89016   89007
      68   89028   89019      68   89040   89031      68   89052   89043      68
   89064   89055      68   89076   89067      68   89088   89079      68   89100
   89091      68   89112   89103      68   89124   89115      68   89136   89127
      68   89148   89139      68   89160   89151      68   89172   89163      68
   89184   89175      68   89196   89187      68   89208   89199      68   89220
   89211      68   89232   89223      68   89244   89235      68   89256   89247
      68   89268   89259      68   89280   89271      68   89292   89283      68
   89304   89295      68   89316   89307      68   89328   89319      68   89340
   89331      68   89352   89343      68   89364   89355      68   89376   89367
      68   89388   89379      68   89400   89391      68   89412   89403      68
   89424   89415      68   89436   89427      68   89448   89439      68   89460
   89451      68   89472   89463      68   89484   89475      68   89496   89487
      68   89508   89499      68   89520   89511      68   89532   89523      68
   89544   89535      68   89556   89547      68   89568   89559      68   89580
   89571      68   89592   89583      68   89604   89595      68   89616   89607
      68   89628   89619      68   89640   89631      68   89652   89643      68
   89664   89655      68   89676   89667      68   89688   89679      68   89700
   89691      68   89712   89703      68   89724   89715      68   89736   89727
      68   89748   89739      68   89760   89751      68   89772   89763      68
   89784   89775      68   89796   89787      68   89808   89799      68   89820
   89811      68   89832   89823      68   89844   89835      68   89856   89847
      68   89868   89859      68   89880   89871      68   89892   89883      68
   89904   89895      68   89916   89907      68   89928   89919      68   89940
   89931      68   89952   89943      68   89964   89955      68   89976   89967
      68   89988   89979      68   90000   89991      68   90012   90003      68
   90024   90015      68   90036   90027      68   90048   90039      68   90060
   90051      68   90072   90063      68   90084   90075      68   90096   90087
      68   90108   90099      68   90120   90111      68   90132   90123      68
   90144   90135      68   90156   90147      68   90168   90159      68   90180
   90171      68   90192   90183      68   90204   90195      68   90216   90207
      68   90228   90219      68   90240   90231      68   90252   90243      68
   90264   90255      68   90276   90267      68   90288   90279      68   90300
   90291      68   90312   90303      68   90324   90315      68   90336   90327
      68   90348   90339      68   90360   90351      68   90372   90363      68
   90384   90375      68   90396   90387      68   90408   90399      68   90420
   90411      68   90432   90423      68   90444   90435      68   90456   90447
      68   90468   90459      68   90480   90471      68   90492   90483      68
   90504   90495      68   90516   90507      68   90528   90519      68   90540
   90531      68   90552   90543      68   90564   90555      68   90576   90567
      68   90588   90579      68   90600   90591      68   90612   90603      68
   90624   90615      68   90636   90627      68   90648   90639      68   90660
   90651      68   90672   90663      68   90684   90675      68   90696   90687
      68   90708   90699      68   90720   90711      68   90732   90723      68
   90744   90735      68   90756   90747      68   90768   90759      68   90780
   90771      68   90792   90783      68   90804   90795      68   90816   90807
      68   90828   90819      68   90840   90831      68   90852   90843      68
   90864   90855      68   90876   90867      68   90888   90879      68   90900
   90891      68   90912   90903      68   90924   90915      68   90936   90927
      68   90948   90939      68   90960   90951      68   90972   90963      68
   90984   90975      68   90996   90987      68   91008   90999      68   91020
   91011      68   91032   91023      68   91044   91035      68   91056   91047
      68   91068   91059      68   91080   91071      68   91092   91083      68
   91104   91095      68   91116   91107      68   91128   91119      68   91140
   91131      68   91152   91143      68   91164   91155      68   91176   91167
      68   91188   91179      68   91200   91191      68   91212   91203      68
   91224   91215      68   91236   91227      68   91248   91239      68   91260
   91251      68   91272   91263      68   91284   91275      68   91296   91287
      68   91308   91299      68   91320   91311      68   91332   91323      68
   91344   91335      68   91356   91347      68   91368   91359      68   91380
   91371      68   91392   91383      68   91404   91395      68   91416   91407
      68   91428   91419      68   91440   91431      68   91452   91443      68
   91464   91455      68   91476   91467      68   91488   91479      68   91500
   91491      68   91512   91503      68   91524   91515      68   91536   91527
      68   91548   91539      68   91560   91551      68   91572   91563      68
   91584   91575      68   91596   91587      68   91608   91599      68   91620
   91611      68   91632   91623      68   91644   91635      68   91656   91647
      68   91668   91659      68   91680   91671      68   91692   91683      68
   91704   91695      68   91716   91707      68   91728   91719      68   91740
   91731      68   91752   91743      68   91764   91755      68   91776   91767
      68   91788   91779      68   91800   91791      68   91812   91803      68
   91824   91815      68   91836   91827      68   91848   91839      68   91860
   91851      68   91872   91863      68   91884   91875      68   91896   91887
      68   91908   91899      68   91920   91911      68   91932   91923      68
   91944   91935      68   91956   91947      68   91968   91959      68   91980
   91971      68   91992   91983      68   92004   91995      68   92016   92007
      68   92028   92019      68   92040   92031      68   92052   92043      68
   92064   92055      68   92076   92067      68   92088   92079      68   92100
   92091      68   92112   92103      68   92124   92115      68   92136   92127
      68   92148   92139      68   92160   92151      68   92172   92163      68
   92184   92175      68   92196   92187      68   92208   92199      68   92220
   92211      68   92232   92223      68   92244   92235      68   92256   92247
      68   92268   92259      68   92280   92271      68   92292   92283      68
   92304   92295      68   92316   92307      68   92328   92319      68   92340
   92331      68   92352   92343      68   92364   92355      68   92376   92367
      68   92388   92379      68   92400   92391      68   92412   92403      68
   92424   92415      68   92436   92427      68   92448   92439      68   92460
   92451      68   92472   92463      68   92484   92475      68   92496   92487
      68   92508   92499      68   92520   92511      68   92532   92523      68
   92544   92535      68   92556   92547      68   92568   92559      68   92580
   92571      68   92592   92583      68   92604   92595      68   92616   92607
      68   92628   92619      68   92640   92631      68   92652   92643      68
   92664   92655      68   92676   92667      68   92688   92679      68   92700
   92691      68   92712   92703      68   92724   92715      68   92736   92727
      68   92748   92739      68   92760   92751      68   92772   92763      68
   92784   92775      68   92796   92787      68   92808   92799      68   92820
   92811      68   92832   92823      68   92844   92835      68   92856   92847
      68   92868   92859      68   92880   92871      68   92892   92883      68
   92904   92895      68   92916   92907      68   92928   92919      68   92940
   92931      68   92952   92943      68   92964   92955      68   92976   92967
      68   92988   92979      68   93000   92991      68   93012   93003      68
   93024   93015      68   93036   93027      68   93048   93039      68   93060
   93051      68   93072   93063      68   93084   93075      68   93096   93087
      68   93108   93099      68   93120   93111      68   93132   93123      68
   93144   93135      68   93156   93147      68   93168   93159      68   93180
   93171      68   93192   93183      68   93204   93195      68   93216   93207
      68   93228   93219      68   93240   93231      68   93252   93243      68
   93264   93255      68   93276   93267      68   93288   93279      68   93300
   93291      68   93312   93303      68   93324   93315      68   93336   93327
      68   93348   93339      68   93360   93351      68   93372   93363      68
   93384   93375      68   93396   93387      68   93408   93399      68   93420
   93411      68   93432   93423      68   93444   93435      68   93456   93447
      68   93468   93459      68   93480   93471      68   93492   93483      68
   93504   93495      68   93516   93507      68   93528   93519      68   93540
   93531      68   93552   93543      68   93564   93555      68   93576   93567
      68   93588   93579      68   93600   93591      68   93612   93603      68
   93624   93615      68   93636   93627      68   93648   93639      68   93660
   93651      68   93672   93663      68   93684   93675      68   93696   93687
      68   93708   93699      68   93720   93711      68   93732   93723      68
   93744   93735      68   93756   93747      68   93768   93759      68   93780
   93771      68   93792   93783      68   93804   93795      68   93816   93807
      68   93828   93819      68   93840   93831      68   93852   93843      68
   93864   93855      68   93876   93867      68   93888   93879      68   93900
   93891      68   93912   93903      68   93924   93915      68   93936   93927
      68   93948   93939      68   93960   93951      68   93972   93963      68
   93984   93975      68   93996   93987      68   94008   93999      68   94020
   94011      68   94032   94023      68   94044   94035      68   94056   94047
      68   94068   94059      68   94080   94071      68   94092   94083      68
   94104   94095      68   94116   94107      68   94128   94119      68   94140
   94131      68   94152   94143      68   94164   94155      68   94176   94167
      68   94188   94179      68   94200   94191      68   94212   94203      68
   94224   94215      68   94236   94227      68   94248   94239      68   94260
   94251      68   94272   94263      68   94284   94275      68   94296   94287
      68   94308   94299      68   94320   94311      68   94332   94323      68
   94344   94335      68   94356   94347      68   94368   94359      68   94380
   94371      68   94392   94383      68   94404   94395      68   94416   94407
      68   94428   94419      68   94440   94431      68   94452   94443      68
   94464   94455      68   94476   94467      68   94488   94479      68   94500
   94491      68   94512   94503      68   94524   94515      68   94536   94527
      68   94548   94539      68   94560   94551      68   94572   94563      68
   94584   94575      68   94596   94587      68   94608   94599      68   94620
   94611      68   94632   94623      68   94644   94635      68   94656   94647
      68   94668   94659      68   94680   94671      68   94692   94683      68
   94704   94695      68   94716   94707      68   94728   94719      68   94740
   94731      68   94752   94743      68   94764   94755      68   94776   94767
      68   94788   94779      68   94800   94791      68   94812   94803      68
   94824   94815      68   94836   94827      68   94848   94839      68   94860
   94851      68   94872   94863      68   94884   94875      68   94896   94887
      68   94908   94899      68   94920   94911      68   94932   94923      68
   94944   94935      68   94956   94947      68   94968   94959      68   94980
   94971      68   94992   94983      68   95004   94995      68   95016   95007
      68   95028   95019      68   95040   95031      68   95052   95043      68
   95064   95055      68   95076   95067      68   95088   95079      68   95100
   95091      68   95112   95103      68   95124   95115      68   95136   95127
      68   95148   95139      68   95160   95151      68   95172   95163      68
   95184   95175      68   95196   95187      68   95208   95199      68   95220
   95211      68   95232   95223      68   95244   95235      68   95256   95247
      68   95268   95259      68   95280   95271      68   95292   95283      68
   95304   95295      68   95316   95307      68   95328   95319      68   95340
   95331      68   95352   95343      68   95364   95355      68   95376   95367
      68   95388   95379      68   95400   95391      68   95412   95403      68
   95424   95415      68   95436   95427      68   95448   95439      68   95460
   95451      68   95472   95463      68   95484   95475      68   95496   95487
      68   95508   95499      68   95520   95511      68   95532   95523      68
   95544   95535      68   95556   95547      68   95568   95559      68   95580
   95571      68   95592   95583      68   95604   95595      68   95616   95607
      68   95628   95619      68   95640   95631      68   95652   95643      68
   95664   95655      68   95676   95667      68   95688   95679      68   95700
   95691      68   95712   95703      68   95724   95715      68   95736   95727
      68   95748   95739      68   95760   95751      68   95772   95763      68
   95784   95775      68   95796   95787      68   95808   95799      68   95820
   95811      68   95832   95823      68   95844   95835      68   95856   95847
      68   95868   95859      68   95880   95871      68   95892   95883      68
   95904   95895      68   95916   95907      68   95928   95919      68   95940
   95931      68   95952   95943      68   95964   95955      68   95976   95967
      68   95988   95979      68   96000   95991      68   96012   96003      68
   96024   96015      68   96036   96027      68   96048   96039      68   96060
   96051      68   96072   96063      68   96084   96075      68   96096   96087
      68   96108   96099      68   96120   96111      68   96132   96123      68
   96144   96135      68   96156   96147      68   96168   96159      68   96180
   96171      68   96192   96183      68   96204   96195      68   96216   96207
      68   96228   96219      68   96240   96231      68   96252   96243      68
   96264   96255      68   96276   96267      68   96288   96279      68   96300
   96291      68   96312   96303      68   96324   96315      68   96336   96327
      68   96348   96339      68   96360   96351      68   96372   96363      68
   96384   96375      68   96396   96387      68   96408   96399      68   96420
   96411      68   96432   96423      68   96444   96435      68   96456   96447
      68   96468   96459      68   96480   96471      68   96492   96483      68
   96504   96495      68   96516   96507      68   96528   96519      68   96540
   96531      68   96552   96543      68   96564   96555      68   96576   96567
      68   96588   96579      68   96600   96591      68   96612   96603      68
   96624   96615      68   96636   96627      68   96648   96639      68   96660
   96651      68   96672   96663      68   96684   96675      68   96696   96687
      68   96708   96699      68   96720   96711      68   96732   96723      68
   96744   96735      68   96756   96747      68   96768   96759      68   96780
   96771      68   96792   96783      68   96804   96795      68   96816   96807
      68   96828   96819      68   96840   96831      68   96852   96843      68
   96864   96855      68   96876   96867      68   96888   96879      68   96900
   96891      68   96912   96903      68   96924   96915      68   96936   96927
      68   96948   96939      68   96960   96951      68   96972   96963      68
   96984   96975      68   96996   96987      68   97008   96999      68   97020
   97011      68   97032   97023      68   97044   97035      68   97056   97047
      68   97068   97059      68   97080   97071      68   97092   97083      68
   97104   97095      68   97116   97107      68   97128   97119      68   97140
   97131      68   97152   97143      68   97164   97155      68   97176   97167
      68   97188   97179      68   97200   97191      68   97212   97203      68
   97224   97215      68   97236   97227      68   97248   97239      68   97260
   97251      68   97272   97263      68   97284   97275      68   97296   97287
      68   97308   97299      68   97320   97311      68   97332   97323      68
   97344   97335      68   97356   97347      68   97368   97359      68   97380
   97371      68   97392   97383      68   97404   97395      68   97416   97407
      68   97428   97419      68   97440   97431      68   97452   97443      68
   97464   97455      68   97476   97467      68   97488   97479      68   97500
   97491      68   97512   97503      68   97524   97515      68   97536   97527
      68   97548   97539      68   97560   97551      68   97572   97563      68
   97584   97575      68   97596   97587      68   97608   97599      68   97620
   97611      68   97632   97623      68   97644   97635      68   97656   97647
      68   97668   97659      68   97680   97671      68   97692   97683      68
   97704   97695      68   97716   97707      68   97728   97719      68   97740
   97731      68   97752   97743      68   97764   97755      68   97776   97767
      68   97788   97779      68   97800   97791      68   97812   97803      68
   97824   97815      68   97836   97827      68   97848   97839      68   97860
   97851      68   97872   97863      68   97884   97875      68   97896   97887
      68   97908   97899      68   97920   97911      68   97932   97923      68
   97944   97935      68   97956   97947      68   97968   97959      68   97980
   97971      68   97992   97983      68   98004   97995      68   98016   98007
      68   98028   98019      68   98040   98031      68   98052   98043      68
   98064   98055      68   98076   98067      68   98088   98079      68   98100
   98091      68   98112   98103      68   98124   98115      68   98136   98127
      68   98148   98139      68   98160   98151      68   98172   98163      68
   98184   98175      68   98196   98187      68   98208   98199      68   98220
   98211      68   98232   98223      68   98244   98235      68   98256   98247
      68   98268   98259      68   98280   98271      68   98292   98283      68
   98304   98295      68   98316   98307      68   98328   98319      68   98340
   98331      68   98352   98343      68   98364   98355      68   98376   98367
      68   98388   98379      68   98400   98391      68   98412   98403      68
   98424   98415      68   98436   98427      68   98448   98439      68   98460
   98451      68   98472   98463      68   98484   98475      68   98496   98487
      68   98508   98499      68   98520   98511      68   98532   98523      68
   98544   98535      68   98556   98547      68   98568   98559      68   98580
   98571      68   98592   98583      68   98604   98595      68   98616   98607
      68   98628   98619      68   98640   98631      68   98652   98643      68
   98664   98655      68   98676   98667      68   98688   98679      68   98700
   98691      68   98712   98703      68   98724   98715      68   98736   98727
      68   98748   98739      68   98760   98751      68   98772   98763      68
   98784   98775      68   98796   98787      68   98808   98799      68   98820
   98811      68   98832   98823      68   98844   98835      68   98856   98847
      68   98868   98859      68   98880   98871      68   98892   98883      68
   98904   98895      68   98916   98907      68   98928   98919      68   98940
   98931      68   98952   98943      68   98964   98955      68   98976   98967
      68   98988   98979      68   99000   98991      68   99012   99003      68
   99024   99015      68   99036   99027      68   99048   99039      68   99060
   99051      68   99072   99063      68   99084   99075      68   99096   99087
      68   99108   99099      68   99120   99111      68   99132   99123      68
   99144   99135      68   99156   99147      68   99168   99159      68   99180
   99171      68   99192   99183      68   99204   99195      68   99216   99207
      68   99228   99219      68   99240   99231      68   99252   99243      68
   99264   99255      68   99276   99267      68   99288   99279      68   99300
   99291      68   99312   99303      68   99324   99315      68   99336   99327
      68   99348   99339      68   99360   99351      68   99372   99363      68
   99384   99375      68   99396   99387      68   99408   99399      68   99420
   99411      68   99432   99423      68   99444   99435      68   99456   99447
      68   99468   99459      68   99480   99471      68   99492   99483      68
   99504   99495      68   99516   99507      68   99528   99519      68   99540
   99531      68   99552   99543      68   99564   99555      68   99576   99567
      68   99588   99579      68   99600   99591      68   99612   99603      68
   99624   99615      68   99636   99627      68   99648   99639      68   99660
   99651      68   99672   99663      68   99684   99675      68   99696   99687
      68   99708   99699      68   99720   99711      68   99732   99723      68
   99744   99735      68   99756   99747      68   99768   99759      68   99780
   99771      68   99792   99783      68   99804   99795      68   99816   99807
      68   99828   99819      68   99840   99831      68   99852   99843      68
   99864   99855      68   99876   99867      68   99888   99879      68   99900
   99891      68   99912   99903      68   99924   99915      68   99936   99927
      68   99948   99939      68   99960   99951      68   99972   99963      68
   99984   99975      68   99996   99987      68  100008   99999      68  100020
  100011      68  100032  100023      68  100044  100035      68  100056  100047
      68  100068  100059      68  100080  100071      68  100092  100083      68
  100104  100095      68  100116  100107      68  100128  100119      68  100140
  100131      68  100152  100143      68  100164  100155      68  100176  100167
      68  100188  100179      68  100200  100191      68  100212  100203      68
  100224  100215      68  100236  100227      68  100248  100239      68  100260
  100251      68  100272  100263      68  100284  100275      68  100296  100287
      68  100308  100299      68  100320  100311      68  100332  100323      68
  100344  100335      68  100356  100347      68  100368  100359      68  100380
  100371      68  100392  100383      68  100404  100395      68  100416  100407
      68  100428  100419      68  100440  100431      68  100452  100443      68
  100464  100455      68  100476  100467      68  100488  100479      68  100500
  100491      68  100512  100503      68  100524  100515      68  100536  100527
      68  100548  100539      68  100560  100551      68  100572  100563      68
  100584  100575      68  100596  100587      68  100608  100599      68  100620
  100611      68  100632  100623      68  100644  100635      68  100656  100647
      68  100668  100659      68  100680  100671      68  100692  100683      68
  100704  100695      68  100716  100707      68  100728  100719      68  100740
  100731      68  100752  100743      68  100764  100755      68  100776  100767
      68  100788  100779      68  100800  100791      68  100812  100803      68
  100824  100815      68  100836  100827      68  100848  100839      68  100860
  100851      68  100872  100863      68  100884  100875      68  100896  100887
      68  100908  100899      68  100920  100911      68  100932  100923      68
  100944  100935      68  100956  100947      68  100968  100959      68  100980
  100971      68  100992  100983      68  101004  100995      68  101016  101007
      68  101028  101019      68  101040  101031      68  101052  101043      68
  101064  101055      68  101076  101067      68  101088  101079      68  101100
  101091      68  101112  101103      68  101124  101115      68  101136  101127
      68  101148  101139      68  101160  101151      68  101172  101163      68
  101184  101175      68  101196  101187      68  101208  101199      68  101220
  101211      68  101232  101223      68  101244  101235      68  101256  101247
      68  101268  101259      68  101280  101271      68  101292  101283      68
  101304  101295      68  101316  101307      68  101328  101319      68  101340
  101331      68  101352  101343      68  101364  101355      68  101376  101367
      68  101388  101379      68  101400  101391      68  101412  101403      68
  101424  101415      68  101436  101427      68  101448  101439      68  101460
  101451      68  101472  101463      68  101484  101475      68  101496  101487
      68  101508  101499      68  101520  101511      68  101532  101523      68
  101544  101535      68  101556  101547      68  101568  101559      68  101580
  101571      68  101592  101583      68  101604  101595      68  101616  101607
      68  101628  101619      68  101640  101631      68  101652  101643      68
  101664  101655      68  101676  101667      68  101688  101679      68  101700
  101691      68  101712  101703      68  101724  101715      68  101736  101727
      68  101748  101739      68  101760  101751      68  101772  101763      68
  101784  101775      68  101796  101787      68  101808  101799      68  101820
  101811      68  101832  101823      68  101844  101835      68  101856  101847
      68  101868  101859      68  101880  101871      68  101892  101883      68
  101904  101895      68  101916  101907      68  101928  101919      68  101940
  101931      68  101952  101943      68  101964  101955      68  101976  101967
      68  101988  101979      68  102000  101991      68  102012  102003      68
  102024  102015      68  102036  102027      68  102048  102039      68  102060
  102051      68  102072  102063      68  102084  102075      68  102096  102087
      68  102108  102099      68  102120  102111      68  102132  102123      68
  102144  102135      68  102156  102147      68  102168  102159      68  102180
  102171      68  102192  102183      68  102204  102195      68  102216  102207
      68  102228  102219      68  102240  102231      68  102252  102243      68
  102264  102255      68  102276  102267      68  102288  102279      68  102300
  102291      68  102312  102303      68  102324  102315      68  102336  102327
      68  102348  102339      68  102360  102351      68  102372  102363      68
  102384  102375      68  102396  102387      68  102408  102399      68  102420
  102411      68  102432  102423      68  102444  102435      68  102456  102447
      68  102468  102459      68  102480  102471      68  102492  102483      68
  102504  102495      68  102516  102507      68  102528  102519      68  102540
  102531      68  102552  102543      68  102564  102555      68  102576  102567
      68  102588  102579      68  102600  102591      68  102612  102603      68
  102624  102615      68  102636  102627      68  102648  102639      68  102660
  102651      68  102672  102663      68  102684  102675      68  102696  102687
      68  102708  102699      68  102720  102711      68  102732  102723      68
  102744  102735      68  102756  102747      68  102768  102759      68  102780
  102771      68  102792  102783      68  102804  102795      68  102816  102807
      68  102828  102819      68  102840  102831      68  102852  102843      68
  102864  102855      68  102876  102867      68  102888  102879      68  102900
  102891      68  102912  102903      68  102924  102915      68  102936  102927
      68  102948  102939      68  102960  102951      68  102972  102963      68
  102984  102975      68  102996  102987      68  103008  102999      68  103020
  103011      68  103032  103023      68  103044  103035      68  103056  103047
      68  103068  103059      68  103080  103071      68  103092  103083      68
  103104  103095      68  103116  103107      68  103128  103119      68  103140
  103131      68  103152  103143      68  103164  103155      68  103176  103167
      68  103188  103179      68  103200  103191      68  103212  103203      68
  103224  103215      68  103236  103227      68  103248  103239      68  103260
  103251      68  103272  103263      68  103284  103275      68  103296  103287
      68  103308  103299      68  103320  103311      68  103332  103323      68
  103344  103335      68  103356  103347      68  103368  103359      68  103380
  103371      68  103392  103383      68  103404  103395      68  103416  103407
      68  103428  103419      68  103440  103431      68  103452  103443      68
  103464  103455      68  103476  103467      68  103488  103479      68  103500
  103491      68  103512  103503      68  103524  103515      68  103536  103527
      68  103548  103539      68  103560  103551      68  103572  103563      68
  103584  103575      68  103596  103587      68  103608  103599      68  103620
  103611      68  103632  103623      68  103644  103635      68  103656  103647
      68  103668  103659      68  103680  103671      68  103692  103683      68
  103704  103695      68  103716  103707      68  103728  103719      68  103740
  103731      68  103752  103743      68  103764  103755      68  103776  103767
      68  103788  103779      68  103800  103791      68  103812  103803      68
  103824  103815      68  103836  103827      68  103848  103839      68  103860
  103851      68  103872  103863      68  103884  103875      68  103896  103887
      68  103908  103899      68  103920  103911      68  103932  103923      68
  103944  103935      68  103956  103947      68  103968  103959      68  103980
  103971      68  103992  103983      68  104004  103995      68  104016  104007
      68  104028  104019      68  104040  104031      68  104052  104043      68
  104064  104055      68  104076  104067      68  104088  104079      68  104100
  104091      68  104112  104103      68  104124  104115      68  104136  104127
      68  104148  104139      68  104160  104151      68  104172  104163      68
  104184  104175      68  104196  104187      68  104208  104199      68  104220
  104211      68  104232  104223      68  104244  104235      68  104256  104247
      68  104268  104259      68  104280  104271      68  104292  104283      68
  104304  104295      68  104316  104307      68  104328  104319      68  104340
  104331      68  104352  104343      68  104364  104355      68  104376  104367
      68  104388  104379      68  104400  104391      68  104412  104403      68
  104424  104415      68  104436  104427      68  104448  104439      68  104460
  104451      68  104472  104463      68  104484  104475      68  104496  104487
      68  104508  104499      68  104520  104511      68  104532  104523      68
  104544  104535      68  104556  104547      68  104568  104559      68  104580
  104571      68  104592  104583      68  104604  104595      68  104616  104607
      68  104628  104619      68  104640  104631      68  104652  104643      68
  104664  104655      68  104676  104667      68  104688  104679      68  104700
  104691      68  104712  104703      68  104724  104715      68  104736  104727
      68  104748  104739      68  104760  104751      68  104772  104763      68
  104784  104775      68  104796  104787      68  104808  104799      68  104820
  104811      68  104832  104823      68  104844  104835      68  104856  104847
      68  104868  104859      68  104880  104871      68  104892  104883      68
  104904  104895      68  104916  104907      68  104928  104919      68  104940
  104931      68  104952  104943      68  104964  104955      68  104976  104967
      68  104988  104979      68  105000  104991      68  105012  105003      68
  105024  105015      68  105036  105027      68  105048  105039      68  105060
  105051      68  105072  105063      68  105084  105075      68  105096  105087
      68  105108  105099      68  105120  105111      68  105132  105123      68
  105144  105135      68  105156  105147      68  105168  105159      68  105180
  105171      68  105192  105183      68  105204  105195      68  105216  105207
      68  105228  105219      68  105240  105231      68  105252  105243      68
  105264  105255      68  105276  105267      68  105288  105279      68  105300
  105291      68  105312  105303      68  105324  105315      68  105336  105327
      68  105348  105339      68  105360  105351      68  105372  105363      68
  105384  105375      68  105396  105387      68  105408  105399      68  105420
  105411      68  105432  105423      68  105444  105435      68  105456  105447
      68  105468  105459      68  105480  105471      68  105492  105483      68
  105504  105495      68  105516  105507      68  105528  105519      68  105540
  105531      68  105552  105543      68  105564  105555      68  105576  105567
      68  105588  105579      68  105600  105591      68  105612  105603      68
  105624  105615      68  105636  105627      68  105648  105639      68  105660
  105651      68  105672  105663      68  105684  105675      68  105696  105687
      68  105708  105699      68  105720  105711      68  105732  105723      68
  105744  105735      68  105756  105747      68  105768  105759      68  105780
  105771      68  105792  105783      68  105804  105795      68  105816  105807
      68  105828  105819      68  105840  105831      68  105852  105843      68
  105864  105855      68  105876  105867      68  105888  105879      68  105900
  105891      68  105912  105903      68  105924  105915      68  105936  105927
      68  105948  105939      68  105960  105951      68  105972  105963      68
  105984  105975      68  105996  105987      68  106008  105999      68  106020
  106011      68  106032  106023      68  106044  106035      68  106056  106047
      68  106068  106059      68  106080  106071      68  106092  106083      68
  106104  106095      68  106116  106107      68  106128  106119      68  106140
  106131      68  106152  106143      68  106164  106155      68  106176  106167
      68  106188  106179      68  106200  106191      68  106212  106203      68
  106224  106215      68  106236  106227      68  106248  106239      68  106260
  106251      68  106272  106263      68  106284  106275      68  106296  106287
      68  106308  106299      68  106320  106311      68  106332  106323      68
  106344  106335      68  106356  106347      68  106368  106359      68  106380
  106371      68  106392  106383      68  106404  106395      68  106416  106407
      68  106428  106419      68  106440  106431      68  106452  106443      68
  106464  106455      68  106476  106467      68  106488  106479      68  106500
  106491      68  106512  106503      68  106524  106515      68  106536  106527
      68  106548  106539      68  106560  106551      68  106572  106563      68
  106584  106575      68  106596  106587      68  106608  106599      68  106620
  106611      68  106632  106623      68  106644  106635      68  106656  106647
      68  106668  106659      68  106680  106671      68  106692  106683      68
  106704  106695      68  106716  106707      68  106728  106719      68  106740
  106731      68  106752  106743      68  106764  106755      68  106776  106767
      68  106788  106779      68  106800  106791      68  106812  106803      68
  106824  106815      68  106836  106827      68  106848  106839      68  106860
  106851      68  106872  106863      68  106884  106875      68  106896  106887
      68  106908  106899      68  106920  106911      68  106932  106923      68
  106944  106935      68  106956  106947      68  106968  106959      68  106980
  106971      68  106992  106983      68  107004  106995      68  107016  107007
      68  107028  107019      68  107040  107031      68  107052  107043      68
  107064  107055      68  107076  107067      68  107088  107079      68  107100
  107091      68  107112  107103      68  107124  107115      68  107136  107127
      68  107148  107139      68  107160  107151      68  107172  107163      68
  107184  107175      68  107196  107187      68  107208  107199      68  107220
  107211      68  107232  107223      68  107244  107235      68  107256  107247
      68  107268  107259      68  107280  107271      68  107292  107283      68
  107304  107295      68  107316  107307      68  107328  107319      68  107340
  107331      68  107352  107343      68  107364  107355      68  107376  107367
      68  107388  107379      68  107400  107391      68  107412  107403      68
  107424  107415      68  107436  107427      68  107448  107439      68  107460
  107451      68  107472  107463      68  107484  107475      68  107496  107487
      68  107508  107499      68  107520  107511      68  107532  107523      68
  107544  107535      68  107556  107547      68  107568  107559      68  107580
  107571      68  107592  107583      68  107604  107595      68  107616  107607
      68  107628  107619      68  107640  107631      68  107652  107643      68
  107664  107655      68  107676  107667      68  107688  107679      68  107700
  107691      68  107712  107703      68  107724  107715      68  107736  107727
      68  107748  107739      68  107760  107751      68  107772  107763      68
  107784  107775      68  107796  107787      68  107808  107799      68  107820
  107811      68  107832  107823      68  107844  107835      68  107856  107847
      68  107868  107859      68  107880  107871      68  107892  107883      68
  107904  107895      68  107916  107907      68  107928  107919      68  107940
  107931      68  107952  107943      68  107964  107955      68  107976  107967
      68  107988  107979      68  108000  107991      68  108012  108003      68
  108024  108015      68  108036  108027      68  108048  108039      68  108060
  108051      68  108072  108063      68  108084  108075      68  108096  108087
      68  108108  108099      68  108120  108111      68  108132  108123      68
  108144  108135      68  108156  108147      68  108168  108159      68  108180
  108171      68  108192  108183      68  108204  108195      68  108216  108207
      68  108228  108219      68  108240  108231      68  108252  108243      68
  108264  108255      68  108276  108267      68  108288  108279      68  108300
  108291      68  108312  108303      68  108324  108315      68  108336  108327
      68  108348  108339      68  108360  108351      68  108372  108363      68
  108384  108375      68  108396  108387      68  108408  108399      68  108420
  108411      68  108432  108423      68  108444  108435      68  108456  108447
      68  108468  108459      68  108480  108471      68  108492  108483      68
  108504  108495      68  108516  108507      68  108528  108519      68  108540
  108531      68  108552  108543      68  108564  108555      68  108576  108567
      68  108588  108579      68  108600  108591      68  108612  108603      68
  108624  108615      68  108636  108627      68  108648  108639      68  108660
  108651      68  108672  108663      68  108684  108675      68  108696  108687
      68  108708  108699      68  108720  108711      68  108732  108723      68
  108744  108735      68  108756  108747      68  108768  108759      68  108780
  108771      68  108792  108783      68  108804  108795      68  108816  108807
      68  108828  108819      68  108840  108831      68  108852  108843      68
  108864  108855      68  108876  108867      68  108888  108879      68  108900
  108891      68  108912  108903      68  108924  108915      68  108936  108927
      68  108948  108939      68  108960  108951      68  108972  108963      68
  108984  108975      68  108996  108987      68  109008  108999      68  109020
  109011      68  109032  109023      68  109044  109035      68  109056  109047
      68  109068  109059      68  109080  109071      68  109092  109083      68
  109104  109095      68  109116  109107      68  109128  109119      68  109140
  109131      68  109152  109143      68  109164  109155      68  109176  109167
      68  109188  109179      68  109200  109191      68  109212  109203      68
  109224  109215      68  109236  109227      68  109248  109239      68  109260
  109251      68  109272  109263      68  109284  109275      68  109296  109287
      68  109308  109299      68  109320  109311      68  109332  109323      68
  109344  109335      68  109356  109347      68  109368  109359      68  109380
  109371      68  109392  109383      68  109404  109395      68  109416  109407
      68  109428  109419      68  109440  109431      68  109452  109443      68
  109464  109455      68  109476  109467      68  109488  109479      68  109500
  109491      68  109512  109503      68  109524  109515      68  109536  109527
      68  109548  109539      68  109560  109551      68  109572  109563      68
  109584  109575      68  109596  109587      68  109608  109599      68  109620
  109611      68  109632  109623      68  109644  109635      68  109656  109647
      68  109668  109659      68  109680  109671      68  109692  109683      68
  109704  109695      68  109716  109707      68  109728  109719      68  109740
  109731      68  109752  109743      68  109764  109755      68  109776  109767
      68  109788  109779      68  109800  109791      68  109812  109803      68
  109824  109815      68  109836  109827      68  109848  109839      68  109860
  109851      68  109872  109863      68  109884  109875      68  109896  109887
      68  109908  109899      68  109920  109911      68  109932  109923      68
  109944  109935      68  109956  109947      68  109968  109959      68  109980
  109971      68  109992  109983      68  110004  109995      68  110016  110007
      68  110028  110019      68  110040  110031      68  110052  110043      68
  110064  110055      68  110076  110067      68  110088  110079      68  110100
  110091      68  110112  110103      68  110124  110115      68  110136  110127
      68  110148  110139      68  110160  110151      68  110172  110163      68
  110184  110175      68  110196  110187      68  110208  110199      68  110220
  110211      68  110232  110223      68  110244  110235      68  110256  110247
      68  110268  110259      68  110280  110271      68  110292  110283      68
  110304  110295      68  110316  110307      68  110328  110319      68  110340
  110331      68  110352  110343      68  110364  110355      68  110376  110367
      68  110388  110379      68  110400  110391      68  110412  110403      68
  110424  110415      68  110436  110427      68  110448  110439      68  110460
  110451      68  110472  110463      68  110484  110475      68  110496  110487
      68  110508  110499      68  110520  110511      68  110532  110523      68
  110544  110535      68  110556  110547      68  110568  110559      68  110580
  110571      68  110592  110583      68  110604  110595      68  110616  110607
      68  110628  110619      68  110640  110631      68  110652  110643      68
  110664  110655      68  110676  110667      68  110688  110679      68  110700
  110691      68  110712  110703      68  110724  110715      68  110736  110727
      68  110748  110739      68  110760  110751      68  110772  110763      68
  110784  110775      68  110796  110787      68  110808  110799      68  110820
  110811      68  110832  110823      68  110844  110835      68  110856  110847
      68  110868  110859      68  110880  110871      68  110892  110883      68
  110904  110895      68  110916  110907      68  110928  110919      68  110940
  110931      68  110952  110943      68  110964  110955      68  110976  110967
      68  110988  110979      68  111000  110991      68  111012  111003      68
  111024  111015      68  111036  111027      68  111048  111039      68  111060
  111051      68  111072  111063      68  111084  111075      68  111096  111087
      68  111108  111099      68  111120  111111      68  111132  111123      68
  111144  111135      68  111156  111147      68  111168  111159      68  111180
  111171      68  111192  111183      68  111204  111195      68  111216  111207
      68  111228  111219      68  111240  111231      68  111252  111243      68
  111264  111255      68  111276  111267      68  111288  111279      68  111300
  111291      68  111312  111303      68  111324  111315      68  111336  111327
      68  111348  111339      68  111360  111351      68  111372  111363      68
  111384  111375      68  111396  111387      68  111408  111399      68  111420
  111411      68  111432  111423      68  111444  111435      68  111456  111447
      68  111468  111459      68  111480  111471      68  111492  111483      68
  111504  111495      68  111516  111507      68  111528  111519      68  111540
  111531      68  111552  111543      68  111564  111555      68  111576  111567
      68  111588  111579      68  111600  111591      68  111612  111603      68
  111624  111615      68  111636  111627      68  111648  111639      68  111660
  111651      68  111672  111663      68  111684  111675      68  111696  111687
      68  111708  111699      68  111720  111711      68  111732  111723      68
  111744  111735      68  111756  111747      68  111768  111759      68  111780
  111771      68  111792  111783      68  111804  111795      68  111816  111807
      68  111828  111819      68  111840  111831      68  111852  111843      68
  111864  111855      68  111876  111867      68  111888  111879      68  111900
  111891      68  111912  111903      68  111924  111915      68  111936  111927
      68  111948  111939      68  111960  111951      68  111972  111963      68
  111984  111975      68  111996  111987      68  112008  111999      68  112020
  112011      68  112032  112023      68  112044  112035      68  112056  112047
      68  112068  112059      68  112080  112071      68  112092  112083      68
  112104  112095      68  112116  112107      68  112128  112119      68  112140
  112131      68  112152  112143      68  112164  112155      68  112176  112167
      68  112188  112179      68  112200  112191      68  112212  112203      68
  112224  112215      68  112236  112227      68  112248  112239      68  112260
  112251      68  112272  112263      68  112284  112275      68  112296  112287
      68  112308  112299      68  112320  112311      68  112332  112323      68
  112344  112335      68  112356  112347      68  112368  112359      68  112380
  112371      68  112392  112383      68  112404  112395      68  112416  112407
      68  112428  112419      68  112440  112431      68  112452  112443      68
  112464  112455      68  112476  112467      68  112488  112479      68  112500
  112491      68  112512  112503      68  112524  112515      68  112536  112527
      68  112548  112539      68  112560  112551      68  112572  112563      68
  112584  112575      68  112596  112587      68  112608  112599      68  112620
  112611      68  112632  112623      68  112644  112635      68  112656  112647
      68  112668  112659      68  112680  112671      68  112692  112683      68
  112704  112695      68  112716  112707      68  112728  112719      68  112740
  112731      68  112752  112743      68  112764  112755      68  112776  112767
      68  112788  112779      68  112800  112791      68  112812  112803      68
  112824  112815      68  112836  112827      68  112848  112839      68  112860
  112851      68  112872  112863      68  112884  112875      68  112896  112887
      68  112908  112899      68  112920  112911      68  112932  112923      68
  112944  112935      68  112956  112947      68  112968  112959      68  112980
  112971      68  112992  112983      68  113004  112995      68  113016  113007
      68  113028  113019      68  113040  113031      68  113052  113043      68
  113064  113055      68  113076  113067      68  113088  113079      68  113100
  113091      68  113112  113103      68  113124  113115      68  113136  113127
      68  113148  113139      68  113160  113151      68  113172  113163      68
  113184  113175      68  113196  113187      68  113208  113199      68  113220
  113211      68  113232  113223      68  113244  113235      68  113256  113247
      68  113268  113259      68  113280  113271      68  113292  113283      68
  113304  113295      68  113316  113307      68  113328  113319      68  113340
  113331      68  113352  113343      68  113364  113355      68  113376  113367
      68  113388  113379      68  113400  113391      68  113412  113403      68
  113424  113415      68  113436  113427      68  113448  113439      68  113460
  113451      68  113472  113463      68  113484  113475      68  113496  113487
      68  113508  113499      68  113520  113511      68  113532  113523      68
  113544  113535      68  113556  113547      68  113568  113559      68  113580
  113571      68  113592  113583      68  113604  113595      68  113616  113607
      68  113628  113619      68  113640  113631      68  113652  113643      68
  113664  113655      68  113676  113667      68  113688  113679      68  113700
  113691      68  113712  113703      68  113724  113715      68  113736  113727
      68  113748  113739      68  113760  113751      68  113772  113763      68
  113784  113775      68  113796  113787      68  113808  113799      68  113820
  113811      68  113832  113823      68  113844  113835      68  113856  113847
      68  113868  113859      68  113880  113871      68  113892  113883      68
  113904  113895      68  113916  113907      68  113928  113919      68  113940
  113931      68  113952  113943      68  113964  113955      68  113976  113967
      68  113988  113979      68  114000  113991      68  114012  114003      68
  114024  114015      68  114036  114027      68  114048  114039      68  114060
  114051      68  114072  114063      68  114084  114075      68  114096  114087
      68  114108  114099      68  114120  114111      68  114132  114123      68
  114144  114135      68  114156  114147      68  114168  114159      68  114180
  114171      68  114192  114183      68  114204  114195      68  114216  114207
      68  114228  114219      68  114240  114231      68  114252  114243      68
  114264  114255      68  114276  114267      68  114288  114279      68  114300
  114291      68  114312  114303      68  114324  114315      68  114336  114327
      68  114348  114339      68  114360  114351      68  114372  114363      68
  114384  114375      68  114396  114387      68  114408  114399      68  114420
  114411      68  114432  114423      68  114444  114435      68  114456  114447
      68  114468  114459      68  114480  114471      68  114492  114483      68
  114504  114495      68  114516  114507      68  114528  114519      68  114540
  114531      68  114552  114543      68  114564  114555      68  114576  114567
      68  114588  114579      68  114600  114591      68  114612  114603      68
  114624  114615      68  114636  114627      68  114648  114639      68  114660
  114651      68  114672  114663      68  114684  114675      68  114696  114687
      68  114708  114699      68  114720  114711      68  114732  114723      68
  114744  114735      68  114756  114747      68  114768  114759      68  114780
  114771      68  114792  114783      68  114804  114795      68  114816  114807
      68  114828  114819      68  114840  114831      68  114852  114843      68
  114864  114855      68  114876  114867      68  114888  114879      68  114900
  114891      68  114912  114903      68  114924  114915      68  114936  114927
      68  114948  114939      68  114960  114951      68  114972  114963      68
  114984  114975      68  114996  114987      68  115008  114999      68  115020
  115011      68  115032  115023      68  115044  115035      68  115056  115047
      68  115068  115059      68  115080  115071      68  115092  115083      68
  115104  115095      68  115116  115107      68  115128  115119      68  115140
  115131      68  115152  115143      68  115164  115155      68  115176  115167
      68  115188  115179      68  115200  115191      68  115212  115203      68
  115224  115215      68  115236  115227      68  115248  115239      68  115260
  115251      68  115272  115263      68  115284  115275      68  115296  115287
      68  115308  115299      68  115320  115311      68  115332  115323      68
  115344  115335      68  115356  115347      68  115368  115359      68  115380
  115371      68  115392  115383      68  115404  115395      68  115416  115407
      68  115428  115419      68  115440  115431      68  115452  115443      68
  115464  115455      68  115476  115467      68  115488  115479      68  115500
  115491      68  115512  115503      68  115524  115515      68  115536  115527
      68  115548  115539      68  115560  115551      68  115572  115563      68
  115584  115575      68  115596  115587      68  115608  115599      68  115620
  115611      68  115632  115623      68  115644  115635      68  115656  115647
      68  115668  115659      68  115680  115671      68  115692  115683      68
  115704  115695      68  115716  115707      68  115728  115719      68  115740
  115731      68  115752  115743      68  115764  115755      68  115776  115767
      68  115788  115779      68  115800  115791      68  115812  115803      68
  115824  115815      68  115836  115827      68  115848  115839      68  115860
  115851      68  115872  115863      68  115884  115875      68  115896  115887
      68  115908  115899      68  115920  115911      68  115932  115923      68
  115944  115935      68  115956  115947      68  115968  115959      68  115980
  115971      68  115992  115983      68  116004  115995      68  116016  116007
      68  116028  116019      68  116040  116031      68  116052  116043      68
  116064  116055      68  116076  116067      68  116088  116079      68  116100
  116091      68  116112  116103      68  116124  116115      68  116136  116127
      68  116148  116139      68  116160  116151      68  116172  116163      68
  116184  116175      68  116196  116187      68  116208  116199      68  116220
  116211      68  116232  116223      68  116244  116235      68  116256  116247
      68  116268  116259      68  116280  116271      68  116292  116283      68
  116304  116295      68  116316  116307      68  116328  116319      68  116340
  116331      68  116352  116343      68  116364  116355      68  116376  116367
      68  116388  116379      68  116400  116391      68  116412  116403      68
  116424  116415      68  116436  116427      68  116448  116439      68  116460
  116451      68  116472  116463      68  116484  116475      68  116496  116487
      68  116508  116499      68  116520  116511      68  116532  116523      68
  116544  116535      68  116556  116547      68  116568  116559      68  116580
  116571      68  116592  116583      68  116604  116595      68  116616  116607
      68  116628  116619      68  116640  116631      68  116652  116643      68
  116664  116655      68  116676  116667      68  116688  116679      68  116700
  116691      68  116712  116703      68  116724  116715      68  116736  116727
      68  116748  116739      68  116760  116751      68  116772  116763      68
  116784  116775      68  116796  116787      68  116808  116799      68  116820
  116811      68  116832  116823      68  116844  116835      68  116856  116847
      68  116868  116859      68  116880  116871      68  116892  116883      68
  116904  116895      68  116916  116907      68  116928  116919      68  116940
  116931      68  116952  116943      68  116964  116955      68  116976  116967
      68  116988  116979      68  117000  116991      68  117012  117003      68
  117024  117015      68  117036  117027      68  117048  117039      68  117060
  117051      68  117072  117063      68  117084  117075      68  117096  117087
      68  117108  117099      68  117120  117111      68  117132  117123      68
  117144  117135      68  117156  117147      68  117168  117159      68  117180
  117171      68  117192  117183      68  117204  117195      68  117216  117207
      68  117228  117219      68  117240  117231      68  117252  117243      68
  117264  117255      68  117276  117267      68  117288  117279      68  117300
  117291      68  117312  117303      68  117324  117315      68  117336  117327
      68  117348  117339      68  117360  117351      68  117372  117363      68
  117384  117375      68  117396  117387      68  117408  117399      68  117420
  117411      68  117432  117423      68  117444  117435      68  117456  117447
      68  117468  117459      68  117480  117471      68  117492  117483      68
  117504  117495      68  117516  117507      68  117528  117519      68  117540
  117531      68  117552  117543      68  117564  117555      68  117576  117567
      68  117588  117579      68  117600  117591      68  117612  117603      68
  117624  117615      68  117636  117627      68  117648  117639      68  117660
  117651      68  117672  117663      68  117684  117675      68  117696  117687
      68  117708  117699      68  117720  117711      68  117732  117723      68
  117744  117735      68  117756  117747      68  117768  117759      68  117780
  117771      68  117792  117783      68  117804  117795      68  117816  117807
      68  117828  117819      68  117840  117831      68  117852  117843      68
  117864  117855      68  117876  117867      68  117888  117879      68  117900
  117891      68  117912  117903      68  117924  117915      68  117936  117927
      68  117948  117939      68  117960  117951      68  117972  117963      68
  117984  117975      68  117996  117987      68  118008  117999      68  118020
  118011      68  118032  118023      68  118044  118035      68  118056  118047
      68  118068  118059      68  118080  118071      68  118092  118083      68
  118104  118095      68  118116  118107      68  118128  118119      68  118140
  118131      68  118152  118143      68  118164  118155      68  118176  118167
      68  118188  118179      68  118200  118191      68  118212  118203      68
  118224  118215      68  118236  118227      68  118248  118239      68  118260
  118251      68  118272  118263      68  118284  118275      68  118296  118287
      68  118308  118299      68  118320  118311      68  118332  118323      68
  118344  118335      68  118356  118347      68  118368  118359      68  118380
  118371      68  118392  118383      68  118404  118395      68  118416  118407
      68  118428  118419      68  118440  118431      68  118452  118443      68
  118464  118455      68  118476  118467      68  118488  118479      68  118500
  118491      68  118512  118503      68  118524  118515      68  118536  118527
      68  118548  118539      68  118560  118551      68  118572  118563      68
  118584  118575      68  118596  118587      68  118608  118599      68  118620
  118611      68  118632  118623      68  118644  118635      68  118656  118647
      68  118668  118659      68  118680  118671      68  118692  118683      68
  118704  118695      68  118716  118707      68  118728  118719      68  118740
  118731      68  118752  118743      68  118764  118755      68  118776  118767
      68  118788  118779      68  118800  118791      68  118812  118803      68
  118824  118815      68  118836  118827      68  118848  118839      68  118860
  118851      68  118872  118863      68  118884  118875      68  118896  118887
      68  118908  118899      68  118920  118911      68  118932  118923      68
  118944  118935      68  118956  118947      68  118968  118959      68  118980
  118971      68  118992  118983      68  119004  118995      68  119016  119007
      68  119028  119019      68  119040  119031      68  119052  119043      68
  119064  119055      68  119076  119067      68  119088  119079      68  119100
  119091      68  119112  119103      68  119124  119115      68  119136  119127
      68  119148  119139      68  119160  119151      68  119172  119163      68
  119184  119175      68  119196  119187      68  119208  119199      68  119220
  119211      68  119232  119223      68  119244  119235      68  119256  119247
      68  119268  119259      68  119280  119271      68  119292  119283      68
  119304  119295      68  119316  119307      68  119328  119319      68  119340
  119331      68  119352  119343      68  119364  119355      68  119376  119367
      68  119388  119379      68  119400  119391      68  119412  119403      68
  119424  119415      68  119436  119427      68  119448  119439      68  119460
  119451      68  119472  119463      68  119484  119475      68  119496  119487
      68  119508  119499      68  119520  119511      68  119532  119523      68
  119544  119535      68  119556  119547      68  119568  119559      68  119580
  119571      68  119592  119583      68  119604  119595      68  119616  119607
      68  119628  119619      68  119640  119631      68  119652  119643      68
  119664  119655      68  119676  119667      68  119688  119679      68  119700
  119691      68  119712  119703      68  119724  119715      68  119736  119727
      68  119748  119739      68  119760  119751      68  119772  119763      68
  119784  119775      68  119796  119787      68  119808  119799      68  119820
  119811      68  119832  119823      68  119844  119835      68  119856  119847
      68  119868  119859      68  119880  119871      68  119892  119883      68
  119904  119895      68  119916  119907      68  119928  119919      68  119940
  119931      68  119952  119943      68  119964  119955      68  119976  119967
      68  119988  119979      68  120000  119991      68  120012  120003      68
  120024  120015      68  120036  120027      68  120048  120039      68  120060
  120051      68  120072  120063      68  120084  120075      68  120096  120087
      68  120108  120099      68  120120  120111      68  120132  120123      68
  120144  120135      68  120156  120147      68  120168  120159      68  120180
  120171      68  120192  120183      68  120204  120195      68  120216  120207
      68  120228  120219      68  120240  120231      68  120252  120243      68
  120264  120255      68  120276  120267      68  120288  120279      68  120300
  120291      68  120312  120303      68  120324  120315      68  120336  120327
      68  120348  120339      68  120360  120351      68  120372  120363      68
  120384  120375      68  120396  120387      68  120408  120399      68  120420
  120411      68  120432  120423      68  120444  120435      68  120456  120447
      68  120468  120459      68  120480  120471      68  120492  120483      68
  120504  120495      68  120516  120507      68  120528  120519      68  120540
  120531      68  120552  120543      68  120564  120555      68  120576  120567
      68  120588  120579      68  120600  120591      68  120612  120603      68
  120624  120615      68  120636  120627      68  120648  120639      68  120660
  120651      68  120672  120663      68  120684  120675      68  120696  120687
      68  120708  120699      68  120720  120711      68  120732  120723      68
  120744  120735      68  120756  120747      68  120768  120759      68  120780
  120771      68  120792  120783      68  120804  120795      68  120816  120807
      68  120828  120819      68  120840  120831      68  120852  120843      68
  120864  120855      68  120876  120867      68  120888  120879      68  120900
  120891      68  120912  120903      68  120924  120915      68  120936  120927
      68  120948  120939      68  120960  120951      68  120972  120963      68
  120984  120975      68  120996  120987      68  121008  120999      68  121020
  121011      68  121032  121023      68  121044  121035      68  121056  121047
      68  121068  121059      68  121080  121071      68  121092  121083      68
  121104  121095      68  121116  121107      68  121128  121119      68  121140
  121131      68  121152  121143      68  121164  121155      68  121176  121167
      68  121188  121179      68  121200  121191      68  121212  121203      68
  121224  121215      68  121236  121227      68  121248  121239      68  121260
  121251      68  121272  121263      68  121284  121275      68  121296  121287
      68  121308  121299      68  121320  121311      68  121332  121323      68
  121344  121335      68  121356  121347      68  121368  121359      68  121380
  121371      68  121392  121383      68  121404  121395      68  121416  121407
      68  121428  121419      68  121440  121431      68  121452  121443      68
  121464  121455      68  121476  121467      68  121488  121479      68  121500
  121491      68  121512  121503      68  121524  121515      68  121536  121527
      68  121548  121539      68  121560  121551      68  121572  121563      68
  121584  121575      68  121596  121587      68  121608  121599      68  121620
  121611      68  121632  121623      68  121644  121635      68  121656  121647
      68  121668  121659      68  121680  121671      68  121692  121683      68
  121704  121695      68  121716  121707      68  121728  121719      68  121740
  121731      68  121752  121743      68  121764  121755      68  121776  121767
      68  121788  121779      68  121800  121791      68  121812  121803      68
  121824  121815      68  121836  121827      68  121848  121839      68  121860
  121851      68  121872  121863      68  121884  121875      68  121896  121887
      68  121908  121899      68  121920  121911      68  121932  121923      68
  121944  121935      68  121956  121947      68  121968  121959      68  121980
  121971      68  121992  121983      68  122004  121995      68  122016  122007
      68  122028  122019      68  122040  122031      68  122052  122043      68
  122064  122055      68  122076  122067      68  122088  122079      68  122100
  122091      68  122112  122103      68  122124  122115      68  122136  122127
      68  122148  122139      68  122160  122151      68  122172  122163      68
  122184  122175      68  122196  122187      68  122208  122199      68  122220
  122211      68  122232  122223      68  122244  122235      68  122256  122247
      68  122268  122259      68  122280  122271      68  122292  122283      68
  122304  122295      68  122316  122307      68  122328  122319      68  122340
  122331      68  122352  122343      68  122364  122355      68  122376  122367
      68  122388  122379      68  122400  122391      68  122412  122403      68
  122424  122415      68  122436  122427      68  122448  122439      68  122460
  122451      68  122472  122463      68  122484  122475      68  122496  122487
      68  122508  122499      68  122520  122511      68  122532  122523      68
  122544  122535      68  122556  122547      68  122568  122559      68  122580
  122571      68  122592  122583      68  122604  122595      68  122616  122607
      68  122628  122619      68  122640  122631      68  122652  122643      68
  122664  122655      68  122676  122667      68  122688  122679      68  122700
  122691      68  122712  122703      68  122724  122715      68  122736  122727
      68  122748  122739      68  122760  122751      68  122772  122763      68
  122784  122775      68  122796  122787      68  122808  122799      68  122820
  122811      68  122832  122823      68  122844  122835      68  122856  122847
      68  122868  122859      68  122880  122871      68  122892  122883      68
  122904  122895      68  122916  122907      68  122928  122919      68  122940
  122931      68  122952  122943      68  122964  122955      68  122976  122967
      68  122988  122979      68  123000  122991      68  123012  123003      68
  123024  123015      68  123036  123027      68  123048  123039      68  123060
  123051      68  123072  123063      68  123084  123075      68  123096  123087
      68  123108  123099      68  123120  123111      68  123132  123123      68
  123144  123135      68  123156  123147      68  123168  123159      68  123180
  123171      68  123192  123183      68  123204  123195      68  123216  123207
      68  123228  123219      68  123240  123231      68  123252  123243      68
  123264  123255      68  123276  123267      68  123288  123279      68  123300
  123291      68  123312  123303      68  123324  123315      68  123336  123327
      68  123348  123339      68  123360  123351      68  123372  123363      68
  123384  123375      68  123396  123387      68  123408  123399      68  123420
  123411      68  123432  123423      68  123444  123435      68  123456  123447
      68  123468  123459      68  123480  123471      68  123492  123483      68
  123504  123495      68  123516  123507      68  123528  123519      68  123540
  123531      68  123552  123543      68  123564  123555      68  123576  123567
      68  123588  123579      68  123600  123591      68  123612  123603      68
  123624  123615      68  123636  123627      68  123648  123639      68  123660
  123651      68  123672  123663      68  123684  123675      68  123696  123687
      68  123708  123699      68  123720  123711      68  123732  123723      68
  123744  123735      68  123756  123747      68  123768  123759      68  123780
  123771      68  123792  123783      68  123804  123795      68  123816  123807
      68  123828  123819      68  123840  123831      68  123852  123843      68
  123864  123855      68  123876  123867      68  123888  123879      68  123900
  123891      68  123912  123903      68  123924  123915      68  123936  123927
      68  123948  123939      68  123960  123951      68  123972  123963      68
  123984  123975      68  123996  123987      68  124008  123999      68  124020
  124011      68  124032  124023      68  124044  124035      68  124056  124047
      68  124068  124059      68  124080  124071      68  124092  124083      68
  124104  124095      68  124116  124107      68  124128  124119      68  124140
  124131      68  124152  124143      68  124164  124155      68  124176  124167
      68  124188  124179      68  124200  124191      68  124212  124203      68
  124224  124215      68  124236  124227      68  124248  124239      68  124260
  124251      68  124272  124263      68  124284  124275      68  124296  124287
      68  124308  124299      68  124320  124311      68  124332  124323      68
  124344  124335      68  124356  124347      68  124368  124359      68  124380
  124371      68  124392  124383      68  124404  124395      68  124416  124407
      68  124428  124419      68  124440  124431      68  124452  124443      68
  124464  124455      68  124476  124467      68  124488  124479      68  124500
  124491      68  124512  124503      68  124524  124515      68  124536  124527
      68  124548  124539      68  124560  124551      68  124572  124563      68
  124584  124575      68  124596  124587      68  124608  124599      68  124620
  124611      68  124632  124623      68  124644  124635      68  124656  124647
      68  124668  124659      68  124680  124671      68  124692  124683      68
  124704  124695      68  124716  124707      68  124728  124719      68  124740
  124731      68  124752  124743      68  124764  124755      68  124776  124767
      68  124788  124779      68  124800  124791      68  124812  124803      68
  124824  124815      68  124836  124827      68  124848  124839      68  124860
  124851      68  124872  124863      68  124884  124875      68  124896  124887
      68  124908  124899      68  124920  124911      68  124932  124923      68
  124944  124935      68  124956  124947      68  124968  124959      68  124980
  124971      68  124992  124983      68  125004  124995      68  125016  125007
      68  125028  125019      68  125040  125031      68  125052  125043      68
  125064  125055      68  125076  125067      68  125088  125079      68  125100
  125091      68  125112  125103      68  125124  125115      68  125136  125127
      68  125148  125139      68  125160  125151      68  125172  125163      68
  125184  125175      68  125196  125187      68  125208  125199      68  125220
  125211      68  125232  125223      68  125244  125235      68  125256  125247
      68  125268  125259      68  125280  125271      68  125292  125283      68
  125304  125295      68  125316  125307      68  125328  125319      68  125340
  125331      68  125352  125343      68  125364  125355      68  125376  125367
      68  125388  125379      68  125400  125391      68  125412  125403      68
  125424  125415      68  125436  125427      68  125448  125439      68  125460
  125451      68  125472  125463      68  125484  125475      68  125496  125487
      68  125508  125499      68  125520  125511      68  125532  125523      68
  125544  125535      68  125556  125547      68  125568  125559      68  125580
  125571      68  125592  125583      68  125604  125595      68  125616  125607
      68  125628  125619      68  125640  125631      68  125652  125643      68
  125664  125655      68  125676  125667      68  125688  125679      68  125700
  125691      68  125712  125703      68  125724  125715      68  125736  125727
      68  125748  125739      68  125760  125751      68  125772  125763      68
  125784  125775      68  125796  125787      68  125808  125799      68  125820
  125811      68  125832  125823      68  125844  125835      68  125856  125847
      68  125868  125859      68  125880  125871      68  125892  125883      68
  125904  125895      68  125916  125907      68  125928  125919      68  125940
  125931      68  125952  125943      68  125964  125955      68  125976  125967
      68  125988  125979      68  126000  125991      68  126012  126003      68
  126024  126015      68  126036  126027      68  126048  126039      68  126060
  126051      68  126072  126063      68  126084  126075      68  126096  126087
      68  126108  126099      68  126120  126111      68  126132  126123      68
  126144  126135      68  126156  126147      68  126168  126159      68  126180
  126171      68  126192  126183      68  126204  126195      68  126216  126207
      68  126228  126219      68  126240  126231      68  126252  126243      68
  126264  126255      68  126276  126267      68  126288  126279      68  126300
  126291      68  126312  126303      68  126324  126315      68  126336  126327
      68  126348  126339      68  126360  126351      68  126372  126363      68
  126384  126375      68  126396  126387      68  126408  126399      68  126420
  126411      68  126432  126423      68  126444  126435      68  126456  126447
      68  126468  126459      68  126480  126471      68  126492  126483      68
  126504  126495      68  126516  126507      68  126528  126519      68  126540
  126531      68  126552  126543      68  126564  126555      68  126576  126567
      68  126588  126579      68  126600  126591      68  126612  126603      68
  126624  126615      68  126636  126627      68  126648  126639      68  126660
  126651      68  126672  126663      68  126684  126675      68  126696  126687
      68  126708  126699      68  126720  126711      68  126732  126723      68
  126744  126735      68  126756  126747      68  126768  126759      68  126780
  126771      68  126792  126783      68  126804  126795      68  126816  126807
      68  126828  126819      68  126840  126831      68  126852  126843      68
  126864  126855      68  126876  126867      68  126888  126879      68  126900
  126891      68  126912  126903      68  126924  126915      68  126936  126927
      68  126948  126939      68  126960  126951      68  126972  126963      68
  126984  126975      68  126996  126987      68  127008  126999      68  127020
  127011      68  127032  127023      68  127044  127035      68  127056  127047
      68  127068  127059      68  127080  127071      68  127092  127083      68
  127104  127095      68  127116  127107      68  127128  127119      68  127140
  127131      68  127152  127143      68  127164  127155      68  127176  127167
      68  127188  127179      68  127200  127191      68  127212  127203      68
  127224  127215      68  127236  127227      68  127248  127239      68  127260
  127251      68  127272  127263      68  127284  127275      68  127296  127287
      68  127308  127299      68  127320  127311      68  127332  127323      68
  127344  127335      68  127356  127347      68  127368  127359      68  127380
  127371      68  127392  127383      68  127404  127395      68  127416  127407
      68  127428  127419      68  127440  127431      68  127452  127443      68
  127464  127455      68  127476  127467      68  127488  127479      68  127500
  127491      68  127512  127503      68  127524  127515      68  127536  127527
      68  127548  127539      68  127560  127551      68  127572  127563      68
  127584  127575      68  127596  127587      68  127608  127599      68  127620
  127611      68  127632  127623      68  127644  127635      68  127656  127647
      68  127668  127659      68  127680  127671      68  127692  127683      68
  127704  127695      68  127716  127707      68  127728  127719      68  127740
  127731      68  127752  127743      68  127764  127755      68  127776  127767
      68  127788  127779      68  127800  127791      68  127812  127803      68
  127824  127815      68  127836  127827      68  127848  127839      68  127860
  127851      68  127872  127863      68  127884  127875      68  127896  127887
      68  127908  127899      68  127920  127911      68  127932  127923      68
  127944  127935      68  127956  127947      68  127968  127959      68  127980
  127971      68  127992  127983      68  128004  127995      68  128016  128007
      68  128028  128019      68  128040  128031      68  128052  128043      68
  128064  128055      68  128076  128067      68  128088  128079      68  128100
  128091      68  128112  128103      68  128124  128115      68  128136  128127
      68  128148  128139      68  128160  128151      68  128172  128163      68
  128184  128175      68  128196  128187      68  128208  128199      68  128220
  128211      68  128232  128223      68  128244  128235      68  128256  128247
      68  128268  128259      68  128280  128271      68  128292  128283      68
  128304  128295      68  128316  128307      68  128328  128319      68  128340
  128331      68  128352  128343      68  128364  128355      68  128376  128367
      68  128388  128379      68  128400  128391      68  128412  128403      68
  128424  128415      68  128436  128427      68  128448  128439      68  128460
  128451      68  128472  128463      68  128484  128475      68  128496  128487
      68  128508  128499      68  128520  128511      68  128532  128523      68
  128544  128535      68  128556  128547      68  128568  128559      68  128580
  128571      68  128592  128583      68  128604  128595      68  128616  128607
      68  128628  128619      68  128640  128631      68  128652  128643      68
  128664  128655      68  128676  128667      68  128688  128679      68  128700
  128691      68  128712  128703      68  128724  128715      68  128736  128727
      68  128748  128739      68  128760  128751      68  128772  128763      68
  128784  128775      68  128796  128787      68  128808  128799      68  128820
  128811      68  128832  128823      68  128844  128835      68  128856  128847
      68  128868  128859      68  128880  128871      68  128892  128883      68
  128904  128895      68  128916  128907      68  128928  128919      68  128940
  128931      68  128952  128943      68  128964  128955      68  128976  128967
      68  128988  128979      68  129000  128991      68  129012  129003      68
  129024  129015      68  129036  129027      68  129048  129039      68  129060
  129051      68  129072  129063      68  129084  129075      68  129096  129087
      68  129108  129099      68  129120  129111      68  129132  129123      68
  129144  129135      68  129156  129147      68  129168  129159      68  129180
  129171      68  129192  129183      68  129204  129195      68  129216  129207
      68  129228  129219      68  129240  129231      68  129252  129243      68
  129264  129255      68  129276  129267      68  129288  129279      68  129300
  129291      68  129312  129303      68  129324  129315      68  129336  129327
      68  129348  129339      68  129360  129351      68  129372  129363      68
  129384  129375      68  129396  129387      68  129408  129399      68  129420
  129411      68  129432  129423      68  129444  129435      68  129456  129447
      68  129468  129459      68  129480  129471      68  129492  129483      68
  129504  129495      68  129516  129507      68  129528  129519      68  129540
  129531      68  129552  129543      68  129564  129555      68  129576  129567
      68  129588  129579      68  129600  129591      68  129612  129603      68
  129624  129615      68  129636  129627      68  129648  129639      68  129660
  129651      68  129672  129663      68  129684  129675      68  129696  129687
      68  129708  129699      68  129720  129711      68  129732  129723      68
  129744  129735      68  129756  129747      68  129768  129759      68  129780
  129771      68  129792  129783      68  129804  129795      68  129816  129807
      68  129828  129819      68  129840  129831      68  129852  129843      68
  129864  129855      68  129876  129867      68  129888  129879      68  129900
  129891      68  129912  129903      68  129924  129915      68  129936  129927
      68  129948  129939      68  129960  129951      68  129972  129963      68
  129984  129975      68  129996  129987      68  130008  129999      68  130020
  130011      68  130032  130023      68  130044  130035      68  130056  130047
      68  130068  130059      68  130080  130071      68  130092  130083      68
  130104  130095      68  130116  130107      68  130128  130119      68  130140
  130131      68  130152  130143      68  130164  130155      68  130176  130167
      68  130188  130179      68  130200  130191      68  130212  130203      68
  130224  130215      68  130236  130227      68  130248  130239      68  130260
  130251      68  130272  130263      68  130284  130275      68  130296  130287
      68  130308  130299      68  130320  130311      68  130332  130323      68
  130344  130335      68  130356  130347      68  130368  130359      68  130380
  130371      68  130392  130383      68  130404  130395      68  130416  130407
      68  130428  130419      68  130440  130431      68  130452  130443      68
  130464  130455      68  130476  130467      68  130488  130479      68  130500
  130491      68  130512  130503      68  130524  130515      68  130536  130527
      68  130548  130539      68  130560  130551      68  130572  130563      68
  130584  130575      68  130596  130587      68  130608  130599      68  130620
  130611      68  130632  130623      68  130644  130635      68  130656  130647
      68  130668  130659      68  130680  130671      68  130692  130683      68
  130704  130695      68  130716  130707      68  130728  130719      68  130740
  130731      68  130752  130743      68  130764  130755      68  130776  130767
      68  130788  130779      68  130800  130791      68  130812  130803      68
  130824  130815      68  130836  130827      68  130848  130839      68  130860
  130851      68  130872  130863      68  130884  130875      68  130896  130887
      68  130908  130899      68  130920  130911      68  130932  130923      68
  130944  130935      68  130956  130947      68  130968  130959      68  130980
  130971      68  130992  130983      68  131004  130995      68  131016  131007
      68  131028  131019      68  131040  131031      68  131052  131043      68
  131064  131055      68  131076  131067      68  131088  131079      68  131100
  131091      68  131112  131103      68  131124  131115      68  131136  131127
      68  131148  131139      68  131160  131151      68  131172  131163      68
  131184  131175      68  131196  131187      68  131208  131199      68  131220
  131211      68  131232  131223      68  131244  131235      68  131256  131247
      68  131268  131259      68  131280  131271      68  131292  131283      68
  131304  131295      68  131316  131307      68  131328  131319      68  131340
  131331      68  131352  131343      68  131364  131355      68  131376  131367
      68  131388  131379      68  131400  131391      68  131412  131403      68
  131424  131415      68  131436  131427      68  131448  131439      68  131460
  131451      68  131472  131463      68  131484  131475      68  131496  131487
      68  131508  131499      68  131520  131511      68  131532  131523      68
  131544  131535      68  131556  131547      68  131568  131559      68  131580
  131571      68  131592  131583      68  131604  131595      68  131616  131607
      68  131628  131619      68  131640  131631      68  131652  131643      68
  131664  131655      68  131676  131667      68  131688  131679      68  131700
  131691      68  131712  131703      68  131724  131715      68  131736  131727
      68  131748  131739      68  131760  131751      68  131772  131763      68
  131784  131775      68  131796  131787      68  131808  131799      68  131820
  131811      68  131832  131823      68  131844  131835      68  131856  131847
      68  131868  131859      68  131880  131871      68  131892  131883      68
  131904  131895      68  131916  131907      68  131928  131919      68  131940
  131931      68  131952  131943      68  131964  131955      68  131976  131967
      68  131988  131979      68  132000  131991      68  132012  132003      68
  132024  132015      68  132036  132027      68  132048  132039      68  132060
  132051      68  132072  132063      68  132084  132075      68  132096  132087
      68  132108  132099      68  132120  132111      68  132132  132123      68
  132144  132135      68  132156  132147      68  132168  132159      68  132180
  132171      68  132192  132183      68  132204  132195      68  132216  132207
      68  132228  132219      68  132240  132231      68  132252  132243      68
  132264  132255      68  132276  132267      68  132288  132279      68  132300
  132291      68  132312  132303      68  132324  132315      68  132336  132327
      68  132348  132339      68  132360  132351      68  132372  132363      68
  132384  132375      68  132396  132387      68  132408  132399      68  132420
  132411      68  132432  132423      68  132444  132435      68  132456  132447
      68  132468  132459      68  132480  132471      68  132492  132483      68
  132504  132495      68  132516  132507      68  132528  132519      68  132540
  132531      68  132552  132543      68  132564  132555      68  132576  132567
      68  132588  132579      68  132600  132591      68  132612  132603      68
  132624  132615      68  132636  132627      68  132648  132639      68  132660
  132651      68  132672  132663      68  132684  132675      68  132696  132687
      68  132708  132699      68  132720  132711      68  132732  132723      68
  132744  132735      68  132756  132747      68  132768  132759      68  132780
  132771      68  132792  132783      68  132804  132795      68  132816  132807
      68  132828  132819      68  132840  132831      68  132852  132843      68
  132864  132855      68  132876  132867      68  132888  132879      68  132900
  132891      68  132912  132903      68  132924  132915      68  132936  132927
      68  132948  132939      68  132960  132951      68  132972  132963      68
  132984  132975      68  132996  132987      68  133008  132999      68  133020
  133011      68  133032  133023      68  133044  133035      68  133056  133047
      68  133068  133059      68  133080  133071      68  133092  133083      68
  133104  133095      68  133116  133107      68  133128  133119      68  133140
  133131      68  133152  133143      68  133164  133155      68  133176  133167
      68  133188  133179      68  133200  133191      68  133212  133203      68
  133224  133215      68  133236  133227      68  133248  133239      68  133260
  133251      68  133272  133263      68  133284  133275      68  133296  133287
      68  133308  133299      68  133320  133311      68  133332  133323      68
  133344  133335      68  133356  133347      68  133368  133359      68  133380
  133371      68  133392  133383      68  133404  133395      68  133416  133407
      68  133428  133419      68  133440  133431      68  133452  133443      68
  133464  133455      68  133476  133467      68  133488  133479      68  133500
  133491      68  133512  133503      68  133524  133515      68  133536  133527
      68  133548  133539      68  133560  133551      68  133572  133563      68
  133584  133575      68  133596  133587      68  133608  133599      68  133620
  133611      68  133632  133623      68  133644  133635      68  133656  133647
      68  133668  133659      68  133680  133671      68  133692  133683      68
  133704  133695      68  133716  133707      68  133728  133719      68  133740
  133731      68  133752  133743      68  133764  133755      68  133776  133767
      68  133788  133779      68  133800  133791      68  133812  133803      68
  133824  133815      68  133836  133827      68  133848  133839      68  133860
  133851      68  133872  133863      68  133884  133875      68  133896  133887
      68  133908  133899      68  133920  133911      68  133932  133923      68
  133944  133935      68  133956  133947      68  133968  133959      68  133980
  133971      68  133992  133983      68  134004  133995      68  134016  134007
      68  134028  134019      68  134040  134031      68  134052  134043      68
  134064  134055      68  134076  134067      68  134088  134079      68  134100
  134091      68  134112  134103      68  134124  134115      68  134136  134127
      68  134148  134139      68  134160  134151      68  134172  134163      68
  134184  134175      68  134196  134187      68  134208  134199      68  134220
  134211      68  134232  134223      68  134244  134235      68  134256  134247
      68  134268  134259      68  134280  134271      68  134292  134283      68
  134304  134295      68  134316  134307      68  134328  134319      68  134340
  134331      68  134352  134343      68  134364  134355      68  134376  134367
      68  134388  134379      68  134400  134391      68  134412  134403      68
  134424  134415      68  134436  134427      68  134448  134439      68  134460
  134451      68  134472  134463      68  134484  134475      68  134496  134487
      68  134508  134499      68  134520  134511      68  134532  134523      68
  134544  134535      68  134556  134547      68  134568  134559      68  134580
  134571      68  134592  134583      68  134604  134595      68  134616  134607
      68  134628  134619      68  134640  134631      68  134652  134643      68
  134664  134655      68  134676  134667      68  134688  134679      68  134700
  134691      68  134712  134703      68  134724  134715      68  134736  134727
      68  134748  134739      68  134760  134751      68  134772  134763      68
  134784  134775      68  134796  134787      68  134808  134799      68  134820
  134811      68  134832  134823      68  134844  134835      68  134856  134847
      68  134868  134859      68  134880  134871      68  134892  134883      68
  134904  134895      68  134916  134907      68  134928  134919      68  134940
  134931      68  134952  134943      68  134964  134955      68  134976  134967
      68  134988  134979      68  135000  134991      68  135012  135003      68
  135024  135015      68  135036  135027      68  135048  135039      68  135060
  135051      68  135072  135063      68  135084  135075      68  135096  135087
      68  135108  135099      68  135120  135111      68  135132  135123      68
  135144  135135      68  135156  135147      68  135168  135159      68  135180
  135171      68  135192  135183      68  135204  135195      68  135216  135207
      68  135228  135219      68  135240  135231      68  135252  135243      68
  135264  135255      68  135276  135267      68  135288  135279      68  135300
  135291      68  135312  135303      68  135324  135315      68  135336  135327
      68  135348  135339      68  135360  135351      68  135372  135363      68
  135384  135375      68  135396  135387      68  135408  135399      68  135420
  135411      68  135432  135423      68  135444  135435      68  135456  135447
      68  135468  135459      68  135480  135471      68  135492  135483      68
  135504  135495      68  135516  135507      68  135528  135519      68  135540
  135531      68  135552  135543      68  135564  135555      68  135576  135567
      68  135588  135579      68  135600  135591      68  135612  135603      68
  135624  135615      68  135636  135627      68  135648  135639      68  135660
  135651      68  135672  135663      68  135684  135675      68  135696  135687
      68  135708  135699      68  135720  135711      68  135732  135723      68
  135744  135735      68  135756  135747      68  135768  135759      68  135780
  135771      68  135792  135783      68  135804  135795      68  135816  135807
      68  135828  135819      68  135840  135831      68  135852  135843      68
  135864  135855      68  135876  135867      68  135888  135879      68  135900
  135891      68  135912  135903      68  135924  135915      68  135936  135927
      68  135948  135939      68  135960  135951      68  135972  135963      68
  135984  135975      68  135996  135987      68  136008  135999      68  136020
  136011      68  136032  136023      68  136044  136035      68  136056  136047
      68  136068  136059      68  136080  136071      68  136092  136083      68
  136104  136095      68  136116  136107      68  136128  136119      68  136140
  136131      68  136152  136143      68  136164  136155      68  136176  136167
      68  136188  136179      68  136200  136191      68  136212  136203      68
  136224  136215      68  136236  136227      68  136248  136239      68  136260
  136251      68  136272  136263      68  136284  136275      68  136296  136287
      68  136308  136299      68  136320  136311      68  136332  136323      68
  136344  136335      68  136356  136347      68  136368  136359      68  136380
  136371      68  136392  136383      68  136404  136395      68  136416  136407
      68  136428  136419      68  136440  136431      68  136452  136443      68
  136464  136455      68  136476  136467      68  136488  136479      68  136500
  136491      68  136512  136503      68  136524  136515      68  136536  136527
      68  136548  136539      68  136560  136551      68  136572  136563      68
  136584  136575      68  136596  136587      68  136608  136599      68  136620
  136611      68  136632  136623      68  136644  136635      68  136656  136647
      68  136668  136659      68  136680  136671      68  136692  136683      68
  136704  136695      68  136716  136707      68  136728  136719      68  136740
  136731      68  136752  136743      68  136764  136755      68  136776  136767
      68  136788  136779      68  136800  136791      68  136812  136803      68
  136824  136815      68  136836  136827      68  136848  136839      68  136860
  136851      68  136872  136863      68  136884  136875      68  136896  136887
      68  136908  136899      68  136920  136911      68  136932  136923      68
  136944  136935      68  136956  136947      68  136968  136959      68  136980
  136971      68  136992  136983      68  137004  136995      68  137016  137007
      68  137028  137019      68  137040  137031      68  137052  137043      68
  137064  137055      68  137076  137067      68  137088  137079      68  137100
  137091      68  137112  137103      68  137124  137115      68  137136  137127
      68  137148  137139      68  137160  137151      68  137172  137163      68
  137184  137175      68  137196  137187      68  137208  137199      68  137220
  137211      68  137232  137223      68  137244  137235      68  137256  137247
      68  137268  137259      68  137280  137271      68  137292  137283      68
  137304  137295      68  137316  137307      68  137328  137319      68  137340
  137331      68  137352  137343      68  137364  137355      68  137376  137367
      68  137388  137379      68  137400  137391      68  137412  137403      68
  137424  137415      68  137436  137427      68  137448  137439      68  137460
  137451      68  137472  137463      68  137484  137475      68  137496  137487
      68  137508  137499      68  137520  137511      68  137532  137523      68
  137544  137535      68  137556  137547      68  137568  137559      68  137580
  137571      68  137592  137583      68  137604  137595      68  137616  137607
      68  137628  137619      68  137640  137631      68  137652  137643      68
  137664  137655      68  137676  137667      68  137688  137679      68  137700
  137691      68  137712  137703      68  137724  137715      68  137736  137727
      68  137748  137739      68  137760  137751      68  137772  137763      68
  137784  137775      68  137796  137787      68  137808  137799      68  137820
  137811      68  137832  137823      68  137844  137835      68  137856  137847
      68  137868  137859      68  137880  137871      68  137892  137883      68
  137904  137895      68  137916  137907      68  137928  137919      68  137940
  137931      68  137952  137943      68  137964  137955      68  137976  137967
      68  137988  137979      68  138000  137991      68  138012  138003      68
  138024  138015      68  138036  138027      68  138048  138039      68  138060
  138051      68  138072  138063      68  138084  138075      68  138096  138087
      68  138108  138099      68  138120  138111      68  138132  138123      68
  138144  138135      68  138156  138147      68  138168  138159      68  138180
  138171      68  138192  138183      68  138204  138195      68  138216  138207
      68  138228  138219      68  138240  138231      68  138252  138243      68
  138264  138255      68  138276  138267      68  138288  138279      68  138300
  138291      68  138312  138303      68  138324  138315      68  138336  138327
      68  138348  138339      68  138360  138351      68  138372  138363      68
  138384  138375      68  138396  138387      68  138408  138399      68  138420
  138411      68  138432  138423      68  138444  138435      68  138456  138447
      68  138468  138459      68  138480  138471      68  138492  138483      68
  138504  138495      68  138516  138507      68  138528  138519      68  138540
  138531      68  138552  138543      68  138564  138555      68  138576  138567
      68  138588  138579      68  138600  138591      68  138612  138603      68
  138624  138615      68  138636  138627      68  138648  138639      68  138660
  138651      68  138672  138663      68  138684  138675      68  138696  138687
      68  138708  138699      68  138720  138711      68  138732  138723      68
  138744  138735      68  138756  138747      68  138768  138759      68  138780
  138771      68  138792  138783      68  138804  138795      68  138816  138807
      68  138828  138819      68  138840  138831      68  138852  138843      68
  138864  138855      68  138876  138867      68  138888  138879      68  138900
  138891      68  138912  138903      68  138924  138915      68  138936  138927
      68  138948  138939      68  138960  138951      68  138972  138963      68
  138984  138975      68  138996  138987      68  139008  138999      68  139020
  139011      68  139032  139023      68  139044  139035      68  139056  139047
      68  139068  139059      68  139080  139071      68  139092  139083      68
  139104  139095      68  139116  139107      68  139128  139119      68  139140
  139131      68  139152  139143      68  139164  139155      68  139176  139167
      68  139188  139179      68  139200  139191      68  139212  139203      68
  139224  139215      68  139236  139227      68  139248  139239      68  139260
  139251      68  139272  139263      68  139284  139275      68  139296  139287
      68  139308  139299      68  139320  139311      68  139332  139323      68
  139344  139335      68  139356  139347      68  139368  139359      68  139380
  139371      68  139392  139383      68  139404  139395      68  139416  139407
      68  139428  139419      68  139440  139431      68  139452  139443      68
  139464  139455      68  139476  139467      68  139488  139479      68  139500
  139491      68  139512  139503      68  139524  139515      68  139536  139527
      68  139548  139539      68  139560  139551      68  139572  139563      68
  139584  139575      68  139596  139587      68  139608  139599      68  139620
  139611      68  139632  139623      68  139644  139635      68  139656  139647
      68  139668  139659      68  139680  139671      68  139692  139683      68
  139704  139695      68  139716  139707      68  139728  139719      68  139740
  139731      68  139752  139743      68  139764  139755      68  139776  139767
      68  139788  139779      68  139800  139791      68  139812  139803      68
  139824  139815      68  139836  139827      68  139848  139839      68  139860
  139851      68  139872  139863      68  139884  139875      68  139896  139887
      68  139908  139899      68  139920  139911      68  139932  139923      68
  139944  139935      68  139956  139947      68  139968  139959      68  139980
  139971      68  139992  139983      68  140004  139995      68  140016  140007
      68  140028  140019      68  140040  140031      68  140052  140043      68
  140064  140055      68  140076  140067      68  140088  140079      68  140100
  140091      68  140112  140103      68  140124  140115      68  140136  140127
      68  140148  140139      68  140160  140151      68  140172  140163      68
  140184  140175      68  140196  140187      68  140208  140199      68  140220
  140211      68  140232  140223      68  140244  140235      68  140256  140247
      68  140268  140259      68  140280  140271      68  140292  140283      68
  140304  140295      68  140316  140307      68  140328  140319      68  140340
  140331      68  140352  140343      68  140364  140355      68  140376  140367
      68  140388  140379      68  140400  140391      68  140412  140403      68
  140424  140415      68  140436  140427      68  140448  140439      68  140460
  140451      68  140472  140463      68  140484  140475      68  140496  140487
      68  140508  140499      68  140520  140511      68  140532  140523      68
  140544  140535      68  140556  140547      68  140568  140559      68  140580
  140571      68  140592  140583      68  140604  140595      68  140616  140607
      68  140628  140619      68  140640  140631      68  140652  140643      68
  140664  140655      68  140676  140667      68  140688  140679      68  140700
  140691      68  140712  140703      68  140724  140715      68  140736  140727
      68  140748  140739      68  140760  140751      68  140772  140763      68
  140784  140775      68  140796  140787      68  140808  140799      68  140820
  140811      68  140832  140823      68  140844  140835      68  140856  140847
      68  140868  140859      68  140880  140871      68  140892  140883      68
  140904  140895      68  140916  140907      68  140928  140919      68  140940
  140931      68  140952  140943      68  140964  140955      68  140976  140967
      68  140988  140979      68  141000  140991      68  141012  141003      68
  141024  141015      68  141036  141027      68  141048  141039      68  141060
  141051      68  141072  141063      68  141084  141075      68  141096  141087
      68  141108  141099      68  141120  141111      68  141132  141123      68
  141144  141135      68  141156  141147      68  141168  141159      68  141180
  141171      68  141192  141183      68  141204  141195      68  141216  141207
      68  141228  141219      68  141240  141231      68  141252  141243      68
  141264  141255      68  141276  141267      68  141288  141279      68  141300
  141291      68  141312  141303      68  141324  141315      68  141336  141327
      68  141348  141339      68  141360  141351      68  141372  141363      68
  141384  141375      68  141396  141387      68  141408  141399      68  141420
  141411      68  141432  141423      68  141444  141435      68  141456  141447
      68  141468  141459      68  141480  141471      68  141492  141483      68
  141504  141495      68  141516  141507      68  141528  141519      68  141540
  141531      68  141552  141543      68  141564  141555      68  141576  141567
      68  141588  141579      68  141600  141591      68  141612  141603      68
  141624  141615      68  141636  141627      68  141648  141639      68  141660
  141651      68  141672  141663      68  141684  141675      68  141696  141687
      68  141708  141699      68  141720  141711      68  141732  141723      68
  141744  141735      68  141756  141747      68  141768  141759      68  141780
  141771      68  141792  141783      68  141804  141795      68  141816  141807
      68  141828  141819      68  141840  141831      68  141852  141843      68
  141864  141855      68  141876  141867      68  141888  141879      68  141900
  141891      68  141912  141903      68  141924  141915      68  141936  141927
      68  141948  141939      68  141960  141951      68  141972  141963      68
  141984  141975      68  141996  141987      68  142008  141999      68  142020
  142011      68  142032  142023      68  142044  142035      68  142056  142047
      68  142068  142059      68  142080  142071      68  142092  142083      68
  142104  142095      68  142116  142107      68  142128  142119      68  142140
  142131      68  142152  142143      68  142164  142155      68  142176  142167
      68  142188  142179      68  142200  142191      68  142212  142203      68
  142224  142215      68  142236  142227      68  142248  142239      68  142260
  142251      68  142272  142263      68  142284  142275      68  142296  142287
      68  142308  142299      68  142320  142311      68  142332  142323      68
  142344  142335      68  142356  142347      68  142368  142359      68  142380
  142371      68  142392  142383      68  142404  142395      68  142416  142407
      68  142428  142419      68  142440  142431      68  142452  142443      68
  142464  142455      68  142476  142467      68  142488  142479      68  142500
  142491      68  142512  142503      68  142524  142515      68  142536  142527
      68  142548  142539      68  142560  142551      68  142572  142563      68
  142584  142575      68  142596  142587      68  142608  142599      68  142620
  142611      68  142632  142623      68  142644  142635      68  142656  142647
      68  142668  142659      68  142680  142671      68  142692  142683      68
  142704  142695      68  142716  142707      68  142728  142719      68  142740
  142731      68  142752  142743      68  142764  142755      68  142776  142767
      68  142788  142779      68  142800  142791      68  142812  142803      68
  142824  142815      68  142836  142827      68  142848  142839      68  142860
  142851      68  142872  142863      68  142884  142875      68  142896  142887
      68  142908  142899      68  142920  142911      68  142932  142923      68
  142944  142935      68  142956  142947      68  142968  142959      68  142980
  142971      68  142992  142983      68  143004  142995      68  143016  143007
      68  143028  143019      68  143040  143031      68  143052  143043      68
  143064  143055      68  143076  143067      68  143088  143079      68  143100
  143091      68  143112  143103      68  143124  143115      68  143136  143127
      68  143148  143139      68  143160  143151      68  143172  143163      68
  143184  143175      68  143196  143187      68  143208  143199      68  143220
  143211      68  143232  143223      68  143244  143235      68  143256  143247
      68  143268  143259      68  143280  143271      68  143292  143283      68
  143304  143295      68  143316  143307      68  143328  143319      68  143340
  143331      68  143352  143343      68  143364  143355      68  143376  143367
      68  143388  143379      68  143400  143391      68  143412  143403      68
  143424  143415      68  143436  143427      68  143448  143439      68  143460
  143451      68  143472  143463      68  143484  143475      68  143496  143487
      68  143508  143499      68  143520  143511      68  143532  143523      68
  143544  143535      68  143556  143547      68  143568  143559      68  143580
  143571      68  143592  143583      68  143604  143595      68  143616  143607
      68  143628  143619      68  143640  143631      68  143652  143643      68
  143664  143655      68  143676  143667      68  143688  143679      68  143700
  143691      68  143712  143703      68  143724  143715      68  143736  143727
      68  143748  143739      68  143760  143751      68  143772  143763      68
  143784  143775      68  143796  143787      68  143808  143799      68  143820
  143811      68  143832  143823      68  143844  143835      68  143856  143847
      68  143868  143859      68  143880  143871      68  143892  143883      68
  143904  143895      68  143916  143907      68  143928  143919      68  143940
  143931      68  143952  143943      68  143964  143955      68  143976  143967
      68  143988  143979      68  144000  143991      68  144012  144003      68
  144024  144015      68  144036  144027      68  144048  144039      68  144060
  144051      68  144072  144063      68  144084  144075      68  144096  144087
      68  144108  144099      68  144120  144111      68  144132  144123      68
  144144  144135      68  144156  144147      68  144168  144159      68  144180
  144171      68  144192  144183      68  144204  144195      68  144216  144207
      68  144228  144219      68  144240  144231      68  144252  144243      68
  144264  144255      68  144276  144267      68  144288  144279      68  144300
  144291      68  144312  144303      68  144324  144315      68  144336  144327
      68  144348  144339      68  144360  144351      68  144372  144363      68
  144384  144375      68  144396  144387      68  144408  144399      68  144420
  144411      68  144432  144423      68  144444  144435      68  144456  144447
      68  144468  144459      68  144480  144471      68  144492  144483      68
  144504  144495      68  144516  144507      68  144528  144519      68  144540
  144531      68  144552  144543      68  144564  144555      68  144576  144567
      68  144588  144579      68  144600  144591      68  144612  144603      68
  144624  144615      68  144636  144627      68  144648  144639      68  144660
  144651      68  144672  144663      68  144684  144675      68  144696  144687
      68  144708  144699      68  144720  144711      68  144732  144723      68
  144744  144735      68  144756  144747      68  144768  144759      68  144780
  144771      68  144792  144783      68  144804  144795      68  144816  144807
      68  144828  144819      68  144840  144831      68  144852  144843      68
  144864  144855      68  144876  144867      68  144888  144879      68  144900
  144891      68  144912  144903      68  144924  144915      68  144936  144927
      68  144948  144939      68  144960  144951      68  144972  144963      68
  144984  144975      68  144996  144987      68  145008  144999      68  145020
  145011      68  145032  145023      68  145044  145035      68  145056  145047
      68  145068  145059      68  145080  145071      68  145092  145083      68
  145104  145095      68  145116  145107      68  145128  145119      68  145140
  145131      68  145152  145143      68  145164  145155      68  145176  145167
      68  145188  145179      68  145200  145191      68  145212  145203      68
  145224  145215      68  145236  145227      68  145248  145239      68  145260
  145251      68  145272  145263      68  145284  145275      68  145296  145287
      68  145308  145299      68  145320  145311      68  145332  145323      68
  145344  145335      68  145356  145347      68  145368  145359      68  145380
  145371      68  145392  145383      68  145404  145395      68  145416  145407
      68  145428  145419      68  145440  145431      68  145452  145443      68
  145464  145455      68  145476  145467      68  145488  145479      68  145500
  145491      68  145512  145503      68  145524  145515      68  145536  145527
      68  145548  145539      68  145560  145551      68  145572  145563      68
  145584  145575      68  145596  145587      68  145608  145599      68  145620
  145611      68  145632  145623      68  145644  145635      68  145656  145647
      68  145668  145659      68  145680  145671      68  145692  145683      68
  145704  145695      68  145716  145707      68  145728  145719      68  145740
  145731      68  145752  145743      68  145764  145755      68  145776  145767
      68  145788  145779      68  145800  145791      68  145812  145803      68
  145824  145815      68  145836  145827      68  145848  145839      68  145860
  145851      68  145872  145863      68  145884  145875      68  145896  145887
      68  145908  145899      68  145920  145911      68  145932  145923      68
  145944  145935      68  145956  145947      68  145968  145959      68  145980
  145971      68  145992  145983      68  146004  145995      68  146016  146007
      68  146028  146019      68  146040  146031      68  146052  146043      68
  146064  146055      68  146076  146067      68  146088  146079      68  146100
  146091      68  146112  146103      68  146124  146115      68  146136  146127
      68  146148  146139      68  146160  146151      68  146172  146163      68
  146184  146175      68  146196  146187      68  146208  146199      68  146220
  146211      68  146232  146223      68  146244  146235      68  146256  146247
      68  146268  146259      68  146280  146271      68  146292  146283      68
  146304  146295      68  146316  146307      68  146328  146319      68  146340
  146331      68  146352  146343      68  146364  146355      68  146376  146367
      68  146388  146379      68  146400  146391      68  146412  146403      68
  146424  146415      68  146436  146427      68  146448  146439      68  146460
  146451      68  146472  146463      68  146484  146475      68  146496  146487
      68  146508  146499      68  146520  146511      68  146532  146523      68
  146544  146535      68  146556  146547      68  146568  146559      68  146580
  146571      68  146592  146583      68  146604  146595      68  146616  146607
      68  146628  146619      68  146640  146631      68  146652  146643      68
  146664  146655      68  146676  146667      68  146688  146679      68  146700
  146691      68  146712  146703      68  146724  146715      68  146736  146727
      68  146748  146739      68  146760  146751      68  146772  146763      68
  146784  146775      68  146796  146787      68  146808  146799      68  146820
  146811      68  146832  146823      68  146844  146835      68  146856  146847
      68  146868  146859      68  146880  146871      68  146892  146883      68
  146904  146895      68  146916  146907      68  146928  146919      68  146940
  146931      68  146952  146943      68  146964  146955      68  146976  146967
      68  146988  146979      68  147000  146991      68  147012  147003      68
  147024  147015      68  147036  147027      68  147048  147039      68  147060
  147051      68  147072  147063      68  147084  147075      68  147096  147087
      68  147108  147099      68  147120  147111      68  147132  147123      68
  147144  147135      68  147156  147147      68  147168  147159      68  147180
  147171      68  147192  147183      68  147204  147195      68  147216  147207
      68  147228  147219      68  147240  147231      68  147252  147243      68
  147264  147255      68  147276  147267      68  147288  147279      68  147300
  147291      68  147312  147303      68  147324  147315      68  147336  147327
      68  147348  147339      68  147360  147351      68  147372  147363      68
  147384  147375      68  147396  147387      68  147408  147399      68  147420
  147411      68  147432  147423      68  147444  147435      68  147456  147447
      68  147468  147459      68  147480  147471      68  147492  147483      68
  147504  147495      68  147516  147507      68  147528  147519      68  147540
  147531      68  147552  147543      68  147564  147555      68  147576  147567
      68  147588  147579      68  147600  147591      68  147612  147603      68
  147624  147615      68  147636  147627      68  147648  147639      68  147660
  147651      68  147672  147663      68  147684  147675      68  147696  147687
      68  147708  147699      68  147720  147711      68  147732  147723      68
  147744  147735      68  147756  147747      68  147768  147759      68  147780
  147771      68  147792  147783      68  147804  147795      68  147816  147807
      68  147828  147819      68  147840  147831      68  147852  147843      68
  147864  147855      68  147876  147867      68  147888  147879      68  147900
  147891      68  147912  147903      68  147924  147915      68  147936  147927
      68  147948  147939      68  147960  147951      68  147972  147963      68
  147984  147975      68  147996  147987      68  148008  147999      68  148020
  148011      68  148032  148023      68  148044  148035      68  148056  148047
      68  148068  148059      68  148080  148071      68  148092  148083      68
  148104  148095      68  148116  148107      68  148128  148119      68  148140
  148131      68  148152  148143      68  148164  148155      68  148176  148167
      68  148188  148179      68  148200  148191      68  148212  148203      68
  148224  148215      68  148236  148227      68  148248  148239      68  148260
  148251      68  148272  148263      68  148284  148275      68  148296  148287
      68  148308  148299      68  148320  148311      68  148332  148323      68
  148344  148335      68  148356  148347      68  148368  148359      68  148380
  148371      68  148392  148383      68  148404  148395      68  148416  148407
      68  148428  148419      68  148440  148431      68  148452  148443      68
  148464  148455      68  148476  148467      68  148488  148479      68  148500
  148491      68  148512  148503      68  148524  148515      68  148536  148527
      68  148548  148539      68  148560  148551      68  148572  148563      68
  148584  148575      68  148596  148587      68  148608  148599      68  148620
  148611      68  148632  148623      68  148644  148635      68  148656  148647
      68  148668  148659      68  148680  148671      68  148692  148683      68
  148704  148695      68  148716  148707      68  148728  148719      68  148740
  148731      68  148752  148743      68  148764  148755      68  148776  148767
      68  148788  148779      68  148800  148791      68  148812  148803      68
  148824  148815      68  148836  148827      68  148848  148839      68  148860
  148851      68  148872  148863      68  148884  148875      68  148896  148887
      68  148908  148899      68  148920  148911      68  148932  148923      68
  148944  148935      68  148956  148947      68  148968  148959      68  148980
  148971      68  148992  148983      68  149004  148995      68  149016  149007
      68  149028  149019      68  149040  149031      68  149052  149043      68
  149064  149055      68  149076  149067      68  149088  149079      68  149100
  149091      68  149112  149103      68  149124  149115      68  149136  149127
      68  149148  149139      68  149160  149151      68  149172  149163      68
  149184  149175      68  149196  149187      68  149208  149199      68  149220
  149211      68  149232  149223      68  149244  149235      68  149256  149247
      68  149268  149259      68  149280  149271      68  149292  149283      68
  149304  149295      68  149316  149307      68  149328  149319      68  149340
  149331      68  149352  149343      68  149364  149355      68  149376  149367
      68  149388  149379      68  149400  149391      68  149412  149403      68
  149424  149415      68  149436  149427      68  149448  149439      68  149460
  149451      68  149472  149463      68  149484  149475      68  149496  149487
      68  149508  149499      68  149520  149511      68  149532  149523      68
  149544  149535      68  149556  149547      68  149568  149559      68  149580
  149571      68  149592  149583      68  149604  149595      68  149616  149607
      68  149628  149619      68  149640  149631      68  149652  149643      68
  149664  149655      68  149676  149667      68  149688  149679      68  149700
  149691      68  149712  149703      68  149724  149715      68  149736  149727
      68  149748  149739      68  149760  149751      68  149772  149763      68
  149784  149775      68  149796  149787      68  149808  149799      68  149820
  149811      68  149832  149823      68  149844  149835      68  149856  149847
      68  149868  149859      68  149880  149871      68  149892  149883      68
  149904  149895      68  149916  149907      68  149928  149919      68  149940
  149931      68  149952  149943      68  149964  149955      68  149976  149967
      68  149988  149979      68  150000  149991      68  150012  150003      68
  150024  150015      68  150036  150027      68  150048  150039      68  150060
  150051      68  150072  150063      68  150084  150075      68  150096  150087
      68  150108  150099      68  150120  150111      68  150132  150123      68
  150144  150135      68  150156  150147      68  150168  150159      68  150180
  150171      68  150192  150183      68  150204  150195      68  150216  150207
      68  150228  150219      68  150240  150231      68  150252  150243      68
  150264  150255      68  150276  150267      68  150288  150279      68  150300
  150291      68  150312  150303      68  150324  150315      68  150336  150327
      68  150348  150339      68  150360  150351      68  150372  150363      68
  150384  150375      68  150396  150387      68  150408  150399      68  150420
  150411      68  150432  150423      68  150444  150435      68  150456  150447
      68  150468  150459      68  150480  150471      68  150492  150483      68
  150504  150495      68  150516  150507      68  150528  150519      68  150540
  150531      68  150552  150543      68  150564  150555      68  150576  150567
      68  150588  150579      68  150600  150591      68  150612  150603      68
  150624  150615      68  150636  150627      68  150648  150639      68  150660
  150651      68  150672  150663      68  150684  150675      68  150696  150687
      68  150708  150699      68  150720  150711      68  150732  150723      68
  150744  150735      68  150756  150747      68  150768  150759      68  150780
  150771      68  150792  150783      68  150804  150795      68  150816  150807
      68  150828  150819      68  150840  150831      68  150852  150843      68
  150864  150855      68  150876  150867      68  150888  150879      68  150900
  150891      68  150912  150903      68  150924  150915      68  150936  150927
      68  150948  150939      68  150960  150951      68  150972  150963      68
  150984  150975      68  150996  150987      68  151008  150999      68  151020
  151011      68  151032  151023      68  151044  151035      68  151056  151047
      68  151068  151059      68  151080  151071      68  151092  151083      68
  151104  151095      68  151116  151107      68  151128  151119      68  151140
  151131      68  151152  151143      68  151164  151155      68  151176  151167
      68  151188  151179      68  151200  151191      68  151212  151203      68
  151224  151215      68  151236  151227      68  151248  151239      68  151260
  151251      68  151272  151263      68  151284  151275      68  151296  151287
      68  151308  151299      68  151320  151311      68  151332  151323      68
  151344  151335      68  151356  151347      68  151368  151359      68  151380
  151371      68  151392  151383      68  151404  151395      68  151416  151407
      68  151428  151419      68  151440  151431      68  151452  151443      68
  151464  151455      68  151476  151467      68  151488  151479      68  151500
  151491      68  151512  151503      68  151524  151515      68  151536  151527
      68  151548  151539      68  151560  151551      68  151572  151563      68
  151584  151575      68  151596  151587      68  151608  151599      68  151620
  151611      68  151632  151623      68  151644  151635      68  151656  151647
      68  151668  151659      68  151680  151671      68  151692  151683      68
  151704  151695      68  151716  151707      68  151728  151719      68  151740
  151731      68  151752  151743      68  151764  151755      68  151776  151767
      68  151788  151779      68  151800  151791      68  151812  151803      68
  151824  151815      68  151836  151827      68  151848  151839      68  151860
  151851      68  151872  151863      68  151884  151875      68  151896  151887
      68  151908  151899      68  151920  151911      68  151932  151923      68
  151944  151935      68  151956  151947      68  151968  151959      68  151980
  151971      68  151992  151983      68  152004  151995      68  152016  152007
      68  152028  152019      68  152040  152031      68  152052  152043      68
  152064  152055      68  152076  152067      68  152088  152079      68  152100
  152091      68  152112  152103      68  152124  152115      68  152136  152127
      68  152148  152139      68  152160  152151      68  152172  152163      68
  152184  152175      68  152196  152187      68  152208  152199      68  152220
  152211      68  152232  152223      68  152244  152235      68  152256  152247
      68  152268  152259      68  152280  152271      68  152292  152283      68
  152304  152295      68  152316  152307      68  152328  152319      68  152340
  152331      68  152352  152343      68  152364  152355      68  152376  152367
      68  152388  152379      68  152400  152391      68  152412  152403      68
  152424  152415      68  152436  152427      68  152448  152439      68  152460
  152451      68  152472  152463      68  152484  152475      68  152496  152487
      68  152508  152499      68  152520  152511      68  152532  152523      68
  152544  152535      68  152556  152547      68  152568  152559      68  152580
  152571      68  152592  152583      68  152604  152595      68  152616  152607
      68  152628  152619      68  152640  152631      68  152652  152643      68
  152664  152655      68  152676  152667      68  152688  152679      68  152700
  152691      68  152712  152703      68  152724  152715      68  152736  152727
      68  152748  152739      68  152760  152751      68  152772  152763      68
  152784  152775      68  152796  152787      68  152808  152799      68  152820
  152811      68  152832  152823      68  152844  152835      68  152856  152847
      68  152868  152859      68  152880  152871      68  152892  152883      68
  152904  152895      68  152916  152907      68  152928  152919      68  152940
  152931      68  152952  152943      68  152964  152955      68  152976  152967
      68  152988  152979      68  153000  152991      68  153012  153003      68
  153024  153015      68  153036  153027      68  153048  153039      68  153060
  153051      68  153072  153063      68  153084  153075      68  153096  153087
      68  153108  153099      68  153120  153111      68  153132  153123      68
  153144  153135      68  153156  153147      68  153168  153159      68  153180
  153171      68  153192  153183      68  153204  153195      68  153216  153207
      68  153228  153219      68  153240  153231      68  153252  153243      68
  153264  153255      68  153276  153267      68  153288  153279      68  153300
  153291      68  153312  153303      68  153324  153315      68  153336  153327
      68  153348  153339      68  153360  153351      68  153372  153363      68
  153384  153375      68  153396  153387      68  153408  153399      68  153420
  153411      68  153432  153423      68  153444  153435      68  153456  153447
      68  153468  153459      68  153480  153471      68  153492  153483      68
  153504  153495      68  153516  153507      68  153528  153519      68  153540
  153531      68  153552  153543      68  153564  153555      68  153576  153567
      68  153588  153579      68  153600  153591      68  153612  153603      68
  153624  153615      68  153636  153627      68  153648  153639      68  153660
  153651      68  153672  153663      68  153684  153675      68  153696  153687
      68  153708  153699      68  153720  153711      68  153732  153723      68
  153744  153735      68  153756  153747      68  153768  153759      68  153780
  153771      68  153792  153783      68  153804  153795      68  153816  153807
      68  153828  153819      68  153840  153831      68  153852  153843      68
  153864  153855      68  153876  153867      68  153888  153879      68  153900
  153891      68  153912  153903      68  153924  153915      68  153936  153927
      68  153948  153939      68  153960  153951      68  153972  153963      68
  153984  153975      68  153996  153987      68  154008  153999      68  154020
  154011      68  154032  154023      68  154044  154035      68  154056  154047
      68  154068  154059      68  154080  154071      68  154092  154083      68
  154104  154095      68  154116  154107      68  154128  154119      68  154140
  154131      68  154152  154143      68  154164  154155      68  154176  154167
      68  154188  154179      68  154200  154191      68  154212  154203      68
  154224  154215      68  154236  154227      68  154248  154239      68  154260
  154251      68  154272  154263      68  154284  154275      68  154296  154287
      68  154308  154299      68  154320  154311      68  154332  154323      68
  154344  154335      68  154356  154347      68  154368  154359      68  154380
  154371      68  154392  154383      68  154404  154395      68  154416  154407
      68  154428  154419      68  154440  154431      68  154452  154443      68
  154464  154455      68  154476  154467      68  154488  154479      68  154500
  154491      68  154512  154503      68  154524  154515      68  154536  154527
      68  154548  154539      68  154560  154551      68  154572  154563      68
  154584  154575      68  154596  154587      68  154608  154599      68  154620
  154611      68  154632  154623      68  154644  154635      68  154656  154647
      68  154668  154659      68  154680  154671      68  154692  154683      68
  154704  154695      68  154716  154707      68  154728  154719      68  154740
  154731      68  154752  154743      68  154764  154755      68  154776  154767
      68  154788  154779      68  154800  154791      68  154812  154803      68
  154824  154815      68  154836  154827      68  154848  154839      68  154860
  154851      68  154872  154863      68  154884  154875      68  154896  154887
      68  154908  154899      68  154920  154911      68  154932  154923      68
  154944  154935      68  154956  154947      68  154968  154959      68  154980
  154971      68  154992  154983      68  155004  154995      68  155016  155007
      68  155028  155019      68  155040  155031      68  155052  155043      68
  155064  155055      68  155076  155067      68  155088  155079      68  155100
  155091      68  155112  155103      68  155124  155115      68  155136  155127
      68  155148  155139      68  155160  155151      68  155172  155163      68
  155184  155175      68  155196  155187      68  155208  155199      68  155220
  155211      68  155232  155223      68  155244  155235      68  155256  155247
      68  155268  155259      68  155280  155271      68  155292  155283      68
  155304  155295      68
%FLAG ANGLES_INC_HYDROGEN                                                       
%FORMAT(10I8)                                                                   
      12      18      21       2       9       3      12       4       6       3
       9       5       6       3      12       4       0       3       6       5
       0       3       9       5       0       3      12       4      84      90
      93       2      78      75      81       8      72      69      75       9
      69      75      78       9      66      63      69       9      63      69
      72       9      60      57      63       9      57      63      66       9
      54      57      60      13      51      48      54      16      45      42
      48      19      42      48      51      21      39      42      45      23
      36      30      39      27      33      30      36       5      33      30
      39      27      27      24      30      31      27      24      84      32
      24      30      33      33      24      30      36      33      21      18
      24      37      18      24      27      38     132     138     141       2
     126     120     129       5     123     120     126       5     123     120
     129       5     114     108     117       5     111     108     114       5
     111     108     117       5     105     102     108      42     105     102
     120      42     102     108     111      44     102     108     114      44
     102     108     117      44     102     120     123      44     102     120
     126      44     102     120     129      44      99      96     102      45
      99      96     132      32      96     102     105      46      93      90
      96      37      90      96      99      38     174     180     183       2
     162     156     165       5     159     156     162       5     159     156
     165       5     153     150     156      50     153     150     168      51
     150     156     159      44     150     156     162      44     150     156
     165      44     150     168     171      52     147     144     150      45
     147     144     174      32     144     150     153      53     141     138
     144      37     138     144     147      38     225     231     234       2
     216     219     222      55     213     210     216      56     207     204
     210      58     204     210     213      60     201     204     207      62
     201     219     222      65     198     192     201      66     195     192
     198       5     195     192     201      66     189     186     192      31
     189     186     225      32     186     192     195      33     186     192
     198      33     183     180     186      37     180     186     189      38
     297     333     375       2     291     288     294      71     282     279
     285      71     276     279     282      73     276     279     285      73
     276     288     291      73     276     288     294      73     273     270
     276      73     267     261     270      74     264     261     267      75
     264     261     270      74     261     270     273      76     258     252
     261      78     255     252     258      79     255     252     261      78
     252     261     264      80     252     261     267      80     249     243
     252      78     246     243     249      79     246     243     252      78
     243     252     255      78     243     252     258      78     240     237
     243      84     240     237     297      32     237     243     246      85
     237     243     249      85     234     231     237      37     231     237
     240      38     372     330     501      88     369     330     372      89
     369     330     501      88     357     321     360      89     351     318
     354      89     345     315     348      89     339     312     342      89
     336     312     339      89     336     312     342      89     330     327
     366      90     330     501     522      88     330     501     525      88
     327     324     363      92     327     330     369      93     327     330
     372      93     324     321     357      93     324     321     360      93
     324     327     366      92     321     318     351      88     321     318
     354      88     321     324     363      90     318     315     345      88
     318     315     348      88     318     321     357      88     318     321
     360      88     315     318     351      88     315     318     354      88
     309     312     336      99     309     312     339      99     309     312
     342      99     309     315     345      99     309     315     348      99
     309     333     375     101     303     378     381       2     402     408
     411       2     396     390     399       5     393     390     396       5
     393     390     399       5     387     384     390      31     387     384
     402      32     384     390     393      33     384     390     396      33
     384     390     399      33     381     378     384      37     378     384
     387      38     423     429     432       2     420     414     423      32
     417     414     420     105     417     414     423      32     411     408
     414      37     408     414     417      38     408     414     420      38
     480     504     528       2     474     468     477       5     471     468
     474       5     471     468     477       5     462     456     465       5
     459     456     462       5     459     456     465       5     453     450
     456      42     453     450     468      42     450     456     459      44
     450     456     462      44     450     456     465      44     450     468
     471      44     450     468     474      44     450     468     477      44
     447     441     450     106     444     441     447     107     444     441
     450     106     441     450     453     109     438     435     441     111
     438     435     480      32     435     441     444     112     435     441
     447     112     432     429     435      37     429     435     438      38
     522     501     525      89     516     498     519      89     510     495
     513      89     507     495     510      89     507     495     513      89
     501     498     516      88     501     498     519      88     498     501
     522      88     498     501     525      88     492     495     507      99
     492     495     510      99     492     495     513      99     492     498
     516      99     492     498     519      99     492     504     528     101
     486     531     534       2     558     564     567       2     549     543
     552     115     546     543     549     116     546     543     552     115
     543     552     555     117     540     537     543     111     540     537
     558      32     537     543     546     118     537     543     549     118
     534     531     537      37     531     537     540      38     630     636
     639       2     624     621     627      71     615     612     618      71
     609     612     615      73     609     612     618      73     609     621
     624      73     609     621     627      73     606     603     609      73
     600     594     603      74     597     594     600      75     597     594
     603      74     594     603     606      76     591     585     594      78
     588     585     591      79     588     585     594      78     585     594
     597      80     585     594     600      80     582     576     585      78
     579     576     582      79     579     576     585      78     576     585
     588      78     576     585     591      78     573     570     576      84
     573     570     630      32     570     576     579      85     570     576
     582      85     567     564     570      37     564     570     573      38
     663     669     672       2     654     648     657     115     651     648
     654     116     651     648     657     115     648     657     660     117
     645     642     648     111     645     642     663      32     642     648
     651     118     642     648     654     118     639     636     642      37
     636     642     645      38     684     690     693       2     681     675
     684      32     678     675     681     105     678     675     684      32
     672     669     675      37     669     675     678      38     669     675
     681      38     705     711     714       2     702     696     705      32
     699     696     702     105     699     696     705      32     693     690
     696      37     690     696     699      38     690     696     702      38
     753     759     762       2     747     741     750       5     744     741
     747       5     744     741     750       5     735     729     738       5
     732     729     735       5     732     729     738       5     726     723
     729      42     726     723     741      42     723     729     732      44
     723     729     735      44     723     729     738      44     723     741
     744      44     723     741     747      44     723     741     750      44
     720     717     723      45     720     717     753      32     717     723
     726      46     714     711     717      37     711     717     720      38
     801     807     810       2     795     789     798       5     792     789
     795       5     792     789     798       5     783     777     786       5
     780     777     783       5     780     777     786       5     774     771
     777      42     774     771     789      42     771     777     780      44
     771     777     783      44     771     777     786      44     771     789
     792      44     771     789     795      44     771     789     798      44
     768     765     771      45     768     765     801      32     765     771
     774      46     762     759     765      37     759     765     768      38
     867     873     876       2     861     855     864     120     858     855
     861     120     858     855     864     120     852     846     855     121
     849     846     852     122     849     846     855     121     846     855
     858     123     846     855     861     123     846     855     864     123
     843     837     846      78     840     837     843      79     840     837
     846      78     837     846     849     124     837     846     852     124
     834     828     837      78     831     828     834      79     831     828
     837      78     828     837     840      78     828     837     843      78
     825     819     828      78     822     819     825      79     822     819
     828      78     819     828     831      78     819     828     834      78
     816     813     819      84     816     813     867      32     813     819
     822      85     813     819     825      85     810     807     813      37
     807     813     816      38     909     915     918       2     903     900
     906     126     894     900     903       2     894     900     906       2
     891     885     894     127     888     885     891     107     888     885
     894     127     882     879     885     111     882     879     909      32
     879     885     888     112     879     885     891     112     876     873
     879      37     873     879     882      38     951     957     960       2
     945     942     948     126     936     942     945       2     936     942
     948       2     933     927     936     127     930     927     933     107
     930     927     936     127     924     921     927     111     924     921
     951      32     921     927     930     112     921     927     933     112
     918     915     921      37     915     921     924      38    1011    1017
    1020       2    1002     999    1005       9     999    1005    1008       9
     996     993     999       9     993     999    1002       9     990     987
     993       9     987     993     996       9     984     981     987       9
     981     987     990       9     978     981     984       9     978    1005
    1008       9     975     969     978     131     972     969     975       5
     972     969     978     131     966     963     969      31     966     963
    1011      32     963     969     972      33     963     969     975      33
     960     957     963      37     957     963     966      38    1053    1047
    1056       5    1050    1047    1053       5    1050    1047    1056       5
    1041    1035    1044       5    1038    1035    1041       5    1038    1035
    1044       5    1032    1029    1035      42    1032    1029    1047      42
    1029    1035    1038      44    1029    1035    1041      44    1029    1035
    1044      44    1029    1047    1050      44    1029    1047    1053      44
    1029    1047    1056      44    1026    1023    1029      45    1026    1023
    1059      32    1023    1029    1032      46    1020    1017    1023      37
    1017    1023    1026      38    1101    1107    1110       2    1098    1095
    1101      32    1092    1086    1095      33    1089    1086    1092       5
    1089    1086    1095      33    1086    1095    1098      31    1083    1077
    1086     135    1080    1077    1083       5    1080    1077    1086     135
    1077    1086    1089     135    1077    1086    1092     135    1074    1068
    1077     137    1071    1068    1074     138    1071    1068    1077     137
    1068    1077    1080     135    1068    1077    1083     135    1065    1068
    1071     141    1065    1068    1074     141    1065    1095    1098      38
    1143    1149    1152       2    1131    1125    1134       5    1128    1125
    1131       5    1128    1125    1134       5    1122    1119    1125      50
    1122    1119    1137      51    1119    1125    1128      44    1119    1125
    1131      44    1119    1125    1134      44    1119    1137    1140      52
    1116    1113    1119      45    1116    1113    1143      32    1113    1119
    1122      53    1110    1107    1113      37    1107    1113    1116      38
    1179    1185    1188       2    1167    1161    1170     144    1164    1161
    1167     107    1164    1161    1170     144    1158    1155    1161     111
    1158    1155    1179      32    1155    1161    1164     112    1155    1161
    1167     112    1152    1149    1155      37    1149    1155    1158      38
    1227    1233    1236       2    1221    1215    1224       5    1218    1215
    1221       5    1218    1215    1224       5    1209    1203    1212       5
    1206    1203    1209       5    1206    1203    1212       5    1200    1197
    1203      42    1200    1197    1215      42    1197    1203    1206      44
    1197    1203    1209      44    1197    1203    1212      44    1197    1215
    1218      44    1197    1215    1221      44    1197    1215    1224      44
    1194    1191    1197      45    1194    1191    1227      32    1191    1197
    1200      46    1188    1185    1191      37    1185    1191    1194      38
    1245    1239    1248      32    1242    1239    1245     105    1242    1239
    1248      32    1236    1233    1239      37    1233    1239    1242      38
    1233    1239    1245      38    1290    1296    1299       2    1287    1284
    1290      32    1281    1275    1284      33    1278    1275    1281       5
    1278    1275    1284      33    1275    1284    1287      31    1272    1266
    1275     135    1269    1266    1272       5    1269    1266    1275     135
    1266    1275    1278     135    1266    1275    1281     135    1263    1257
    1266     137    1260    1257    1263     138    1260    1257    1266     137
    1257    1266    1269     135    1257    1266    1272     135    1254    1257
    1260     141    1254    1257    1263     141    1254    1284    1287      38
    1350    1356    1359       2    1341    1338    1344       9    1338    1344
    1347       9    1335    1332    1338       9    1332    1338    1341       9
    1329    1326    1332       9    1326    1332    1335       9    1323    1320
    1326       9    1320    1326    1329       9    1317    1320    1323       9
    1317    1344    1347       9    1314    1308    1317     131    1311    1308
    1314       5    1311    1308    1317     131    1305    1302    1308      31
    1305    1302    1350      32    1302    1308    1311      33    1302    1308
    1314      33    1299    1296    1302      37    1296    1302    1305      38
    1380    1386    1389       2    1374    1368    1377       5    1371    1368
    1374       5    1371    1368    1377       5    1365    1362    1368      31
    1365    1362    1380      32    1362    1368    1371      33    1362    1368
    1374      33    1362    1368    1377      33    1359    1356    1362      37
    1356    1362    1365      38    1440    1446    1449       2    1440    1446
    1452       2    1431    1428    1434       9    1428    1434    1437       9
    1425    1422    1428       9    1422    1428    1431       9    1419    1416
    1422       9    1416    1422    1425       9    1413    1410    1416       9
    1410    1416    1419       9    1407    1410    1413       9    1407    1434
    1437       9    1404    1398    1407     131    1401    1398    1404       5
    1401    1398    1407     131    1395    1392    1398      31    1395    1392
    1440      32    1392    1398    1401      33    1392    1398    1404      33
    1389    1386    1392      37    1386    1392    1395      38    1449    1446
    1452     126
%FLAG ANGLES_WITHOUT_HYDROGEN                                                   
%FORMAT(10I8)                                                                   
      15      12      18       1      12      18      24       3       3      12
      15       6       3      12      18       7      87      84      90       1
      84      90      96       3      69      75      81      10      63      69
      75      11      57      54      81      12      57      63      69      11
      54      57      63      14      54      81      75      15      48      54
      57      17      48      54      81      18      42      39      81      20
      42      48      54      22      39      42      48      24      39      81
      54      25      39      81      75      26      30      24      84      28
      30      39      42      29      30      39      81      30      24      30
      39      34      24      84      87      35      24      84      90      36
      18      24      30      39      18      24      84      40     135     132
     138       1     132     138     144       3     108     102     120      41
     102      96     132      43      96     102     108      47      96     102
     120      47      96     132     135      35      96     132     138      36
      90      96     102      48      90      96     132      40     177     174
     180       1     174     180     186       3     156     150     168      49
     150     144     174      43     144     150     156      47     144     150
     168      54     144     174     177      35     144     174     180      36
     138     144     150      48     138     144     174      40     228     225
     231       1     225     231     237       3     210     216     219      57
     204     201     219      59     204     210     216      61     201     204
     210      63     201     219     216      64     192     186     225      28
     192     201     204      67     192     201     219      68     186     192
     201      69     186     225     228      35     186     225     231      36
     180     186     192      39     180     186     225      40     300     297
     333       1     297     333     309      70     279     276     288      72
     270     276     279      72     270     276     288      72     261     270
     276      77     252     261     270      81     243     237     297      82
     243     252     261      83     237     243     252      86     237     297
     300      35     237     297     333      36     231     237     243      87
     231     237     297      40     330     501     498      91     327     330
     501      94     324     327     330      95     321     324     327      95
     318     321     324      94     315     309     333      96     315     318
     321      91     312     309     315      97     312     309     333      96
     309     303     378      98     309     315     318     100     306     303
     309     102     306     303     378       1     303     309     312     103
     303     309     315     103     303     309     333     104     303     378
     384       3     405     402     408       1     402     408     414       3
     390     384     402      28     384     402     405      35     384     402
     408      36     378     384     390      39     378     384     402      40
     426     423     429       1     423     429     435       3     414     423
     426      35     414     423     429      36     408     414     423      40
     483     480     504       1     480     504     492      70     456     450
     468      41     441     435     480     108     441     450     456     110
     441     450     468     110     435     441     450     113     435     480
     483      35     435     480     504      36     429     435     441     114
     429     435     480      40     498     492     504      96     495     492
     498      97     495     492     504      96     492     486     531      98
     492     498     501     100     489     486     492     102     489     486
     531       1     486     492     495     103     486     492     498     103
     486     492     504     104     486     531     537       3     561     558
     564       1     558     564     570       3     543     537     558     108
     537     543     552     119     537     558     561      35     537     558
     564      36     531     537     543     114     531     537     558      40
     633     630     636       1     630     636     642       3     612     609
     621      72     603     609     612      72     603     609     621      72
     594     603     609      77     585     594     603      81     576     570
     630      82     576     585     594      83     570     576     585      86
     570     630     633      35     570     630     636      36     564     570
     576      87     564     570     630      40     666     663     669       1
     663     669     675       3     648     642     663     108     642     648
     657     119     642     663     666      35     642     663     669      36
     636     642     648     114     636     642     663      40     687     684
     690       1     684     690     696       3     675     684     687      35
     675     684     690      36     669     675     684      40     708     705
     711       1     705     711     717       3     696     705     708      35
     696     705     711      36     690     696     705      40     756     753
     759       1     753     759     765       3     729     723     741      41
     723     717     753      43     717     723     729      47     717     723
     741      47     717     753     756      35     717     753     759      36
     711     717     723      48     711     717     753      40     804     801
     807       1     801     807     813       3     777     771     789      41
     771     765     801      43     765     771     777      47     765     771
     789      47     765     801     804      35     765     801     807      36
     759     765     771      48     759     765     801      40     870     867
     873       1     867     873     879       3     837     846     855     125
     828     837     846      83     819     813     867      82     819     828
     837      83     813     819     828      86     813     867     870      35
     813     867     873      36     807     813     819      87     807     813
     867      40     912     909     915       1     909     915     921       3
     897     894     900       1     885     879     909     108     885     894
     897     128     885     894     900     129     879     885     894     130
     879     909     912      35     879     909     915      36     873     879
     885     114     873     879     909      40     954     951     957       1
     951     957     963       3     939     936     942       1     927     921
     951     108     927     936     939     128     927     936     942     129
     921     927     936     130     921     951     954      35     921     951
     957      36     915     921     927     114     915     921     951      40
    1014    1011    1017       1    1011    1017    1023       3     993     999
    1005      11     987     993     999      11     981     978    1005      11
     981     987     993      11     978     981     987      11     978    1005
     999      11     969     963    1011      28     969     978     981     132
     969     978    1005     132     963     969     978     133     963    1011
    1014      35     963    1011    1017      36     957     963     969      39
     957     963    1011      40    1062    1059    1065       1    1059    1065
    1068     134    1059    1065    1095       3    1035    1029    1047      41
    1029    1023    1059      43    1023    1029    1035      47    1023    1029
    1047      47    1023    1059    1062      35    1023    1059    1065      36
    1017    1023    1029      48    1017    1023    1059      40    1104    1101
    1107       1    1101    1107    1113       3    1095    1101    1104      35
    1095    1101    1107      36    1086    1095    1101      28    1077    1086
    1095     136    1068    1065    1095     139    1068    1077    1086     140
    1065    1068    1077     142    1065    1095    1086      39    1065    1095
    1101      40    1146    1143    1149       1    1143    1149    1155       3
    1125    1119    1137      49    1119    1113    1143      43    1113    1119
    1125      47    1113    1119    1137      54    1113    1143    1146      35
    1113    1143    1149      36    1107    1113    1119      48    1107    1113
    1143      40    1182    1179    1185       1    1179    1185    1191       3
    1173    1170    1176     143    1161    1155    1179     108    1161    1170
    1173     145    1161    1170    1176     145    1155    1161    1170     146
    1155    1179    1182      35    1155    1179    1185      36    1149    1155
    1161     114    1149    1155    1179      40    1230    1227    1233       1
    1227    1233    1239       3    1203    1197    1215      41    1197    1191
    1227      43    1191    1197    1203      47    1191    1197    1215      47
    1191    1227    1230      35    1191    1227    1233      36    1185    1191
    1197      48    1185    1191    1227      40    1251    1248    1254       1
    1248    1254    1257     134    1248    1254    1284       3    1239    1248
    1251      35    1239    1248    1254      36    1233    1239    1248      40
    1293    1290    1296       1    1290    1296    1302       3    1284    1290
    1293      35    1284    1290    1296      36    1275    1284    1290      28
    1266    1275    1284     136    1257    1254    1284     139    1257    1266
    1275     140    1254    1257    1266     142    1254    1284    1275      39
    1254    1284    1290      40    1353    1350    1356       1    1350    1356
    1362       3    1332    1338    1344      11    1326    1332    1338      11
    1320    1317    1344      11    1320    1326    1332      11    1317    1320
    1326      11    1317    1344    1338      11    1308    1302    1350      28
    1308    1317    1320     132    1308    1317    1344     132    1302    1308
    1317     133    1302    1350    1353      35    1302    1350    1356      36
    1296    1302    1308      39    1296    1302    1350      40    1383    1380
    1386       1    1380    1386    1392       3    1368    1362    1380      28
    1362    1380    1383      35    1362    1380    1386      36    1356    1362
    1368      39    1356    1362    1380      40    1443    1440    1446       1
    1422    1428    1434      11    1416    1422    1428      11    1410    1407
    1434      11    1410    1416    1422      11    1407    1410    1416      11
    1407    1434    1428      11    1398    1392    1440      28    1398    1407
    1410     132    1398    1407    1434     132    1392    1398    1407     133
    1392    1440    1443      35    1392    1440    1446      36    1386    1392
    1398      39    1386    1392    1440      40
%FLAG DIHEDRALS_INC_HYDROGEN                                                    
%FORMAT(10I8)                                                                   
      15      12      18      21       1      15      12     -18      21       2
      12      18      24      27       3       9       3      12      15       7
       9       3     -12      15       3       9       3     -12      15       8
       9       3      12      18       3       6       3      12      15       7
       6       3     -12      15       3       6       3     -12      15       8
       6       3      12      18       3       3      12      18      21       2
       0       3      12      15       7       0       3     -12      15       3
       0       3     -12      15       8       0       3      12      18       3
      87      84      90      93       1      87      84     -90      93       2
      84      90      96      99       3      72      69      75      78       9
      72      69      75      81       9      66      63      69      72       9
      66      63      69      75       9      63      69      75      78       9
      60      57      54      81       9      60      57      63      66       9
      60      57      63      69       9      57      63      69      72       9
      54      57      63      66       9      54      81      75      78      11
      51      48      54      57      12      51      48      54      81      12
      48      54      57      60       9      45      42      39      81      13
      45      42      48      51      14      45      42      48      54      14
      39      42      48      51      14      39      81      75      78      11
      36      30      24      84      20      36      30      39      42       3
      36      30      39      81       3      33      30      24      84      20
      33      30      39      42       3      33      30      39      81       3
      30      39      42      45      13      27      24      30      33      20
      27      24      30      36      20      27      24      30      39      20
      27      24      84      87       4      27      24     -84      87       3
      27      24     -84      87      21      27      24      84      90       3
      24      84      90      93       2      21      18      24      27       3
      21      18      24      30       3      21      18      24      84       3
      18      24      30      33      20      18      24      30      36      20
     135     132     138     141       1     135     132    -138     141       2
     132     138     144     147       3     117     108     102     120      35
     114     108     102     120      35     111     108     102     120      35
     108     102     120     123      35     108     102     120     126      35
     108     102     120     129      35     105     102      96     132      20
     105     102     108     111      36     105     102     108     114      36
     105     102     108     117      36     105     102     120     123      36
     105     102     120     126      36     105     102     120     129      36
      99      96     102     105      20      99      96     102     108      20
      99      96     102     120      20      99      96     132     135       4
      99      96    -132     135       3      99      96    -132     135      21
      99      96     132     138       3      96     102     108     111      35
      96     102     108     114      35      96     102     108     117      35
      96     102     120     123      35      96     102     120     126      35
      96     102     120     129      35      96     132     138     141       2
      93      90      96      99       3      93      90      96     102       3
      93      90      96     132       3      90      96     102     105      20
     177     174     180     183       1     177     174    -180     183       2
     174     180     186     189       3     165     156     150     168      44
     165     156    -150     168       5     162     156     150     168      44
     162     156    -150     168       5     159     156     150     168      44
     159     156    -150     168       5     156     150     168     171      45
     156     150    -168     171      46     156     150    -168     171      47
     156     150    -168     171      48     153     150     144     174      20
     153     150     156     159      20     153     150     156     162      20
     153     150     156     165      20     153     150     168     171      49
     147     144     150     153      20     147     144     150     156      20
     147     144     150     168      44     147     144    -150     168       5
     147     144     174     177       4     147     144    -174     177       3
     147     144    -174     177      21     147     144     174     180       3
     144     150     156     159      35     144     150     156     162      35
     144     150     156     165      35     144     150     168     171      50
     144     150    -168     171      51     144     150    -168     171      47
     144     150    -168     171      52     144     174     180     183       2
     141     138     144     147       3     141     138     144     150       3
     141     138     144     174       3     138     144     150     153      20
     228     225     231     234       1     228     225    -231     234       2
     225     231     237     240       3     213     210     216     219      56
     210     216     219     222      58     207     204     201     219      57
     207     204     210     213      59     207     204     210     216      59
     204     201     219     222      60     201     204     210     213      59
     198     192     186     225      20     198     192     201     204       3
     198     192     201     219       3     195     192     186     225      20
     195     192     201     204       3     195     192     201     219       3
     192     201     204     207      57     192     201     219     222      60
     189     186     192     195      20     189     186     192     198      20
     189     186     192     201      20     189     186     225     228       4
     189     186    -225     228       3     189     186    -225     228      21
     189     186     225     231       3     186     225     231     234       2
     183     180     186     189       3     183     180     186     192       3
     183     180     186     225       3     180     186     192     195      20
     180     186     192     198      20     300     297     333     375       1
     300     297    -333     375       2     285     279     276     288      58
     285     279    -276     288       6     282     279     276     288      58
     282     279    -276     288       6     279     276     288     291      58
     279     276    -288     291       6     279     276     288     294      58
     279     276    -288     294       6     273     270     276     279      58
     273     270    -276     279       6     273     270     276     288      58
     273     270    -276     288       6     270     276     279     282      58
     270     276    -279     282       6     270     276     279     285      58
     270     276    -279     285       6     270     276     288     291      58
     270     276    -288     291       6     270     276     288     294      58
     270     276    -288     294       6     267     261     270     273       5
     267     261     270     276       5     264     261     270     273       5
     264     261     270     276       5     258     252     261     264      20
     258     252     261     267      20     258     252     261     270      20
     255     252     261     264      20     255     252     261     267      20
     255     252     261     270      20     252     261     270     273       5
     249     243     237     297      20     249     243     252     255      36
     249     243     252     258      36     249     243     252     261      35
     246     243     237     297      20     246     243     252     255      36
     246     243     252     258      36     246     243     252     261      35
     243     252     261     264      20     243     252     261     267      20
     240     237     243     246      20     240     237     243     249      20
     240     237     243     252      20     240     237     297     300       4
     240     237    -297     300       3     240     237    -297     300      21
     240     237     297     333       3     237     243     252     255      35
     237     243     252     258      35     237     297     333     375       2
     234     231     237     240       3     234     231     237     243       3
     234     231     237     297       3     231     237     243     246      20
     231     237     243     249      20     372     330     501     498      84
     372     330     501     522      85     372     330     501     525      85
     369     330     501     498      84     369     330     501     522      85
     369     330     501     525      85     366     327     330     369       3
     366     327     330     372       3     366     327     330     501       3
     363     324     327     366      86     360     321     324     363       3
     357     321     324     363       3     354     318     321     357      85
     354     318     321     360      85     351     318     321     357      85
     351     318     321     360      85     348     315     318     351      85
     348     315     318     354      85     345     315     318     351      85
     345     315     318     354      85     333     309     312     336      89
     333     309     312     339      89     333     309     312     342      89
     333     309     315     345      89     333     309     315     348      89
     330     327     324     363      90     330     501     498     516      84
     330     501     498     519      84     327     324     321     357      94
     327     324     321     360      94     327     330     501     522      96
     327     330     501     525      96     324     321     318     351      96
     324     321     318     354      96     324     327     330     369      94
     324     327     330     372      94     321     318     315     345      84
     321     318     315     348      84     321     324     327     366      90
     318     321     324     363       3     315     309     312     336      84
     315     309     312     339      84     315     309     312     342      84
     315     309     333     375       3     315     318     321     357      84
     315     318     321     360      84     312     309     315     345      84
     312     309     315     348      84     312     309     333     375       3
     309     303     378     381       2     309     315     318     351      84
     309     315     318     354      84     306     303     378     381       1
     306     303    -378     381       2     303     309     312     336      20
     303     309     312     339      20     303     309     312     342      20
     303     309     315     345      20     303     309     315     348      20
     303     309     333     375       3     303     378     384     387       3
     405     402     408     411       1     405     402    -408     411       2
     402     408     414     417       3     402     408     414     420       3
     399     390     384     402      20     396     390     384     402      20
     393     390     384     402      20     387     384     390     393      20
     387     384     390     396      20     387     384     390     399      20
     387     384     402     405       4     387     384    -402     405       3
     387     384    -402     405      21     387     384     402     408       3
     384     402     408     411       2     381     378     384     387       3
     381     378     384     390       3     381     378     384     402       3
     378     384     390     393      20     378     384     390     396      20
     378     384     390     399      20     426     423     429     432       1
     426     423    -429     432       2     423     429     435     438       3
     420     414     423     426       4     420     414    -423     426       3
     420     414    -423     426      21     420     414     423     429       3
     417     414     423     426       4     417     414    -423     426       3
     417     414    -423     426      21     417     414     423     429       3
     414     423     429     432       2     411     408     414     417       3
     411     408     414     420       3     411     408     414     423       3
     483     480     504     528       1     483     480    -504     528       2
     465     456     450     468      35     462     456     450     468      35
     459     456     450     468      35     456     450     468     471      35
     456     450     468     474      35     456     450     468     477      35
     453     450     456     459      36     453     450     456     462      36
     453     450     456     465      36     453     450     468     471      36
     453     450     468     474      36     453     450     468     477      36
     447     441     435     480      20     447     441     450     453      36
     447     441     450     456      35     447     441     450     468      35
     444     441     435     480      20     444     441     450     453      36
     444     441     450     456      35     444     441     450     468      35
     441     450     456     459      35     441     450     456     462      35
     441     450     456     465      35     441     450     468     471      35
     441     450     468     474      35     441     450     468     477      35
     438     435     441     444      20     438     435     441     447      20
     438     435     441     450      20     438     435     480     483       4
     438     435    -480     483       3     438     435    -480     483      21
     438     435     480     504       3     435     441     450     453      35
     435     480     504     528       2     432     429     435     438       3
     432     429     435     441       3     432     429     435     480       3
     429     435     441     444      20     429     435     441     447      20
     519     498     501     522      85     519     498     501     525      85
     516     498     501     522      85     516     498     501     525      85
     504     492     495     507      89     504     492     495     510      89
     504     492     495     513      89     504     492     498     516      89
     504     492     498     519      89     498     492     495     507      84
     498     492     495     510      84     498     492     495     513      84
     498     492     504     528       3     495     492     498     516      84
     495     492     498     519      84     495     492     504     528       3
     492     486     531     534       2     492     498     501     522      84
     492     498     501     525      84     489     486     531     534       1
     489     486    -531     534       2     486     492     495     507      20
     486     492     495     510      20     486     492     495     513      20
     486     492     498     516      20     486     492     498     519      20
     486     492     504     528       3     486     531     537     540       3
     561     558     564     567       1     561     558    -564     567       2
     558     564     570     573       3     549     543     537     558      20
     549     543     552     555      49     546     543     537     558      20
     546     543     552     555      49     540     537     543     546      20
     540     537     543     549      20     540     537     543     552      44
     540     537    -543     552       5     540     537     558     561       4
     540     537    -558     561       3     540     537    -558     561      21
     540     537     558     564       3     537     543     552     555     117
     537     543    -552     555     118     537     543    -552     555     119
     537     543    -552     555     120     537     558     564     567       2
     534     531     537     540       3     534     531     537     543       3
     534     531     537     558       3     531     537     543     546      20
     531     537     543     549      20     633     630     636     639       1
     633     630    -636     639       2     630     636     642     645       3
     618     612     609     621      58     618     612    -609     621       6
     615     612     609     621      58     615     612    -609     621       6
     612     609     621     624      58     612     609    -621     624       6
     612     609     621     627      58     612     609    -621     627       6
     606     603     609     612      58     606     603    -609     612       6
     606     603     609     621      58     606     603    -609     621       6
     603     609     612     615      58     603     609    -612     615       6
     603     609     612     618      58     603     609    -612     618       6
     603     609     621     624      58     603     609    -621     624       6
     603     609     621     627      58     603     609    -621     627       6
     600     594     603     606       5     600     594     603     609       5
     597     594     603     606       5     597     594     603     609       5
     591     585     594     597      20     591     585     594     600      20
     591     585     594     603      20     588     585     594     597      20
     588     585     594     600      20     588     585     594     603      20
     585     594     603     606       5     582     576     570     630      20
     582     576     585     588      36     582     576     585     591      36
     582     576     585     594      35     579     576     570     630      20
     579     576     585     588      36     579     576     585     591      36
     579     576     585     594      35     576     585     594     597      20
     576     585     594     600      20     573     570     576     579      20
     573     570     576     582      20     573     570     576     585      20
     573     570     630     633       4     573     570    -630     633       3
     573     570    -630     633      21     573     570     630     636       3
     570     576     585     588      35     570     576     585     591      35
     570     630     636     639       2     567     564     570     573       3
     567     564     570     576       3     567     564     570     630       3
     564     570     576     579      20     564     570     576     582      20
     666     663     669     672       1     666     663    -669     672       2
     663     669     675     678       3     663     669     675     681       3
     654     648     642     663      20     654     648     657     660      49
     651     648     642     663      20     651     648     657     660      49
     645     642     648     651      20     645     642     648     654      20
     645     642     648     657      44     645     642    -648     657       5
     645     642     663     666       4     645     642    -663     666       3
     645     642    -663     666      21     645     642     663     669       3
     642     648     657     660     117     642     648    -657     660     118
     642     648    -657     660     119     642     648    -657     660     120
     642     663     669     672       2     639     636     642     645       3
     639     636     642     648       3     639     636     642     663       3
     636     642     648     651      20     636     642     648     654      20
     687     684     690     693       1     687     684    -690     693       2
     684     690     696     699       3     684     690     696     702       3
     681     675     684     687       4     681     675    -684     687       3
     681     675    -684     687      21     681     675     684     690       3
     678     675     684     687       4     678     675    -684     687       3
     678     675    -684     687      21     678     675     684     690       3
     675     684     690     693       2     672     669     675     678       3
     672     669     675     681       3     672     669     675     684       3
     708     705     711     714       1     708     705    -711     714       2
     705     711     717     720       3     702     696     705     708       4
     702     696    -705     708       3     702     696    -705     708      21
     702     696     705     711       3     699     696     705     708       4
     699     696    -705     708       3     699     696    -705     708      21
     699     696     705     711       3     696     705     711     714       2
     693     690     696     699       3     693     690     696     702       3
     693     690     696     705       3     756     753     759     762       1
     756     753    -759     762       2     753     759     765     768       3
     738     729     723     741      35     735     729     723     741      35
     732     729     723     741      35     729     723     741     744      35
     729     723     741     747      35     729     723     741     750      35
     726     723     717     753      20     726     723     729     732      36
     726     723     729     735      36     726     723     729     738      36
     726     723     741     744      36     726     723     741     747      36
     726     723     741     750      36     720     717     723     726      20
     720     717     723     729      20     720     717     723     741      20
     720     717     753     756       4     720     717    -753     756       3
     720     717    -753     756      21     720     717     753     759       3
     717     723     729     732      35     717     723     729     735      35
     717     723     729     738      35     717     723     741     744      35
     717     723     741     747      35     717     723     741     750      35
     717     753     759     762       2     714     711     717     720       3
     714     711     717     723       3     714     711     717     753       3
     711     717     723     726      20     804     801     807     810       1
     804     801    -807     810       2     801     807     813     816       3
     786     777     771     789      35     783     777     771     789      35
     780     777     771     789      35     777     771     789     792      35
     777     771     789     795      35     777     771     789     798      35
     774     771     765     801      20     774     771     777     780      36
     774     771     777     783      36     774     771     777     786      36
     774     771     789     792      36     774     771     789     795      36
     774     771     789     798      36     768     765     771     774      20
     768     765     771     777      20     768     765     771     789      20
     768     765     801     804       4     768     765    -801     804       3
     768     765    -801     804      21     768     765     801     807       3
     765     771     777     780      35     765     771     777     783      35
     765     771     777     786      35     765     771     789     792      35
     765     771     789     795      35     765     771     789     798      35
     765     801     807     810       2     762     759     765     768       3
     762     759     765     771       3     762     759     765     801       3
     759     765     771     774      20     870     867     873     876       1
     870     867    -873     876       2     867     873     879     882       3
     852     846     855     858      20     852     846     855     861      20
     852     846     855     864      20     849     846     855     858      20
     849     846     855     861      20     849     846     855     864      20
     843     837     846     849      20     843     837     846     852      20
     843     837     846     855      20     840     837     846     849      20
     840     837     846     852      20     840     837     846     855      20
     837     846     855     858      20     837     846     855     861      20
     837     846     855     864      20     834     828     837     840      36
     834     828     837     843      36     834     828     837     846      35
     831     828     837     840      36     831     828     837     843      36
     831     828     837     846      35     828     837     846     849      20
     828     837     846     852      20     825     819     813     867      20
     825     819     828     831      36     825     819     828     834      36
     825     819     828     837      35     822     819     813     867      20
     822     819     828     831      36     822     819     828     834      36
     822     819     828     837      35     819     828     837     840      35
     819     828     837     843      35     816     813     819     822      20
     816     813     819     825      20     816     813     819     828      20
     816     813     867     870       4     816     813    -867     870       3
     816     813    -867     870      21     816     813     867     873       3
     813     819     828     831      35     813     819     828     834      35
     813     867     873     876       2     810     807     813     816       3
     810     807     813     819       3     810     807     813     867       3
     807     813     819     822      20     807     813     819     825      20
     912     909     915     918       1     912     909    -915     918       2
     909     915     921     924       3     897     894     900     903       1
     897     894    -900     903       2     897     894     900     906       1
     897     894    -900     906       2     891     885     879     909      20
     891     885     894     897       7     891     885    -894     897       3
     891     885    -894     897       8     891     885     894     900       3
     888     885     879     909      20     888     885     894     897       7
     888     885    -894     897       3     888     885    -894     897       8
     888     885     894     900       3     885     894     900     903       2
     885     894     900     906       2     882     879     885     888      20
     882     879     885     891      20     882     879     885     894      20
     882     879     909     912       4     882     879    -909     912       3
     882     879    -909     912      21     882     879     909     915       3
     879     909     915     918       2     876     873     879     882       3
     876     873     879     885       3     876     873     879     909       3
     873     879     885     888      20     873     879     885     891      20
     954     951     957     960       1     954     951    -957     960       2
     951     957     963     966       3     939     936     942     945       1
     939     936    -942     945       2     939     936     942     948       1
     939     936    -942     948       2     933     927     921     951      20
     933     927     936     939       7     933     927    -936     939       3
     933     927    -936     939       8     933     927     936     942       3
     930     927     921     951      20     930     927     936     939       7
     930     927    -936     939       3     930     927    -936     939       8
     930     927     936     942       3     927     936     942     945       2
     927     936     942     948       2     924     921     927     930      20
     924     921     927     933      20     924     921     927     936      20
     924     921     951     954       4     924     921    -951     954       3
     924     921    -951     954      21     924     921     951     957       3
     921     951     957     960       2     918     915     921     924       3
     918     915     921     927       3     918     915     921     951       3
     915     921     927     930      20     915     921     927     933      20
    1014    1011    1017    1020       1    1014    1011   -1017    1020       2
    1011    1017    1023    1026       3    1002     999    1005    1008       9
     996     993     999    1002       9     996     993     999    1005       9
     993     999    1005    1008       9     990     987     993     996       9
     990     987     993     999       9     987     993     999    1002       9
     984     981     978    1005       9     984     981     987     990       9
     984     981     987     993       9     981     978    1005    1008       9
     981     987     993     996       9     978     981     987     990       9
     978    1005     999    1002       9     975     969     963    1011      20
     975     969     978     981       3     975     969     978    1005       3
     972     969     963    1011      20     972     969     978     981       3
     972     969     978    1005       3     969     978     981     984       9
     969     978    1005    1008       9     966     963     969     972      20
     966     963     969     975      20     966     963     969     978      20
     966     963    1011    1014       4     966     963   -1011    1014       3
     966     963   -1011    1014      21     966     963    1011    1017       3
     963    1011    1017    1020       2     960     957     963     966       3
     960     957     963     969       3     960     957     963    1011       3
     957     963     969     972      20     957     963     969     975      20
    1059    1065    1068    1071       3    1059    1065    1068    1074       3
    1059    1065    1095    1098       3    1044    1035    1029    1047      35
    1041    1035    1029    1047      35    1038    1035    1029    1047      35
    1035    1029    1047    1050      35    1035    1029    1047    1053      35
    1035    1029    1047    1056      35    1032    1029    1023    1059      20
    1032    1029    1035    1038      36    1032    1029    1035    1041      36
    1032    1029    1035    1044      36    1032    1029    1047    1050      36
    1032    1029    1047    1053      36    1032    1029    1047    1056      36
    1026    1023    1029    1032      20    1026    1023    1029    1035      20
    1026    1023    1029    1047      20    1026    1023    1059    1062       4
    1026    1023   -1059    1062       3    1026    1023   -1059    1062      21
    1026    1023    1059    1065       3    1023    1029    1035    1038      35
    1023    1029    1035    1041      35    1023    1029    1035    1044      35
    1023    1029    1047    1050      35    1023    1029    1047    1053      35
    1023    1029    1047    1056      35    1020    1017    1023    1026       3
    1020    1017    1023    1029       3    1020    1017    1023    1059       3
    1017    1023    1029    1032      20    1104    1101    1107    1110       1
    1104    1101   -1107    1110       2    1101    1107    1113    1116       3
    1098    1095    1101    1104       4    1098    1095   -1101    1104       3
    1098    1095   -1101    1104      21    1098    1095    1101    1107       3
    1095    1101    1107    1110       2    1092    1086    1095    1098      20
    1092    1086    1095    1101      20    1089    1086    1095    1098      20
    1089    1086    1095    1101      20    1083    1077    1086    1089      36
    1083    1077    1086    1092      36    1083    1077    1086    1095      35
    1080    1077    1086    1089      36    1080    1077    1086    1092      36
    1080    1077    1086    1095      35    1077    1086    1095    1098      20
    1074    1068    1065    1095       3    1074    1068    1077    1080      20
    1074    1068    1077    1083      20    1074    1068    1077    1086      20
    1071    1068    1065    1095       3    1071    1068    1077    1080      20
    1071    1068    1077    1083      20    1071    1068    1077    1086      20
    1068    1065    1095    1098       3    1068    1077    1086    1089      35
    1068    1077    1086    1092      35    1065    1068    1077    1080      20
    1065    1068    1077    1083      20    1065    1095    1086    1089      20
    1065    1095    1086    1092      20    1146    1143    1149    1152       1
    1146    1143   -1149    1152       2    1143    1149    1155    1158       3
    1134    1125    1119    1137      44    1134    1125   -1119    1137       5
    1131    1125    1119    1137      44    1131    1125   -1119    1137       5
    1128    1125    1119    1137      44    1128    1125   -1119    1137       5
    1125    1119    1137    1140      45    1125    1119   -1137    1140      46
    1125    1119   -1137    1140      47    1125    1119   -1137    1140      48
    1122    1119    1113    1143      20    1122    1119    1125    1128      20
    1122    1119    1125    1131      20    1122    1119    1125    1134      20
    1122    1119    1137    1140      49    1116    1113    1119    1122      20
    1116    1113    1119    1125      20    1116    1113    1119    1137      44
    1116    1113   -1119    1137       5    1116    1113    1143    1146       4
    1116    1113   -1143    1146       3    1116    1113   -1143    1146      21
    1116    1113    1143    1149       3    1113    1119    1125    1128      35
    1113    1119    1125    1131      35    1113    1119    1125    1134      35
    1113    1119    1137    1140      50    1113    1119   -1137    1140      51
    1113    1119   -1137    1140      47    1113    1119   -1137    1140      52
    1113    1143    1149    1152       2    1110    1107    1113    1116       3
    1110    1107    1113    1119       3    1110    1107    1113    1143       3
    1107    1113    1119    1122      20    1182    1179    1185    1188       1
    1182    1179   -1185    1188       2    1179    1185    1191    1194       3
    1167    1161    1155    1179      20    1167    1161    1170    1173       3
    1167    1161    1170    1176       3    1164    1161    1155    1179      20
    1164    1161    1170    1173       3    1164    1161    1170    1176       3
    1158    1155    1161    1164      20    1158    1155    1161    1167      20
    1158    1155    1161    1170      20    1158    1155    1179    1182       4
    1158    1155   -1179    1182       3    1158    1155   -1179    1182      21
    1158    1155    1179    1185       3    1155    1179    1185    1188       2
    1152    1149    1155    1158       3    1152    1149    1155    1161       3
    1152    1149    1155    1179       3    1149    1155    1161    1164      20
    1149    1155    1161    1167      20    1230    1227    1233    1236       1
    1230    1227   -1233    1236       2    1227    1233    1239    1242       3
    1227    1233    1239    1245       3    1212    1203    1197    1215      35
    1209    1203    1197    1215      35    1206    1203    1197    1215      35
    1203    1197    1215    1218      35    1203    1197    1215    1221      35
    1203    1197    1215    1224      35    1200    1197    1191    1227      20
    1200    1197    1203    1206      36    1200    1197    1203    1209      36
    1200    1197    1203    1212      36    1200    1197    1215    1218      36
    1200    1197    1215    1221      36    1200    1197    1215    1224      36
    1194    1191    1197    1200      20    1194    1191    1197    1203      20
    1194    1191    1197    1215      20    1194    1191    1227    1230       4
    1194    1191   -1227    1230       3    1194    1191   -1227    1230      21
    1194    1191    1227    1233       3    1191    1197    1203    1206      35
    1191    1197    1203    1209      35    1191    1197    1203    1212      35
    1191    1197    1215    1218      35    1191    1197    1215    1221      35
    1191    1197    1215    1224      35    1191    1227    1233    1236       2
    1188    1185    1191    1194       3    1188    1185    1191    1197       3
    1188    1185    1191    1227       3    1185    1191    1197    1200      20
    1248    1254    1257    1260       3    1248    1254    1257    1263       3
    1248    1254    1284    1287       3    1245    1239    1248    1251       4
    1245    1239   -1248    1251       3    1245    1239   -1248    1251      21
    1245    1239    1248    1254       3    1242    1239    1248    1251       4
    1242    1239   -1248    1251       3    1242    1239   -1248    1251      21
    1242    1239    1248    1254       3    1236    1233    1239    1242       3
    1236    1233    1239    1245       3    1236    1233    1239    1248       3
    1293    1290    1296    1299       1    1293    1290   -1296    1299       2
    1290    1296    1302    1305       3    1287    1284    1290    1293       4
    1287    1284   -1290    1293       3    1287    1284   -1290    1293      21
    1287    1284    1290    1296       3    1284    1290    1296    1299       2
    1281    1275    1284    1287      20    1281    1275    1284    1290      20
    1278    1275    1284    1287      20    1278    1275    1284    1290      20
    1272    1266    1275    1278      36    1272    1266    1275    1281      36
    1272    1266    1275    1284      35    1269    1266    1275    1278      36
    1269    1266    1275    1281      36    1269    1266    1275    1284      35
    1266    1275    1284    1287      20    1263    1257    1254    1284       3
    1263    1257    1266    1269      20    1263    1257    1266    1272      20
    1263    1257    1266    1275      20    1260    1257    1254    1284       3
    1260    1257    1266    1269      20    1260    1257    1266    1272      20
    1260    1257    1266    1275      20    1257    1254    1284    1287       3
    1257    1266    1275    1278      35    1257    1266    1275    1281      35
    1254    1257    1266    1269      20    1254    1257    1266    1272      20
    1254    1284    1275    1278      20    1254    1284    1275    1281      20
    1353    1350    1356    1359       1    1353    1350   -1356    1359       2
    1350    1356    1362    1365       3    1341    1338    1344    1347       9
    1335    1332    1338    1341       9    1335    1332    1338    1344       9
    1332    1338    1344    1347       9    1329    1326    1332    1335       9
    1329    1326    1332    1338       9    1326    1332    1338    1341       9
    1323    1320    1317    1344       9    1323    1320    1326    1329       9
    1323    1320    1326    1332       9    1320    1317    1344    1347       9
    1320    1326    1332    1335       9    1317    1320    1326    1329       9
    1317    1344    1338    1341       9    1314    1308    1302    1350      20
    1314    1308    1317    1320       3    1314    1308    1317    1344       3
    1311    1308    1302    1350      20    1311    1308    1317    1320       3
    1311    1308    1317    1344       3    1308    1317    1320    1323       9
    1308    1317    1344    1347       9    1305    1302    1308    1311      20
    1305    1302    1308    1314      20    1305    1302    1308    1317      20
    1305    1302    1350    1353       4    1305    1302   -1350    1353       3
    1305    1302   -1350    1353      21    1305    1302    1350    1356       3
    1302    1350    1356    1359       2    1299    1296    1302    1305       3
    1299    1296    1302    1308       3    1299    1296    1302    1350       3
    1296    1302    1308    1311      20    1296    1302    1308    1314      20
    1383    1380    1386    1389       1    1383    1380   -1386    1389       2
    1380    1386    1392    1395       3    1377    1368    1362    1380      20
    1374    1368    1362    1380      20    1371    1368    1362    1380      20
    1365    1362    1368    1371      20    1365    1362    1368    1374      20
    1365    1362    1368    1377      20    1365    1362    1380    1383       4
    1365    1362   -1380    1383       3    1365    1362   -1380    1383      21
    1365    1362    1380    1386       3    1362    1380    1386    1389       2
    1359    1356    1362    1365       3    1359    1356    1362    1368       3
    1359    1356    1362    1380       3    1356    1362    1368    1371      20
    1356    1362    1368    1374      20    1356    1362    1368    1377      20
    1443    1440    1446    1449       1    1443    1440   -1446    1449       2
    1443    1440    1446    1452       1    1443    1440   -1446    1452       2
    1431    1428    1434    1437       9    1425    1422    1428    1431       9
    1425    1422    1428    1434       9    1422    1428    1434    1437       9
    1419    1416    1422    1425       9    1419    1416    1422    1428       9
    1416    1422    1428    1431       9    1413    1410    1407    1434       9
    1413    1410    1416    1419       9    1413    1410    1416    1422       9
    1410    1407    1434    1437       9    1410    1416    1422    1425       9
    1407    1410    1416    1419       9    1407    1434    1428    1431       9
    1404    1398    1392    1440      20    1404    1398    1407    1410       3
    1404    1398    1407    1434       3    1401    1398    1392    1440      20
    1401    1398    1407    1410       3    1401    1398    1407    1434       3
    1398    1407    1410    1413       9    1398    1407    1434    1437       9
    1395    1392    1398    1401      20    1395    1392    1398    1404      20
    1395    1392    1398    1407      20    1395    1392    1440    1443       4
    1395    1392   -1440    1443       3    1395    1392   -1440    1443      21
    1395    1392    1440    1446       3    1392    1440    1446    1449       2
    1392    1440    1446    1452       2    1389    1386    1392    1395       3
    1389    1386    1392    1398       3    1389    1386    1392    1440       3
    1386    1392    1398    1401      20    1386    1392    1398    1404      20
      69      81     -75     -78     155      63      75     -69     -72     155
      57      69     -63     -66     155      54      63     -57     -60     155
      42      54     -48     -51     156      39      48     -42     -45     155
      12      24     -18     -21     155      84      93     -90     -96     155
     132     141    -138    -144     155     201     216    -219    -222     155
     204     216    -210    -213     155     201     210    -204    -207     156
     174     183    -180    -186     155     276     291    -288    -294     156
     276     282    -279    -285     156     261     276    -270    -273     156
     225     234    -231    -237     155     297     309    -333    -375     155
     324     330    -327    -366     155     327     321    -324    -363     155
     303     381    -378    -384     155     402     411    -408    -414     155
     423     432    -429    -435     155     480     492    -504    -528     155
     486     534    -531    -537     155     609     624    -621    -627     156
     609     615    -612    -618     156     594     609    -603    -606     156
     558     567    -564    -570     155     630     639    -636    -642     155
     663     672    -669    -675     155     684     693    -690    -696     155
     705     714    -711    -717     155     753     762    -759    -765     155
     801     810    -807    -813     155     894     903    -900    -906     156
     867     876    -873    -879     155     936     945    -942    -948     156
     909     918    -915    -921     155     978     999   -1005   -1008     155
     993    1005    -999   -1002     155     987     999    -993    -996     155
     981     993    -987    -990     155     978     987    -981    -984     155
     951     960    -957    -963     155    1011    1020   -1017   -1023     155
    1101    1110   -1107   -1113     155    1143    1152   -1149   -1155     155
    1179    1188   -1185   -1191     155    1227    1236   -1233   -1239     155
    1317    1338   -1344   -1347     155    1332    1344   -1338   -1341     155
    1326    1338   -1332   -1335     155    1320    1332   -1326   -1329     155
    1317    1326   -1320   -1323     155    1290    1299   -1296   -1302     155
    1350    1359   -1356   -1362     155    1407    1428   -1434   -1437     155
    1422    1434   -1428   -1431     155    1416    1428   -1422   -1425     155
    1410    1422   -1416   -1419     155    1407    1416   -1410   -1413     155
    1380    1389   -1386   -1392     155    1440    1449   -1446   -1452     156
%FLAG DIHEDRALS_WITHOUT_HYDROGEN                                                
%FORMAT(10I8)                                                                   
      15      12      18      24       2      12      18      24      30       4
      12      18     -24      30       3      12      18     -24      30       5
      12      18     -24      30       6      12      18      24      84       4
      12      18     -24      84       3      12      18     -24      84       5
      12      18     -24      84       6       3      12      18      24       2
      87      84      90      96       2      84      90      96     102       4
      84      90     -96     102       3      84      90     -96     102       5
      84      90     -96     102       6      84      90      96     132       4
      84      90     -96     132       3      84      90     -96     132       5
      84      90     -96     132       6      63      57      54      81       9
      63      69     -75      81       9      57      54      81      75      10
      57      63     -69      75       9      54      57      63      69       9
      54      81     -75      69      11      48      42     -39      81      13
      48      54      57      63       9      48      54      81      75      10
      42      39     -81      54      15      42      39      81      75      15
      42      48      54      57      12      42      48     -54      81      12
      39      30      24      84      16      39      30     -24      84      17
      39      30     -24      84      18      39      30     -24      84      19
      39      42     -48      54      14      39      81     -54      48      10
      39      81      54      57      10      39      81      75      69      11
      30      24      84      87       3      30      24      84      90       4
      30      24     -84      90       3      30      24     -84      90       5
      30      24     -84      90       6      30      39      42      48      13
      30      39      81      54      15      30      39      81      75      15
      24      30      39      42       4      24      30     -39      42       3
      24      30     -39      42       5      24      30     -39      42       6
      24      30      39      81      22      24      30     -39      81      23
      24      30     -39      81      24      24      30     -39      81      25
      24      84      90      96       2      18      24      30      39      26
      18      24     -30      39      27      18      24     -30      39      18
      18      24     -30      39      28      18      24      84      87       3
      18      24      84      90      29      18      24     -84      90      30
      18      24     -84      90      21      18      24     -84      90       6
     135     132     138     144       2     132     138     144     150       4
     132     138    -144     150       3     132     138    -144     150       5
     132     138    -144     150       6     132     138     144     174       4
     132     138    -144     174       3     132     138    -144     174       5
     132     138    -144     174       6     120     102      96     132      31
     120     102     -96     132      32     120     102     -96     132      33
     120     102     -96     132      34     108     102      96     132      31
     108     102     -96     132      32     108     102     -96     132      33
     108     102     -96     132      34     102      96     132     135       3
     102      96     132     138       4     102      96    -132     138       3
     102      96    -132     138       5     102      96    -132     138       6
      96     132     138     144       2      90      96     102     108      37
      90      96    -102     108      38      90      96    -102     108      33
      90      96    -102     108      39      90      96     102     120      37
      90      96    -102     120      38      90      96    -102     120      33
      90      96    -102     120      39      90      96     132     135       3
      90      96     132     138      29      90      96    -132     138      30
      90      96    -132     138      21      90      96    -132     138       6
     177     174     180     186       2     174     180     186     192       4
     174     180    -186     192       3     174     180    -186     192       5
     174     180    -186     192       6     174     180     186     225       4
     174     180    -186     225       3     174     180    -186     225       5
     174     180    -186     225       6     168     150     144     174      40
     168     150    -144     174      41     168     150    -144     174      42
     168     150    -144     174      43     156     150     144     174      31
     156     150    -144     174      32     156     150    -144     174      33
     156     150    -144     174      34     150     144     174     177       3
     150     144     174     180       4     150     144    -174     180       3
     150     144    -174     180       5     150     144    -174     180       6
     144     174     180     186       2     138     144     150     156      37
     138     144    -150     156      38     138     144    -150     156      33
     138     144    -150     156      39     138     144     150     168      53
     138     144    -150     168      54     138     144    -150     168      42
     138     144    -150     168      55     138     144     174     177       3
     138     144     174     180      29     138     144    -174     180      30
     138     144    -174     180      21     138     144    -174     180       6
     228     225     231     237       2     225     231     237     243       4
     225     231    -237     243       3     225     231    -237     243       5
     225     231    -237     243       6     225     231     237     297       4
     225     231    -237     297       3     225     231    -237     297       5
     225     231    -237     297       6     210     204    -201     219      57
     204     201    -219     216      60     204     210    -216     219      56
     201     192     186     225      61     201     192    -186     225      62
     201     192    -186     225      63     201     192    -186     225      64
     201     204    -210     216      59     201     219    -216     210      58
     192     186     225     228       3     192     186     225     231       4
     192     186    -225     231       3     192     186    -225     231       5
     192     186    -225     231       6     192     201     204     210      57
     192     201     219     216      60     186     192     201     204      65
     186     192    -201     204      66     186     192    -201     204      67
     186     192    -201     204      68     186     192     201     219      69
     186     192    -201     219      70     186     192    -201     219      71
     186     192    -201     219      72     186     225     231     237       2
     180     186     192     201      73     180     186    -192     201      74
     180     186    -192     201      63     180     186    -192     201      75
     180     186     225     228       3     180     186     225     231      29
     180     186    -225     231      30     180     186    -225     231      21
     180     186    -225     231       6     300     297     333     309       2
     297     333     309     303      76     297     333    -309     303      77
     297     333     309     312      78     297     333    -309     312      79
     297     333    -309     312      80     297     333     309     315      78
     297     333    -309     315      79     297     333    -309     315      80
     261     270     276     279      58     261     270    -276     279       6
     261     270     276     288      58     261     270    -276     288       6
     252     243     237     297      20     252     261     270     276       4
     252     261    -270     276       5     243     237     297     300       3
     243     237     297     333       4     243     237    -297     333       3
     243     237    -297     333       5     243     237    -297     333       6
     243     252     261     270      20     237     243     252     261      81
     237     243    -252     261      82     237     243    -252     261      83
     237     297     333     309       2     231     237     243     252      20
     231     237     297     300       3     231     237     297     333      29
     231     237    -297     333      30     231     237    -297     333      21
     231     237    -297     333       6     333     309     303     378      87
     333     309    -303     378      88     330     501     498     492      91
     330     501    -498     492      92     330     501    -498     492      93
     327     330     501     498      95     324     327     330     501      97
     321     324     327     330      90     318     315     309     333      98
     318     321     324     327      97     315     309     303     378      99
     315     309    -303     378     100     315     318     321     324      95
     312     309     303     378      99     312     309    -303     378     100
     312     309     315     318      91     312     309    -315     318      92
     312     309    -315     318      93     309     303     378     384       2
     309     315     318     321      91     309     315    -318     321      92
     309     315    -318     321      93     306     303     309     312     101
     306     303     309     315     101     306     303     309     333      30
     306     303     378     384       2     303     309     315     318      98
     303     378     384     390       4     303     378    -384     390       3
     303     378    -384     390       5     303     378    -384     390       6
     303     378     384     402       4     303     378    -384     402       3
     303     378    -384     402       5     303     378    -384     402       6
     405     402     408     414       2     402     408     414     423       4
     402     408    -414     423       3     402     408    -414     423       5
     402     408    -414     423       6     390     384     402     405       3
     390     384     402     408       4     390     384    -402     408       3
     390     384    -402     408       5     390     384    -402     408       6
     384     402     408     414       2     378     384     402     405       3
     378     384     402     408      29     378     384    -402     408      30
     378     384    -402     408      21     378     384    -402     408       6
     426     423     429     435       2     423     429     435     441       4
     423     429    -435     441       3     423     429    -435     441       5
     423     429    -435     441       6     423     429     435     480       4
     423     429    -435     480       3     423     429    -435     480       5
     423     429    -435     480       6     414     423     429     435       2
     408     414     423     426       3     408     414     423     429      29
     408     414    -423     429      30     408     414    -423     429      21
     408     414    -423     429       6     483     480     504     492       2
     480     504     492     486      76     480     504    -492     486      77
     480     504     492     495      78     480     504    -492     495      79
     480     504    -492     495      80     480     504     492     498      78
     480     504    -492     498      79     480     504    -492     498      80
     450     441     435     480     102     450     441    -435     480     103
     450     441    -435     480     104     450     441    -435     480     105
     441     435     480     483       3     441     435     480     504       4
     441     435    -480     504       3     441     435    -480     504       5
     441     435    -480     504       6     435     441     450     456     106
     435     441    -450     456     107     435     441    -450     456     108
     435     441    -450     456     109     435     441     450     468     106
     435     441    -450     468     107     435     441    -450     468     108
     435     441    -450     468     109     435     480     504     492       2
     429     435     441     450     110     429     435    -441     450     111
     429     435    -441     450     104     429     435    -441     450     112
     429     435     480     483       3     429     435     480     504      29
     429     435    -480     504      30     429     435    -480     504      21
     429     435    -480     504       6     504     492     486     531      87
     504     492    -486     531      88     501     498     492     504      98
     498     492     486     531      99     498     492    -486     531     100
     495     492     486     531      99     495     492    -486     531     100
     495     492     498     501      91     495     492    -498     501      92
     495     492    -498     501      93     492     486     531     537       2
     489     486     492     495     101     489     486     492     498     101
     489     486     492     504      30     489     486     531     537       2
     486     492     498     501      98     486     531     537     543       4
     486     531    -537     543       3     486     531    -537     543       5
     486     531    -537     543       6     486     531     537     558       4
     486     531    -537     558       3     486     531    -537     558       5
     486     531    -537     558       6     561     558     564     570       2
     558     564     570     576       4     558     564    -570     576       3
     558     564    -570     576       5     558     564    -570     576       6
     558     564     570     630       4     558     564    -570     630       3
     558     564    -570     630       5     558     564    -570     630       6
     552     543     537     558     113     552     543    -537     558     114
     552     543    -537     558     115     552     543    -537     558     116
     543     537     558     561       3     543     537     558     564       4
     543     537    -558     564       3     543     537    -558     564       5
     543     537    -558     564       6     537     558     564     570       2
     531     537     543     552     121     531     537    -543     552     122
     531     537    -543     552     115     531     537    -543     552     123
     531     537     558     561       3     531     537     558     564      29
     531     537    -558     564      30     531     537    -558     564      21
     531     537    -558     564       6     633     630     636     642       2
     630     636     642     648       4     630     636    -642     648       3
     630     636    -642     648       5     630     636    -642     648       6
     630     636     642     663       4     630     636    -642     663       3
     630     636    -642     663       5     630     636    -642     663       6
     594     603     609     612      58     594     603    -609     612       6
     594     603     609     621      58     594     603    -609     621       6
     585     576     570     630      20     585     594     603     609       4
     585     594    -603     609       5     576     570     630     633       3
     576     570     630     636       4     576     570    -630     636       3
     576     570    -630     636       5     576     570    -630     636       6
     576     585     594     603      20     570     576     585     594      81
     570     576    -585     594      82     570     576    -585     594      83
     570     630     636     642       2     564     570     576     585      20
     564     570     630     633       3     564     570     630     636      29
     564     570    -630     636      30     564     570    -630     636      21
     564     570    -630     636       6     666     663     669     675       2
     663     669     675     684       4     663     669    -675     684       3
     663     669    -675     684       5     663     669    -675     684       6
     657     648     642     663     113     657     648    -642     663     114
     657     648    -642     663     115     657     648    -642     663     116
     648     642     663     666       3     648     642     663     669       4
     648     642    -663     669       3     648     642    -663     669       5
     648     642    -663     669       6     642     663     669     675       2
     636     642     648     657     121     636     642    -648     657     122
     636     642    -648     657     115     636     642    -648     657     123
     636     642     663     666       3     636     642     663     669      29
     636     642    -663     669      30     636     642    -663     669      21
     636     642    -663     669       6     687     684     690     696       2
     684     690     696     705       4     684     690    -696     705       3
     684     690    -696     705       5     684     690    -696     705       6
     675     684     690     696       2     669     675     684     687       3
     669     675     684     690      29     669     675    -684     690      30
     669     675    -684     690      21     669     675    -684     690       6
     708     705     711     717       2     705     711     717     723       4
     705     711    -717     723       3     705     711    -717     723       5
     705     711    -717     723       6     705     711     717     753       4
     705     711    -717     753       3     705     711    -717     753       5
     705     711    -717     753       6     696     705     711     717       2
     690     696     705     708       3     690     696     705     711      29
     690     696    -705     711      30     690     696    -705     711      21
     690     696    -705     711       6     756     753     759     765       2
     753     759     765     771       4     753     759    -765     771       3
     753     759    -765     771       5     753     759    -765     771       6
     753     759     765     801       4     753     759    -765     801       3
     753     759    -765     801       5     753     759    -765     801       6
     741     723     717     753      31     741     723    -717     753      32
     741     723    -717     753      33     741     723    -717     753      34
     729     723     717     753      31     729     723    -717     753      32
     729     723    -717     753      33     729     723    -717     753      34
     723     717     753     756       3     723     717     753     759       4
     723     717    -753     759       3     723     717    -753     759       5
     723     717    -753     759       6     717     753     759     765       2
     711     717     723     729      37     711     717    -723     729      38
     711     717    -723     729      33     711     717    -723     729      39
     711     717     723     741      37     711     717    -723     741      38
     711     717    -723     741      33     711     717    -723     741      39
     711     717     753     756       3     711     717     753     759      29
     711     717    -753     759      30     711     717    -753     759      21
     711     717    -753     759       6     804     801     807     813       2
     801     807     813     819       4     801     807    -813     819       3
     801     807    -813     819       5     801     807    -813     819       6
     801     807     813     867       4     801     807    -813     867       3
     801     807    -813     867       5     801     807    -813     867       6
     789     771     765     801      31     789     771    -765     801      32
     789     771    -765     801      33     789     771    -765     801      34
     777     771     765     801      31     777     771    -765     801      32
     777     771    -765     801      33     777     771    -765     801      34
     771     765     801     804       3     771     765     801     807       4
     771     765    -801     807       3     771     765    -801     807       5
     771     765    -801     807       6     765     801     807     813       2
     759     765     771     777      37     759     765    -771     777      38
     759     765    -771     777      33     759     765    -771     777      39
     759     765     771     789      37     759     765    -771     789      38
     759     765    -771     789      33     759     765    -771     789      39
     759     765     801     804       3     759     765     801     807      29
     759     765    -801     807      30     759     765    -801     807      21
     759     765    -801     807       6     870     867     873     879       2
     867     873     879     885       4     867     873    -879     885       3
     867     873    -879     885       5     867     873    -879     885       6
     867     873     879     909       4     867     873    -879     909       3
     867     873    -879     909       5     867     873    -879     909       6
     828     819     813     867      20     828     837     846     855      20
     819     813     867     870       3     819     813     867     873       4
     819     813    -867     873       3     819     813    -867     873       5
     819     813    -867     873       6     819     828     837     846      81
     819     828    -837     846      82     819     828    -837     846      83
     813     819     828     837      81     813     819    -828     837      82
     813     819    -828     837      83     813     867     873     879       2
     807     813     819     828      20     807     813     867     870       3
     807     813     867     873      29     807     813    -867     873      30
     807     813    -867     873      21     807     813    -867     873       6
     912     909     915     921       2     909     915     921     927       4
     909     915    -921     927       3     909     915    -921     927       5
     909     915    -921     927       6     909     915     921     951       4
     909     915    -921     951       3     909     915    -921     951       5
     909     915    -921     951       6     894     885     879     909     124
     894     885    -879     909     125     894     885    -879     909     126
     894     885    -879     909     127     885     879     909     912       3
     885     879     909     915       4     885     879    -909     915       3
     885     879    -909     915       5     885     879    -909     915       6
     879     885     894     897       4     879     885     894     900     128
     879     885    -894     900     129     879     885    -894     900     130
     879     885    -894     900     131     879     909     915     921       2
     873     879     885     894     132     873     879    -885     894     133
     873     879    -885     894     126     873     879    -885     894     134
     873     879     909     912       3     873     879     909     915      29
     873     879    -909     915      30     873     879    -909     915      21
     873     879    -909     915       6     954     951     957     963       2
     951     957     963     969       4     951     957    -963     969       3
     951     957    -963     969       5     951     957    -963     969       6
     951     957     963    1011       4     951     957    -963    1011       3
     951     957    -963    1011       5     951     957    -963    1011       6
     936     927     921     951     124     936     927    -921     951     125
     936     927    -921     951     126     936     927    -921     951     127
     927     921     951     954       3     927     921     951     957       4
     927     921    -951     957       3     927     921    -951     957       5
     927     921    -951     957       6     921     927     936     939       4
     921     927     936     942     128     921     927    -936     942     129
     921     927    -936     942     130     921     927    -936     942     131
     921     951     957     963       2     915     921     927     936     132
     915     921    -927     936     133     915     921    -927     936     126
     915     921    -927     936     134     915     921     951     954       3
     915     921     951     957      29     915     921    -951     957      30
     915     921    -951     957      21     915     921    -951     957       6
    1014    1011    1017    1023       2    1011    1017    1023    1029       4
    1011    1017   -1023    1029       3    1011    1017   -1023    1029       5
    1011    1017   -1023    1029       6    1011    1017    1023    1059       4
    1011    1017   -1023    1059       3    1011    1017   -1023    1059       5
    1011    1017   -1023    1059       6     987     981     978    1005       9
     987     993    -999    1005       9     981     978    1005     999       9
     981     987    -993     999       9     978     969     963    1011     135
     978     969    -963    1011     136     978     969    -963    1011     137
     978     969    -963    1011     138     978     981     987     993       9
     978    1005    -999     993       9     969     963    1011    1014       3
     969     963    1011    1017       4     969     963   -1011    1017       3
     969     963   -1011    1017       5     969     963   -1011    1017       6
     969     978     981     987       9     969     978    1005     999       9
     963     969     978     981       4     963     969    -978     981     139
     963     969    -978     981       5     963     969    -978     981     140
     963     969     978    1005       4     963     969    -978    1005     139
     963     969    -978    1005       5     963     969    -978    1005     140
     963    1011    1017    1023       2     957     963     969     978     141
     957     963    -969     978      92     957     963    -969     978     137
     957     963    -969     978     142     957     963    1011    1014       3
     957     963    1011    1017      29     957     963   -1011    1017      30
     957     963   -1011    1017      21     957     963   -1011    1017       6
    1062    1059    1065    1068       2    1062    1059    1065    1095       2
    1059    1065    1068    1077       1    1059    1065   -1068    1077     143
    1059    1065   -1068    1077     144    1059    1065   -1068    1077       6
    1059    1065    1095    1086       4    1059    1065   -1095    1086       3
    1059    1065   -1095    1086       5    1059    1065   -1095    1086       6
    1059    1065    1095    1101       4    1059    1065   -1095    1101       3
    1059    1065   -1095    1101       5    1059    1065   -1095    1101       6
    1047    1029    1023    1059      31    1047    1029   -1023    1059      32
    1047    1029   -1023    1059      33    1047    1029   -1023    1059      34
    1035    1029    1023    1059      31    1035    1029   -1023    1059      32
    1035    1029   -1023    1059      33    1035    1029   -1023    1059      34
    1029    1023    1059    1062       3    1029    1023    1059    1065       4
    1029    1023   -1059    1065       3    1029    1023   -1059    1065       5
    1029    1023   -1059    1065       6    1023    1059    1065    1068       2
    1023    1059    1065    1095       2    1017    1023    1029    1035      37
    1017    1023   -1029    1035      38    1017    1023   -1029    1035      33
    1017    1023   -1029    1035      39    1017    1023    1029    1047      37
    1017    1023   -1029    1047      38    1017    1023   -1029    1047      33
    1017    1023   -1029    1047      39    1017    1023    1059    1062       3
    1017    1023    1059    1065      29    1017    1023   -1059    1065      30
    1017    1023   -1059    1065      21    1017    1023   -1059    1065       6
    1104    1101    1107    1113       2    1101    1107    1113    1119       4
    1101    1107   -1113    1119       3    1101    1107   -1113    1119       5
    1101    1107   -1113    1119       6    1101    1107    1113    1143       4
    1101    1107   -1113    1143       3    1101    1107   -1113    1143       5
    1101    1107   -1113    1143       6    1095    1101    1107    1113       2
    1086    1095    1101    1104       3    1086    1095    1101    1107       4
    1086    1095   -1101    1107       3    1086    1095   -1101    1107       5
    1086    1095   -1101    1107       6    1077    1068   -1065    1095       3
    1077    1086    1095    1101      20    1068    1065   -1095    1086       3
    1068    1065    1095    1101       3    1068    1077   -1086    1095      81
    1068    1077   -1086    1095      82    1068    1077   -1086    1095      83
    1065    1068   -1077    1086      20    1065    1095   -1086    1077      20
    1065    1095    1101    1104       3    1065    1095    1101    1107      29
    1065    1095   -1101    1107      30    1065    1095   -1101    1107      21
    1065    1095   -1101    1107       6    1146    1143    1149    1155       2
    1143    1149    1155    1161       4    1143    1149   -1155    1161       3
    1143    1149   -1155    1161       5    1143    1149   -1155    1161       6
    1143    1149    1155    1179       4    1143    1149   -1155    1179       3
    1143    1149   -1155    1179       5    1143    1149   -1155    1179       6
    1137    1119    1113    1143      40    1137    1119   -1113    1143      41
    1137    1119   -1113    1143      42    1137    1119   -1113    1143      43
    1125    1119    1113    1143      31    1125    1119   -1113    1143      32
    1125    1119   -1113    1143      33    1125    1119   -1113    1143      34
    1119    1113    1143    1146       3    1119    1113    1143    1149       4
    1119    1113   -1143    1149       3    1119    1113   -1143    1149       5
    1119    1113   -1143    1149       6    1113    1143    1149    1155       2
    1107    1113    1119    1125      37    1107    1113   -1119    1125      38
    1107    1113   -1119    1125      33    1107    1113   -1119    1125      39
    1107    1113    1119    1137      53    1107    1113   -1119    1137      54
    1107    1113   -1119    1137      42    1107    1113   -1119    1137      55
    1107    1113    1143    1146       3    1107    1113    1143    1149      29
    1107    1113   -1143    1149      30    1107    1113   -1143    1149      21
    1107    1113   -1143    1149       6    1182    1179    1185    1191       2
    1179    1185    1191    1197       4    1179    1185   -1191    1197       3
    1179    1185   -1191    1197       5    1179    1185   -1191    1197       6
    1179    1185    1191    1227       4    1179    1185   -1191    1227       3
    1179    1185   -1191    1227       5    1179    1185   -1191    1227       6
    1170    1161    1155    1179     145    1170    1161   -1155    1179     146
    1170    1161   -1155    1179     147    1170    1161   -1155    1179     148
    1161    1155    1179    1182       3    1161    1155    1179    1185       4
    1161    1155   -1179    1185       3    1161    1155   -1179    1185       5
    1161    1155   -1179    1185       6    1155    1161    1170    1173       4
    1155    1161   -1170    1173     149    1155    1161   -1170    1173       5
    1155    1161   -1170    1173     150    1155    1161    1170    1176       4
    1155    1161   -1170    1176     149    1155    1161   -1170    1176       5
    1155    1161   -1170    1176     150    1155    1179    1185    1191       2
    1149    1155    1161    1170     151    1149    1155   -1161    1170     152
    1149    1155   -1161    1170     147    1149    1155   -1161    1170      75
    1149    1155    1179    1182       3    1149    1155    1179    1185      29
    1149    1155   -1179    1185      30    1149    1155   -1179    1185      21
    1149    1155   -1179    1185       6    1230    1227    1233    1239       2
    1227    1233    1239    1248       4    1227    1233   -1239    1248       3
    1227    1233   -1239    1248       5    1227    1233   -1239    1248       6
    1215    1197    1191    1227      31    1215    1197   -1191    1227      32
    1215    1197   -1191    1227      33    1215    1197   -1191    1227      34
    1203    1197    1191    1227      31    1203    1197   -1191    1227      32
    1203    1197   -1191    1227      33    1203    1197   -1191    1227      34
    1197    1191    1227    1230       3    1197    1191    1227    1233       4
    1197    1191   -1227    1233       3    1197    1191   -1227    1233       5
    1197    1191   -1227    1233       6    1191    1227    1233    1239       2
    1185    1191    1197    1203      37    1185    1191   -1197    1203      38
    1185    1191   -1197    1203      33    1185    1191   -1197    1203      39
    1185    1191    1197    1215      37    1185    1191   -1197    1215      38
    1185    1191   -1197    1215      33    1185    1191   -1197    1215      39
    1185    1191    1227    1230       3    1185    1191    1227    1233      29
    1185    1191   -1227    1233      30    1185    1191   -1227    1233      21
    1185    1191   -1227    1233       6    1251    1248    1254    1257       2
    1251    1248    1254    1284       2    1248    1254    1257    1266       1
    1248    1254   -1257    1266     143    1248    1254   -1257    1266     144
    1248    1254   -1257    1266       6    1248    1254    1284    1275       4
    1248    1254   -1284    1275       3    1248    1254   -1284    1275       5
    1248    1254   -1284    1275       6    1248    1254    1284    1290       4
    1248    1254   -1284    1290       3    1248    1254   -1284    1290       5
    1248    1254   -1284    1290       6    1239    1248    1254    1257       2
    1239    1248    1254    1284       2    1233    1239    1248    1251       3
    1233    1239    1248    1254      29    1233    1239   -1248    1254      30
    1233    1239   -1248    1254      21    1233    1239   -1248    1254       6
    1293    1290    1296    1302       2    1290    1296    1302    1308       4
    1290    1296   -1302    1308       3    1290    1296   -1302    1308       5
    1290    1296   -1302    1308       6    1290    1296    1302    1350       4
    1290    1296   -1302    1350       3    1290    1296   -1302    1350       5
    1290    1296   -1302    1350       6    1284    1290    1296    1302       2
    1275    1284    1290    1293       3    1275    1284    1290    1296       4
    1275    1284   -1290    1296       3    1275    1284   -1290    1296       5
    1275    1284   -1290    1296       6    1266    1257   -1254    1284       3
    1266    1275    1284    1290      20    1257    1254   -1284    1275       3
    1257    1254    1284    1290       3    1257    1266   -1275    1284      81
    1257    1266   -1275    1284      82    1257    1266   -1275    1284      83
    1254    1257   -1266    1275      20    1254    1284   -1275    1266      20
    1254    1284    1290    1293       3    1254    1284    1290    1296      29
    1254    1284   -1290    1296      30    1254    1284   -1290    1296      21
    1254    1284   -1290    1296       6    1353    1350    1356    1362       2
    1350    1356    1362    1368       4    1350    1356   -1362    1368       3
    1350    1356   -1362    1368       5    1350    1356   -1362    1368       6
    1350    1356    1362    1380       4    1350    1356   -1362    1380       3
    1350    1356   -1362    1380       5    1350    1356   -1362    1380       6
    1326    1320    1317    1344       9    1326    1332   -1338    1344       9
    1320    1317    1344    1338       9    1320    1326   -1332    1338       9
    1317    1308    1302    1350     135    1317    1308   -1302    1350     136
    1317    1308   -1302    1350     137    1317    1308   -1302    1350     138
    1317    1320    1326    1332       9    1317    1344   -1338    1332       9
    1308    1302    1350    1353       3    1308    1302    1350    1356       4
    1308    1302   -1350    1356       3    1308    1302   -1350    1356       5
    1308    1302   -1350    1356       6    1308    1317    1320    1326       9
    1308    1317    1344    1338       9    1302    1308    1317    1320       4
    1302    1308   -1317    1320     139    1302    1308   -1317    1320       5
    1302    1308   -1317    1320     140    1302    1308    1317    1344       4
    1302    1308   -1317    1344     139    1302    1308   -1317    1344       5
    1302    1308   -1317    1344     140    1302    1350    1356    1362       2
    1296    1302    1308    1317     141    1296    1302   -1308    1317      92
    1296    1302   -1308    1317     137    1296    1302   -1308    1317     142
    1296    1302    1350    1353       3    1296    1302    1350    1356      29
    1296    1302   -1350    1356      30    1296    1302   -1350    1356      21
    1296    1302   -1350    1356       6    1383    1380    1386    1392       2
    1380    1386    1392    1398       4    1380    1386   -1392    1398       3
    1380    1386   -1392    1398       5    1380    1386   -1392    1398       6
    1380    1386    1392    1440       4    1380    1386   -1392    1440       3
    1380    1386   -1392    1440       5    1380    1386   -1392    1440       6
    1368    1362    1380    1383       3    1368    1362    1380    1386       4
    1368    1362   -1380    1386       3    1368    1362   -1380    1386       5
    1368    1362   -1380    1386       6    1362    1380    1386    1392       2
    1356    1362    1380    1383       3    1356    1362    1380    1386      29
    1356    1362   -1380    1386      30    1356    1362   -1380    1386      21
    1356    1362   -1380    1386       6    1416    1410    1407    1434       9
    1416    1422   -1428    1434       9    1410    1407    1434    1428       9
    1410    1416   -1422    1428       9    1407    1398    1392    1440     135
    1407    1398   -1392    1440     136    1407    1398   -1392    1440     137
    1407    1398   -1392    1440     138    1407    1410    1416    1422       9
    1407    1434   -1428    1422       9    1398    1392    1440    1443       3
    1398    1392    1440    1446       4    1398    1392   -1440    1446       3
    1398    1392   -1440    1446       5    1398    1392   -1440    1446       6
    1398    1407    1410    1416       9    1398    1407    1434    1428       9
    1392    1398    1407    1410       4    1392    1398   -1407    1410     139
    1392    1398   -1407    1410       5    1392    1398   -1407    1410     140
    1392    1398    1407    1434       4    1392    1398   -1407    1434     139
    1392    1398   -1407    1434       5    1392    1398   -1407    1434     140
    1386    1392    1398    1407     141    1386    1392   -1398    1407      92
    1386    1392   -1398    1407     137    1386    1392   -1398    1407     142
    1386    1392    1440    1443       3    1386    1392    1440    1446      29
    1386    1392   -1440    1446      30    1386    1392   -1440    1446      21
    1386    1392   -1440    1446       6       3      18     -12     -15     153
      24      90     -84     -87     153      39      54     -81     -75     154
      48      57     -54     -81     154      81      30     -39     -42     155
      96     138    -132    -135     153     144     180    -174    -177     153
     186     231    -225    -228     153     192     219    -201    -204     155
     237     333    -297    -300     153     270     279    -276    -288     153
     309     378    -303    -306     155     384     408    -402    -405     153
     414     429    -423    -426     153     435     504    -480    -483     153
     492     531    -486    -489     155     537     564    -558    -561     153
     570     636    -630    -633     153     603     612    -609    -621     153
     642     669    -663    -666     153     675     690    -684    -687     153
     696     711    -705    -708     153     717     759    -753    -756     153
     765     807    -801    -804     153     813     873    -867    -870     153
     879     915    -909    -912     153     885     900    -894    -897     153
     921     957    -951    -954     153     927     942    -936    -939     153
     963    1017   -1011   -1014     153     981    1005    -978    -969     155
    1023    1065   -1059   -1062     153    1095    1107   -1101   -1104     153
    1059    1068   -1065   -1095     156    1113    1149   -1143   -1146     153
    1155    1185   -1179   -1182     153    1161    1173   -1170   -1176     153
    1191    1233   -1227   -1230     153    1239    1254   -1248   -1251     153
    1284    1296   -1290   -1293     153    1248    1257   -1254   -1284     156
    1302    1356   -1350   -1353     153    1320    1344   -1317   -1308     155
    1362    1386   -1380   -1383     153    1392    1446   -1440   -1443     153
    1410    1434   -1407   -1398     155
%FLAG EXCLUDED_ATOMS_LIST                                                       
%FORMAT(10I8)                                                                   
       2       3       4       5       6       7       3       4       5       6
       7       8       9       4       5       6       7       5       6       7
       6       7       8       9      10      11      29       7       8       9
       8       9      10      11      12      13      14      29      30      31
       9      10      11      29      10      11      12      13      14      15
      28      29      30      31      32      33      11      12      13      14
      29      30      31      12      13      14      15      16      17      19
      26      28      29      30      31      13      14      15      28      29
      14      15      28      29      15      16      17      18      19      20
      24      26      27      28      29      16      17      18      19      20
      26      28      17      18      19      28      18      19      20      21
      22      26      28      19      20      28      20      21      22      23
      24      26      27      28      21      22      23      24      25      26
      28      22      23      24      28      23      24      25      26      27
      28      24      25      26      25      26      27      28      26      27
      28      27      28      28       0      30      31      32      33      34
      35      45      31      32      33      32      33      34      35      36
      37      41      45      46      47      33      34      35      45      34
      35      36      37      38      39      40      41      42      43      44
      45      46      47      48      49      35      36      37      41      45
      46      47      36      37      38      39      40      41      42      43
      44      45      46      47      37      38      39      40      41      42
      43      44      45      38      39      40      41      42      43      44
      45      39      40      41      40      41      41      42      43      44
      45      43      44      44       0      46      47      48      49      50
      51      59      47      48      49      48      49      50      51      52
      53      57      59      60      61      49      50      51      59      50
      51      52      53      54      55      56      57      58      59      60
      61      62      63      51      52      53      57      59      60      61
      52      53      54      55      56      57      58      59      60      61
      53      54      55      56      57      58      59      54      55      56
      57      58      59      55      56      57      56      57      57      58
      59       0      60      61      62      63      64      65      76      61
      62      63      62      63      64      65      66      67      68      76
      77      78      63      64      65      76      64      65      66      67
      68      69      74      76      77      78      79      80      65      66
      67      68      76      77      78      66      67      68      69      70
      71      73      74      75      76      77      78      67      68      69
      74      76      68      69      74      76      69      70      71      72
      73      74      75      76      70      71      72      73      74      75
      71      72      73      74      72      73      74      75      73      74
      74      75      75       0      77      78      79      80      81      82
     100      78      79      80      79      80      81      82      83      84
      85     100     101     112      80      81      82     100      81      82
      83      84      85      86      87      88     100     101     104     112
     126      82      83      84      85     100     101     112      83      84
      85      86      87      88      89      90      91     100     101     112
      84      85      86      87      88     100      85      86      87      88
     100      86      87      88      89      90      91      92      93     100
      87      88      89      90      91      88      89      90      91      89
      90      91      92      93      94      97      90      91      92      93
      91      92      93      92      93      94      95      96      97      98
      99      93      94      97      94      95      96      97      98      99
      95      96      97      98      99      96      97      97      98      99
      99       0     101     102     104     105     106     112     126     104
     112     126     103     104     105     106     107     112     113     114
     115     116     117     126     127     128     129     130     131     135
     104     105     106     112     127     128     129     105     106     107
     108     112     113     114     115     116     117     118     119     126
     127     128     129     106     107     112     113     114     115     116
     117     126     127     107     108     109     112     113     114     115
     116     117     118     119     120     121     126     127     108     109
     110     112     116     117     118     119     120     121     122     109
     110     111     116     117     118     119     120     121     122     123
     110     111     118     119     120     121     122     123     124     125
     168     111     120     121     122     123     124     125     167     168
     175     176     122     123     124     125     165     167     168     173
     174     175     176     113     114     115     116     117     126     127
     114     115     115       0     117     118     119     118     119     119
     120     121     120     121     121     122     122     123     124     125
     168     125     167     168     175     176     167     168     175     176
       0     128     129     130     131     132     133     134     135     136
     137     129     130     131     135     130     131     132     133     134
     135     136     137     138     139     131     132     133     134     135
     136     137     132     133     134     135     136     137     133     134
     135     134     135     135     136     137     138     139     140     141
     142     137     138     139     138     139     140     141     142     143
     144     139     140     141     142     140     141     142     143     144
     145     146     141     142     143     144     142     143     144     143
     144     145     146     147     148     161     144     145     146     145
     146     147     148     149     150     151     161     162     169     146
     147     148     161     147     148     149     150     151     152     153
     157     161     162     165     169     177     148     149     150     151
     161     162     169     149     150     151     152     153     154     155
     156     157     158     159     160     161     162     169     150     151
     152     153     157     161     151     152     153     157     161     152
     153     154     155     156     157     158     159     160     161     153
     154     155     156     157     158     159     160     154     155     156
     157     158     159     160     155     156     157     156     157     157
     158     159     160     159     160     160       0     162     163     165
     166     167     169     177     165     169     177     164     165     166
     167     168     169     170     171     172     173     174     177     178
     179     180     181     182     187     165     166     167     169     178
     179     180     166     167     168     169     170     171     172     173
     174     175     176     177     178     179     180     167     168     169
     170     171     172     173     174     177     178     168     169     170
     171     172     173     174     175     176     177     178     169     173
     174     175     176     170     171     172     173     174     177     178
     171     172     172       0     174     175     176     175     176     176
       0       0     179     180     181     182     183     184     185     187
     188     189     180     181     182     187     181     182     183     184
     185     186     187     188     189     190     191     182     183     184
     185     187     188     189     183     184     185     186     187     188
     189     184     185     186     187     185     186     187     186     187
       0     188     189     190     191     192     193     211     189     190
     191     190     191     192     193     194     195     196     211     212
     213     191     192     193     211     192     193     194     195     196
     197     198     199     211     212     213     214     215     193     194
     195     196     211     212     213     194     195     196     197     198
     199     200     201     202     211     212     213     195     196     197
     198     199     211     196     197     198     199     211     197     198
     199     200     201     202     203     204     211     198     199     200
     201     202     199     200     201     202     200     201     202     203
     204     205     208     201     202     203     204     202     203     204
     203     204     205     206     207     208     209     210     204     205
     208     205     206     207     208     209     210     206     207     208
     209     210     207     208     208     209     210     210       0     212
     213     214     215     216     217     222     213     214     215     214
     215     216     217     218     219     220     222     223     224     215
     216     217     222     216     217     218     219     220     221     222
     223     224     225     226     217     218     219     220     222     223
     224     218     219     220     221     222     223     224     219     220
     221     222     220     221     222     221     222       0     223     224
     225     226     227     228     229     224     225     226     225     226
     227     228     229     230     231     226     227     228     229     227
     228     229     230     231     232     233     228     229     230     231
     229     230     231     230     231     232     233     234     235     236
     231     232     233     232     233     234     235     236     237     238
     233     234     235     236     234     235     236     237     238     239
     240     235     236     237     238     236     237     238     237     238
     239     240     241     242     252     238     239     240     239     240
     241     242     243     244     248     252     253     254     240     241
     242     252     241     242     243     244     245     246     247     248
     249     250     251     252     253     254     255     256     242     243
     244     248     252     253     254     243     244     245     246     247
     248     249     250     251     252     253     254     244     245     246
     247     248     249     250     251     252     245     246     247     248
     249     250     251     252     246     247     248     247     248     248
     249     250     251     252     250     251     251       0     253     254
     255     256     257     258     268     254     255     256     255     256
     257     258     259     260     264     268     269     270     256     257
     258     268     257     258     259     260     261     262     263     264
     265     266     267     268     269     270     271     272     258     259
     260     264     268     269     270     259     260     261     262     263
     264     265     266     267     268     269     270     260     261     262
     263     264     265     266     267     268     261     262     263     264
     265     266     267     268     262     263     264     263     264     264
     265     266     267     268     266     267     267       0     269     270
     271     272     273     274     290     270     271     272     271     272
     273     274     275     276     277     290     291     292     272     273
     274     290     273     274     275     276     277     278     279     280
     290     291     292     293     294     274     275     276     277     290
     291     292     275     276     277     278     279     280     281     282
     283     290     291     292     276     277     278     279     280     290
     277     278     279     280     290     278     279     280     281     282
     283     284     285     286     290     279     280     281     282     283
     280     281     282     283     281     282     283     284     285     286
     287     288     289     282     283     284     285     286     283     284
     285     286     284     285     286     287     288     289     285     286
     287     288     289     286     287     288     289     287     288     289
     288     289     289       0     291     292     293     294     295     296
     304     292     293     294     293     294     295     296     297     298
     299     304     305     306     294     295     296     304     295     296
     297     298     299     300     301     304     305     306     307     308
     296     297     298     299     304     305     306     297     298     299
     300     301     302     303     304     305     306     298     299     300
     301     304     299     300     301     304     300     301     302     303
     304     301     302     303     302     303     303       0     305     306
     307     308     309     310     318     306     307     308     307     308
     309     310     311     312     313     318     319     320     308     309
     310     318     309     310     311     312     313     314     315     318
     319     320     321     322     310     311     312     313     318     319
     320     311     312     313     314     315     316     317     318     319
     320     312     313     314     315     318     313     314     315     318
     314     315     316     317     318     315     316     317     316     317
     317       0     319     320     321     322     323     324     338     320
     321     322     321     322     323     324     325     326     327     338
     339     340     322     323     324     338     323     324     325     326
     327     328     336     338     339     340     341     342     324     325
     326     327     338     339     340     325     326     327     328     329
     330     334     336     337     338     339     340     326     327     328
     336     338     327     328     336     338     328     329     330     331
     332     334     335     336     337     338     329     330     331     332
     333     334     336     337     330     331     332     336     331     332
     333     334     335     336     332     333     334     333     334     335
     336     337     334     335     336     335     336     337     336     337
     337       0     339     340     341     342     343     344     354     340
     341     342     341     342     343     344     345     346     350     354
     355     356     342     343     344     354     343     344     345     346
     347     348     349     350     351     352     353     354     355     356
     357     366     344     345     346     350     354     355     356     345
     346     347     348     349     350     351     352     353     354     355
     356     346     347     348     349     350     351     352     353     354
     347     348     349     350     351     352     353     354     348     349
     350     349     350     350     351     352     353     354     352     353
     353       0     355     356     357     358     359     360     363     366
     367     368     356     357     366     357     358     359     360     361
     362     363     364     365     366     367     368     369     370     358
     359     360     361     362     363     364     365     366     367     368
     359     360     361     362     363     366     360     361     362     363
     366     361     362     363     364     365     366     367     368     362
     363     364     365     366     363     364     365     366     364     365
     366     367     368     369     370     365     366     367     368     366
     367     368     367     368     369     370     371     372     368     369
     370     369     370     371     372     373     374     382     370     371
     372     371     372     373     374     375     376     380     382     383
     384     372     373     374     382     373     374     375     376     377
     378     379     380     381     382     383     384     385     386     374
     375     376     380     382     383     384     375     376     377     378
     379     380     381     382     383     384     376     377     378     379
     380     381     382     377     378     379     380     381     382     378
     379     380     379     380     380     381     382       0     383     384
     385     386     387     388     394     384     385     386     385     386
     387     388     389     390     391     394     395     396     386     387
     388     394     387     388     389     390     391     392     393     394
     395     396     397     398     388     389     390     391     394     395
     396     389     390     391     392     393     394     395     396     390
     391     392     393     394     391     392     393     394     392     393
     394     393       0     395     396     397     398     399     400     410
     396     397     398     397     398     399     400     401     402     406
     410     411     412     398     399     400     410     399     400     401
     402     403     404     405     406     407     408     409     410     411
     412     413     414     400     401     402     406     410     411     412
     401     402     403     404     405     406     407     408     409     410
     411     412     402     403     404     405     406     407     408     409
     410     403     404     405     406     407     408     409     410     404
     405     406     405     406     406     407     408     409     410     408
     409     409       0     411     412     413     414     415     416     417
     412     413     414     413     414     415     416     417     418     419
     414     415     416     417     415     416     417     418     419     420
     429     416     417     418     419     417     418     419     418     419
     420     421     422     423     426     429     430     431     419     420
     429     420     421     422     423     424     425     426     427     428
     429     430     431     432     433     421     422     423     424     425
     426     427     428     429     430     431     422     423     424     425
     426     429     423     424     425     426     429     424     425     426
     427     428     429     430     431     425     426     427     428     429
     426     427     428     429     427     428     429     430     431     432
     433     428     429     430     431     429     430     431     430     431
     432     433     434     435     431     432     433     432     433     434
     435     436     437     451     433     434     435     434     435     436
     437     438     439     440     451     452     453     435     436     437
     451     436     437     438     439     440     441     449     451     452
     453     454     455     437     438     439     440     451     452     453
     438     439     440     441     442     443     447     449     450     451
     452     453     439     440     441     449     451     440     441     449
     451     441     442     443     444     445     447     448     449     450
     451     442     443     444     445     446     447     449     450     443
     444     445     449     444     445     446     447     448     449     445
     446     447     446     447     448     449     450     447     448     449
     448     449     450     449     450     450       0     452     453     454
     455     456     457     461     453     454     455     454     455     456
     457     458     459     460     461     462     463     455     456     457
     461     456     457     458     459     460     461     462     463     464
     465     457     458     459     460     461     462     463     458     459
     460     461     462     463     459     460     461     460     461     461
     462     463     464     465     466     467     481     463     464     465
     464     465     466     467     468     469     470     481     482     483
     465     466     467     481     466     467     468     469     470     471
     479     481     482     483     484     485     467     468     469     470
     481     482     483     468     469     470     471     472     473     477
     479     480     481     482     483     469     470     471     479     481
     470     471     479     481     471     472     473     474     475     477
     478     479     480     481     472     473     474     475     476     477
     479     480     473     474     475     479     474     475     476     477
     478     479     475     476     477     476     477     478     479     480
     477     478     479     478     479     480     479     480     480       0
     482     483     484     485     483     484     485     484     485     485
       0       0       0       0       0       0       0       0       0       0
       0       0       0       0       0       0       0       0       0       0
       0       0       0       0       0       0       0       0       0       0
       0       0       0       0       0       0       0       0       0       0
       0       0       0       0       0     531     532     533     532     533
     533       0     535     536     537     536     537     537       0     539
     540     541     540     541     541       0     543     544     545     544
     545     545       0     547     548     549     548     549     549       0
     551     552     553     552     553     553       0     555     556     557
     556     557     557       0     559     560     561     560     561     561
       0     563     564     565     564     565     565       0     567     568
     569     568     569     569       0     571     572     573     572     573
     573       0     575     576     577     576     577     577       0     579
     580     581     580     581     581       0     583     584     585     584
     585     585       0     587     588     589     588     589     589       0
     591     592     593     592     593     593       0     595     596     597
     596     597     597       0     599     600     601     600     601     601
       0     603     604     605     604     605     605       0     607     608
     609     608     609     609       0     611     612     613     612     613
     613       0     615     616     617     616     617     617       0     619
     620     621     620     621     621       0     623     624     625     624
     625     625       0     627     628     629     628     629     629       0
     631     632     633     632     633     633       0     635     636     637
     636     637     637       0     639     640     641     640     641     641
       0     643     644     645     644     645     645       0     647     648
     649     648     649     649       0     651     652     653     652     653
     653       0     655     656     657     656     657     657       0     659
     660     661     660     661     661       0     663     664     665     664
     665     665       0     667     668     669     668     669     669       0
     671     672     673     672     673     673       0     675     676     677
     676     677     677       0     679     680     681     680     681     681
       0     683     684     685     684     685     685       0     687     688
     689     688     689     689       0     691     692     693     692     693
     693       0     695     696     697     696     697     697       0     699
     700     701     700     701     701       0     703     704     705     704
     705     705       0     707     708     709     708     709     709       0
     711     712     713     712     713     713       0     715     716     717
     716     717     717       0     719     720     721     720     721     721
       0     723     724     725     724     725     725       0     727     728
     729     728     729     729       0     731     732     733     732     733
     733       0     735     736     737     736     737     737       0     739
     740     741     740     741     741       0     743     744     745     744
     745     745       0     747     748     749     748     749     749       0
     751     752     753     752     753     753       0     755     756     757
     756     757     757       0     759     760     761     760     761     761
       0     763     764     765     764     765     765       0     767     768
     769     768     769     769       0     771     772     773     772     773
     773       0     775     776     777     776     777     777       0     779
     780     781     780     781     781       0     783     784     785     784
     785     785       0     787     788     789     788     789     789       0
     791     792     793     792     793     793       0     795     796     797
     796     797     797       0     799     800     801     800     801     801
       0     803     804     805     804     805     805       0     807     808
     809     808     809     809       0     811     812     813     812     813
     813       0     815     816     817     816     817     817       0     819
     820     821     820     821     821       0     823     824     825     824
     825     825       0     827     828     829     828     829     829       0
     831     832     833     832     833     833       0     835     836     837
     836     837     837       0     839     840     841     840     841     841
       0     843     844     845     844     845     845       0     847     848
     849     848     849     849       0     851     852     853     852     853
     853       0     855     856     857     856     857     857       0     859
     860     861     860     861     861       0     863     864     865     864
     865     865       0     867     868     869     868     869     869       0
     871     872     873     872     873     873       0     875     876     877
     876     877     877       0     879     880     881     880     881     881
       0     883     884     885     884     885     885       0     887     888
     889     888     889     889       0     891     892     893     892     893
     893       0     895     896     897     896     897     897       0     899
     900     901     900     901     901       0     903     904     905     904
     905     905       0     907     908     909     908     909     909       0
     911     912     913     912     913     913       0     915     916     917
     916     917     917       0     919     920     921     920     921     921
       0     923     924     925     924     925     925       0     927     928
     929     928     929     929       0     931     932     933     932     933
     933       0     935     936     937     936     937     937       0     939
     940     941     940     941     941       0     943     944     945     944
     945     945       0     947     948     949     948     949     949       0
     951     952     953     952     953     953       0     955     956     957
     956     957     957       0     959     960     961     960     961     961
       0     963     964     965     964     965     965       0     967     968
     969     968     969     969       0     971     972     973     972     973
     973       0     975     976     977     976     977     977       0     979
     980     981     980     981     981       0     983     984     985     984
     985     985       0     987     988     989     988     989     989       0
     991     992     993     992     993     993       0     995     996     997
     996     997     997       0     999    1000    1001    1000    1001    1001
       0    1003    1004    1005    1004    1005    1005       0    1007    1008
    1009    1008    1009    1009       0    1011    1012    1013    1012    1013
    1013       0    1015    1016    1017    1016    1017    1017       0    1019
    1020    1021    1020    1021    1021       0    1023    1024    1025    1024
    1025    1025       0    1027    1028    1029    1028    1029    1029       0
    1031    1032    1033    1032    1033    1033       0    1035    1036    1037
    1036    1037    1037       0    1039    1040    1041    1040    1041    1041
       0    1043    1044    1045    1044    1045    1045       0    1047    1048
    1049    1048    1049    1049       0    1051    1052    1053    1052    1053
    1053       0    1055    1056    1057    1056    1057    1057       0    1059
    1060    1061    1060    1061    1061       0    1063    1064    1065    1064
    1065    1065       0    1067    1068    1069    1068    1069    1069       0
    1071    1072    1073    1072    1073    1073       0    1075    1076    1077
    1076    1077    1077       0    1079    1080    1081    1080    1081    1081
       0    1083    1084    1085    1084    1085    1085       0    1087    1088
    1089    1088    1089    1089       0    1091    1092    1093    1092    1093
    1093       0    1095    1096    1097    1096    1097    1097       0    1099
    1100    1101    1100    1101    1101       0    1103    1104    1105    1104
    1105    1105       0    1107    1108    1109    1108    1109    1109       0
    1111    1112    1113    1112    1113    1113       0    1115    1116    1117
    1116    1117    1117       0    1119    1120    1121    1120    1121    1121
       0    1123    1124    1125    1124    1125    1125       0    1127    1128
    1129    1128    1129    1129       0    1131    1132    1133    1132    1133
    1133       0    1135    1136    1137    1136    1137    1137       0    1139
    1140    1141    1140    1141    1141       0    1143    1144    1145    1144
    1145    1145       0    1147    1148    1149    1148    1149    1149       0
    1151    1152    1153    1152    1153    1153       0    1155    1156    1157
    1156    1157    1157       0    1159    1160    1161    1160    1161    1161
       0    1163    1164    1165    1164    1165    1165       0    1167    1168
    1169    1168    1169    1169       0    1171    1172    1173    1172    1173
    1173       0    1175    1176    1177    1176    1177    1177       0    1179
    1180    1181    1180    1181    1181       0    1183    1184    1185    1184
    1185    1185       0    1187    1188    1189    1188    1189    1189       0
    1191    1192    1193    1192    1193    1193       0    1195    1196    1197
    1196    1197    1197       0    1199    1200    1201    1200    1201    1201
       0    1203    1204    1205    1204    1205    1205       0    1207    1208
    1209    1208    1209    1209       0    1211    1212    1213    1212    1213
    1213       0    1215    1216    1217    1216    1217    1217       0    1219
    1220    1221    1220    1221    1221       0    1223    1224    1225    1224
    1225    1225       0    1227    1228    1229    1228    1229    1229       0
    1231    1232    1233    1232    1233    1233       0    1235    1236    1237
    1236    1237    1237       0    1239    1240    1241    1240    1241    1241
       0    1243    1244    1245    1244    1245    1245       0    1247    1248
    1249    1248    1249    1249       0    1251    1252    1253    1252    1253
    1253       0    1255    1256    1257    1256    1257    1257       0    1259
    1260    1261    1260    1261    1261       0    1263    1264    1265    1264
    1265    1265       0    1267    1268    1269    1268    1269    1269       0
    1271    1272    1273    1272    1273    1273       0    1275    1276    1277
    1276    1277    1277       0    1279    1280    1281    1280    1281    1281
       0    1283    1284    1285    1284    1285    1285       0    1287    1288
    1289    1288    1289    1289       0    1291    1292    1293    1292    1293
    1293       0    1295    1296    1297    1296    1297    1297       0    1299
    1300    1301    1300    1301    1301       0    1303    1304    1305    1304
    1305    1305       0    1307    1308    1309    1308    1309    1309       0
    1311    1312    1313    1312    1313    1313       0    1315    1316    1317
    1316    1317    1317       0    1319    1320    1321    1320    1321    1321
       0    1323    1324    1325    1324    1325    1325       0    1327    1328
    1329    1328    1329    1329       0    1331    1332    1333    1332    1333
    1333       0    1335    1336    1337    1336    1337    1337       0    1339
    1340    1341    1340    1341    1341       0    1343    1344    1345    1344
    1345    1345       0    1347    1348    1349    1348    1349    1349       0
    1351    1352    1353    1352    1353    1353       0    1355    1356    1357
    1356    1357    1357       0    1359    1360    1361    1360    1361    1361
       0    1363    1364    1365    1364    1365    1365       0    1367    1368
    1369    1368    1369    1369       0    1371    1372    1373    1372    1373
    1373       0    1375    1376    1377    1376    1377    1377       0    1379
    1380    1381    1380    1381    1381       0    1383    1384    1385    1384
    1385    1385       0    1387    1388    1389    1388    1389    1389       0
    1391    1392    1393    1392    1393    1393       0    1395    1396    1397
    1396    1397    1397       0    1399    1400    1401    1400    1401    1401
       0    1403    1404    1405    1404    1405    1405       0    1407    1408
    1409    1408    1409    1409       0    1411    1412    1413    1412    1413
    1413       0    1415    1416    1417    1416    1417    1417       0    1419
    1420    1421    1420    1421    1421       0    1423    1424    1425    1424
    1425    1425       0    1427    1428    1429    1428    1429    1429       0
    1431    1432    1433    1432    1433    1433       0    1435    1436    1437
    1436    1437    1437       0    1439    1440    1441    1440    1441    1441
       0    1443    1444    1445    1444    1445    1445       0    1447    1448
    1449    1448    1449    1449       0    1451    1452    1453    1452    1453
    1453       0    1455    1456    1457    1456    1457    1457       0    1459
    1460    1461    1460    1461    1461       0    1463    1464    1465    1464
    1465    1465       0    1467    1468    1469    1468    1469    1469       0
    1471    1472    1473    1472    1473    1473       0    1475    1476    1477
    1476    1477    1477       0    1479    1480    1481    1480    1481    1481
       0    1483    1484    1485    1484    1485    1485       0    1487    1488
    1489    1488    1489    1489       0    1491    1492    1493    1492    1493
    1493       0    1495    1496    1497    1496    1497    1497       0    1499
    1500    1501    1500    1501    1501       0    1503    1504    1505    1504
    1505    1505       0    1507    1508    1509    1508    1509    1509       0
    1511    1512    1513    1512    1513    1513       0    1515    1516    1517
    1516    1517    1517       0    1519    1520    1521    1520    1521    1521
       0    1523    1524    1525    1524    1525    1525       0    1527    1528
    1529    1528    1529    1529       0    1531    1532    1533    1532    1533
    1533       0    1535    1536    1537    1536    1537    1537       0    1539
    1540    1541    1540    1541    1541       0    1543    1544    1545    1544
    1545    1545       0    1547    1548    1549    1548    1549    1549       0
    1551    1552    1553    1552    1553    1553       0    1555    1556    1557
    1556    1557    1557       0    1559    1560    1561    1560    1561    1561
       0    1563    1564    1565    1564    1565    1565       0    1567    1568
    1569    1568    1569    1569       0    1571    1572    1573    1572    1573
    1573       0    1575    1576    1577    1576    1577    1577       0    1579
    1580    1581    1580    1581    1581       0    1583    1584    1585    1584
    1585    1585       0    1587    1588    1589    1588    1589    1589       0
    1591    1592    1593    1592    1593    1593       0    1595    1596    1597
    1596    1597    1597       0    1599    1600    1601    1600    1601    1601
       0    1603    1604    1605    1604    1605    1605       0    1607    1608
    1609    1608    1609    1609       0    1611    1612    1613    1612    1613
    1613       0    1615    1616    1617    1616    1617    1617       0    1619
    1620    1621    1620    1621    1621       0    1623    1624    1625    1624
    1625    1625       0    1627    1628    1629    1628    1629    1629       0
    1631    1632    1633    1632    1633    1633       0    1635    1636    1637
    1636    1637    1637       0    1639    1640    1641    1640    1641    1641
       0    1643    1644    1645    1644    1645    1645       0    1647    1648
    1649    1648    1649    1649       0    1651    1652    1653    1652    1653
    1653       0    1655    1656    1657    1656    1657    1657       0    1659
    1660    1661    1660    1661    1661       0    1663    1664    1665    1664
    1665    1665       0    1667    1668    1669    1668    1669    1669       0
    1671    1672    1673    1672    1673    1673       0    1675    1676    1677
    1676    1677    1677       0    1679    1680    1681    1680    1681    1681
       0    1683    1684    1685    1684    1685    1685       0    1687    1688
    1689    1688    1689    1689       0    1691    1692    1693    1692    1693
    1693       0    1695    1696    1697    1696    1697    1697       0    1699
    1700    1701    1700    1701    1701       0    1703    1704    1705    1704
    1705    1705       0    1707    1708    1709    1708    1709    1709       0
    1711    1712    1713    1712    1713    1713       0    1715    1716    1717
    1716    1717    1717       0    1719    1720    1721    1720    1721    1721
       0    1723    1724    1725    1724    1725    1725       0    1727    1728
    1729    1728    1729    1729       0    1731    1732    1733    1732    1733
    1733       0    1735    1736    1737    1736    1737    1737       0    1739
    1740    1741    1740    1741    1741       0    1743    1744    1745    1744
    1745    1745       0    1747    1748    1749    1748    1749    1749       0
    1751    1752    1753    1752    1753    1753       0    1755    1756    1757
    1756    1757    1757       0    1759    1760    1761    1760    1761    1761
       0    1763    1764    1765    1764    1765    1765       0    1767    1768
    1769    1768    1769    1769       0    1771    1772    1773    1772    1773
    1773       0    1775    1776    1777    1776    1777    1777       0    1779
    1780    1781    1780    1781    1781       0    1783    1784    1785    1784
    1785    1785       0    1787    1788    1789    1788    1789    1789       0
    1791    1792    1793    1792    1793    1793       0    1795    1796    1797
    1796    1797    1797       0    1799    1800    1801    1800    1801    1801
       0    1803    1804    1805    1804    1805    1805       0    1807    1808
    1809    1808    1809    1809       0    1811    1812    1813    1812    1813
    1813       0    1815    1816    1817    1816    1817    1817       0    1819
    1820    1821    1820    1821    1821       0    1823    1824    1825    1824
    1825    1825       0    1827    1828    1829    1828    1829    1829       0
    1831    1832    1833    1832    1833    1833       0    1835    1836    1837
    1836    1837    1837       0    1839    1840    1841    1840    1841    1841
       0    1843    1844    1845    1844    1845    1845       0    1847    1848
    1849    1848    1849    1849       0    1851    1852    1853    1852    1853
    1853       0    1855    1856    1857    1856    1857    1857       0    1859
    1860    1861    1860    1861    1861       0    1863    1864    1865    1864
    1865    1865       0    1867    1868    1869    1868    1869    1869       0
    1871    1872    1873    1872    1873    1873       0    1875    1876    1877
    1876    1877    1877       0    1879    1880    1881    1880    1881    1881
       0    1883    1884    1885    1884    1885    1885       0    1887    1888
    1889    1888    1889    1889       0    1891    1892    1893    1892    1893
    1893       0    1895    1896    1897    1896    1897    1897       0    1899
    1900    1901    1900    1901    1901       0    1903    1904    1905    1904
    1905    1905       0    1907    1908    1909    1908    1909    1909       0
    1911    1912    1913    1912    1913    1913       0    1915    1916    1917
    1916    1917    1917       0    1919    1920    1921    1920    1921    1921
       0    1923    1924    1925    1924    1925    1925       0    1927    1928
    1929    1928    1929    1929       0    1931    1932    1933    1932    1933
    1933       0    1935    1936    1937    1936    1937    1937       0    1939
    1940    1941    1940    1941    1941       0    1943    1944    1945    1944
    1945    1945       0    1947    1948    1949    1948    1949    1949       0
    1951    1952    1953    1952    1953    1953       0    1955    1956    1957
    1956    1957    1957       0    1959    1960    1961    1960    1961    1961
       0    1963    1964    1965    1964    1965    1965       0    1967    1968
    1969    1968    1969    1969       0    1971    1972    1973    1972    1973
    1973       0    1975    1976    1977    1976    1977    1977       0    1979
    1980    1981    1980    1981    1981       0    1983    1984    1985    1984
    1985    1985       0    1987    1988    1989    1988    1989    1989       0
    1991    1992    1993    1992    1993    1993       0    1995    1996    1997
    1996    1997    1997       0    1999    2000    2001    2000    2001    2001
       0    2003    2004    2005    2004    2005    2005       0    2007    2008
    2009    2008    2009    2009       0    2011    2012    2013    2012    2013
    2013       0    2015    2016    2017    2016    2017    2017       0    2019
    2020    2021    2020    2021    2021       0    2023    2024    2025    2024
    2025    2025       0    2027    2028    2029    2028    2029    2029       0
    2031    2032    2033    2032    2033    2033       0    2035    2036    2037
    2036    2037    2037       0    2039    2040    2041    2040    2041    2041
       0    2043    2044    2045    2044    2045    2045       0    2047    2048
    2049    2048    2049    2049       0    2051    2052    2053    2052    2053
    2053       0    2055    2056    2057    2056    2057    2057       0    2059
    2060    2061    2060    2061    2061       0    2063    2064    2065    2064
    2065    2065       0    2067    2068    2069    2068    2069    2069       0
    2071    2072    2073    2072    2073    2073       0    2075    2076    2077
    2076    2077    2077       0    2079    2080    2081    2080    2081    2081
       0    2083    2084    2085    2084    2085    2085       0    2087    2088
    2089    2088    2089    2089       0    2091    2092    2093    2092    2093
    2093       0    2095    2096    2097    2096    2097    2097       0    2099
    2100    2101    2100    2101    2101       0    2103    2104    2105    2104
    2105    2105       0    2107    2108    2109    2108    2109    2109       0
    2111    2112    2113    2112    2113    2113       0    2115    2116    2117
    2116    2117    2117       0    2119    2120    2121    2120    2121    2121
       0    2123    2124    2125    2124    2125    2125       0    2127    2128
    2129    2128    2129    2129       0    2131    2132    2133    2132    2133
    2133       0    2135    2136    2137    2136    2137    2137       0    2139
    2140    2141    2140    2141    2141       0    2143    2144    2145    2144
    2145    2145       0    2147    2148    2149    2148    2149    2149       0
    2151    2152    2153    2152    2153    2153       0    2155    2156    2157
    2156    2157    2157       0    2159    2160    2161    2160    2161    2161
       0    2163    2164    2165    2164    2165    2165       0    2167    2168
    2169    2168    2169    2169       0    2171    2172    2173    2172    2173
    2173       0    2175    2176    2177    2176    2177    2177       0    2179
    2180    2181    2180    2181    2181       0    2183    2184    2185    2184
    2185    2185       0    2187    2188    2189    2188    2189    2189       0
    2191    2192    2193    2192    2193    2193       0    2195    2196    2197
    2196    2197    2197       0    2199    2200    2201    2200    2201    2201
       0    2203    2204    2205    2204    2205    2205       0    2207    2208
    2209    2208    2209    2209       0    2211    2212    2213    2212    2213
    2213       0    2215    2216    2217    2216    2217    2217       0    2219
    2220    2221    2220    2221    2221       0    2223    2224    2225    2224
    2225    2225       0    2227    2228    2229    2228    2229    2229       0
    2231    2232    2233    2232    2233    2233       0    2235    2236    2237
    2236    2237    2237       0    2239    2240    2241    2240    2241    2241
       0    2243    2244    2245    2244    2245    2245       0    2247    2248
    2249    2248    2249    2249       0    2251    2252    2253    2252    2253
    2253       0    2255    2256    2257    2256    2257    2257       0    2259
    2260    2261    2260    2261    2261       0    2263    2264    2265    2264
    2265    2265       0    2267    2268    2269    2268    2269    2269       0
    2271    2272    2273    2272    2273    2273       0    2275    2276    2277
    2276    2277    2277       0    2279    2280    2281    2280    2281    2281
       0    2283    2284    2285    2284    2285    2285       0    2287    2288
    2289    2288    2289    2289       0    2291    2292    2293    2292    2293
    2293       0    2295    2296    2297    2296    2297    2297       0    2299
    2300    2301    2300    2301    2301       0    2303    2304    2305    2304
    2305    2305       0    2307    2308    2309    2308    2309    2309       0
    2311    2312    2313    2312    2313    2313       0    2315    2316    2317
    2316    2317    2317       0    2319    2320    2321    2320    2321    2321
       0    2323    2324    2325    2324    2325    2325       0    2327    2328
    2329    2328    2329    2329       0    2331    2332    2333    2332    2333
    2333       0    2335    2336    2337    2336    2337    2337       0    2339
    2340    2341    2340    2341    2341       0    2343    2344    2345    2344
    2345    2345       0    2347    2348    2349    2348    2349    2349       0
    2351    2352    2353    2352    2353    2353       0    2355    2356    2357
    2356    2357    2357       0    2359    2360    2361    2360    2361    2361
       0    2363    2364    2365    2364    2365    2365       0    2367    2368
    2369    2368    2369    2369       0    2371    2372    2373    2372    2373
    2373       0    2375    2376    2377    2376    2377    2377       0    2379
    2380    2381    2380    2381    2381       0    2383    2384    2385    2384
    2385    2385       0    2387    2388    2389    2388    2389    2389       0
    2391    2392    2393    2392    2393    2393       0    2395    2396    2397
    2396    2397    2397       0    2399    2400    2401    2400    2401    2401
       0    2403    2404    2405    2404    2405    2405       0    2407    2408
    2409    2408    2409    2409       0    2411    2412    2413    2412    2413
    2413       0    2415    2416    2417    2416    2417    2417       0    2419
    2420    2421    2420    2421    2421       0    2423    2424    2425    2424
    2425    2425       0    2427    2428    2429    2428    2429    2429       0
    2431    2432    2433    2432    2433    2433       0    2435    2436    2437
    2436    2437    2437       0    2439    2440    2441    2440    2441    2441
       0    2443    2444    2445    2444    2445    2445       0    2447    2448
    2449    2448    2449    2449       0    2451    2452    2453    2452    2453
    2453       0    2455    2456    2457    2456    2457    2457       0    2459
    2460    2461    2460    2461    2461       0    2463    2464    2465    2464
    2465    2465       0    2467    2468    2469    2468    2469    2469       0
    2471    2472    2473    2472    2473    2473       0    2475    2476    2477
    2476    2477    2477       0    2479    2480    2481    2480    2481    2481
       0    2483    2484    2485    2484    2485    2485       0    2487    2488
    2489    2488    2489    2489       0    2491    2492    2493    2492    2493
    2493       0    2495    2496    2497    2496    2497    2497       0    2499
    2500    2501    2500    2501    2501       0    2503    2504    2505    2504
    2505    2505       0    2507    2508    2509    2508    2509    2509       0
    2511    2512    2513    2512    2513    2513       0    2515    2516    2517
    2516    2517    2517       0    2519    2520    2521    2520    2521    2521
       0    2523    2524    2525    2524    2525    2525       0    2527    2528
    2529    2528    2529    2529       0    2531    2532    2533    2532    2533
    2533       0    2535    2536    2537    2536    2537    2537       0    2539
    2540    2541    2540    2541    2541       0    2543    2544    2545    2544
    2545    2545       0    2547    2548    2549    2548    2549    2549       0
    2551    2552    2553    2552    2553    2553       0    2555    2556    2557
    2556    2557    2557       0    2559    2560    2561    2560    2561    2561
       0    2563    2564    2565    2564    2565    2565       0    2567    2568
    2569    2568    2569    2569       0    2571    2572    2573    2572    2573
    2573       0    2575    2576    2577    2576    2577    2577       0    2579
    2580    2581    2580    2581    2581       0    2583    2584    2585    2584
    2585    2585       0    2587    2588    2589    2588    2589    2589       0
    2591    2592    2593    2592    2593    2593       0    2595    2596    2597
    2596    2597    2597       0    2599    2600    2601    2600    2601    2601
       0    2603    2604    2605    2604    2605    2605       0    2607    2608
    2609    2608    2609    2609       0    2611    2612    2613    2612    2613
    2613       0    2615    2616    2617    2616    2617    2617       0    2619
    2620    2621    2620    2621    2621       0    2623    2624    2625    2624
    2625    2625       0    2627    2628    2629    2628    2629    2629       0
    2631    2632    2633    2632    2633    2633       0    2635    2636    2637
    2636    2637    2637       0    2639    2640    2641    2640    2641    2641
       0    2643    2644    2645    2644    2645    2645       0    2647    2648
    2649    2648    2649    2649       0    2651    2652    2653    2652    2653
    2653       0    2655    2656    2657    2656    2657    2657       0    2659
    2660    2661    2660    2661    2661       0    2663    2664    2665    2664
    2665    2665       0    2667    2668    2669    2668    2669    2669       0
    2671    2672    2673    2672    2673    2673       0    2675    2676    2677
    2676    2677    2677       0    2679    2680    2681    2680    2681    2681
       0    2683    2684    2685    2684    2685    2685       0    2687    2688
    2689    2688    2689    2689       0    2691    2692    2693    2692    2693
    2693       0    2695    2696    2697    2696    2697    2697       0    2699
    2700    2701    2700    2701    2701       0    2703    2704    2705    2704
    2705    2705       0    2707    2708    2709    2708    2709    2709       0
    2711    2712    2713    2712    2713    2713       0    2715    2716    2717
    2716    2717    2717       0    2719    2720    2721    2720    2721    2721
       0    2723    2724    2725    2724    2725    2725       0    2727    2728
    2729    2728    2729    2729       0    2731    2732    2733    2732    2733
    2733       0    2735    2736    2737    2736    2737    2737       0    2739
    2740    2741    2740    2741    2741       0    2743    2744    2745    2744
    2745    2745       0    2747    2748    2749    2748    2749    2749       0
    2751    2752    2753    2752    2753    2753       0    2755    2756    2757
    2756    2757    2757       0    2759    2760    2761    2760    2761    2761
       0    2763    2764    2765    2764    2765    2765       0    2767    2768
    2769    2768    2769    2769       0    2771    2772    2773    2772    2773
    2773       0    2775    2776    2777    2776    2777    2777       0    2779
    2780    2781    2780    2781    2781       0    2783    2784    2785    2784
    2785    2785       0    2787    2788    2789    2788    2789    2789       0
    2791    2792    2793    2792    2793    2793       0    2795    2796    2797
    2796    2797    2797       0    2799    2800    2801    2800    2801    2801
       0    2803    2804    2805    2804    2805    2805       0    2807    2808
    2809    2808    2809    2809       0    2811    2812    2813    2812    2813
    2813       0    2815    2816    2817    2816    2817    2817       0    2819
    2820    2821    2820    2821    2821       0    2823    2824    2825    2824
    2825    2825       0    2827    2828    2829    2828    2829    2829       0
    2831    2832    2833    2832    2833    2833       0    2835    2836    2837
    2836    2837    2837       0    2839    2840    2841    2840    2841    2841
       0    2843    2844    2845    2844    2845    2845       0    2847    2848
    2849    2848    2849    2849       0    2851    2852    2853    2852    2853
    2853       0    2855    2856    2857    2856    2857    2857       0    2859
    2860    2861    2860    2861    2861       0    2863    2864    2865    2864
    2865    2865       0    2867    2868    2869    2868    2869    2869       0
    2871    2872    2873    2872    2873    2873       0    2875    2876    2877
    2876    2877    2877       0    2879    2880    2881    2880    2881    2881
       0    2883    2884    2885    2884    2885    2885       0    2887    2888
    2889    2888    2889    2889       0    2891    2892    2893    2892    2893
    2893       0    2895    2896    2897    2896    2897    2897       0    2899
    2900    2901    2900    2901    2901       0    2903    2904    2905    2904
    2905    2905       0    2907    2908    2909    2908    2909    2909       0
    2911    2912    2913    2912    2913    2913       0    2915    2916    2917
    2916    2917    2917       0    2919    2920    2921    2920    2921    2921
       0    2923    2924    2925    2924    2925    2925       0    2927    2928
    2929    2928    2929    2929       0    2931    2932    2933    2932    2933
    2933       0    2935    2936    2937    2936    2937    2937       0    2939
    2940    2941    2940    2941    2941       0    2943    2944    2945    2944
    2945    2945       0    2947    2948    2949    2948    2949    2949       0
    2951    2952    2953    2952    2953    2953       0    2955    2956    2957
    2956    2957    2957       0    2959    2960    2961    2960    2961    2961
       0    2963    2964    2965    2964    2965    2965       0    2967    2968
    2969    2968    2969    2969       0    2971    2972    2973    2972    2973
    2973       0    2975    2976    2977    2976    2977    2977       0    2979
    2980    2981    2980    2981    2981       0    2983    2984    2985    2984
    2985    2985       0    2987    2988    2989    2988    2989    2989       0
    2991    2992    2993    2992    2993    2993       0    2995    2996    2997
    2996    2997    2997       0    2999    3000    3001    3000    3001    3001
       0    3003    3004    3005    3004    3005    3005       0    3007    3008
    3009    3008    3009    3009       0    3011    3012    3013    3012    3013
    3013       0    3015    3016    3017    3016    3017    3017       0    3019
    3020    3021    3020    3021    3021       0    3023    3024    3025    3024
    3025    3025       0    3027    3028    3029    3028    3029    3029       0
    3031    3032    3033    3032    3033    3033       0    3035    3036    3037
    3036    3037    3037       0    3039    3040    3041    3040    3041    3041
       0    3043    3044    3045    3044    3045    3045       0    3047    3048
    3049    3048    3049    3049       0    3051    3052    3053    3052    3053
    3053       0    3055    3056    3057    3056    3057    3057       0    3059
    3060    3061    3060    3061    3061       0    3063    3064    3065    3064
    3065    3065       0    3067    3068    3069    3068    3069    3069       0
    3071    3072    3073    3072    3073    3073       0    3075    3076    3077
    3076    3077    3077       0    3079    3080    3081    3080    3081    3081
       0    3083    3084    3085    3084    3085    3085       0    3087    3088
    3089    3088    3089    3089       0    3091    3092    3093    3092    3093
    3093       0    3095    3096    3097    3096    3097    3097       0    3099
    3100    3101    3100    3101    3101       0    3103    3104    3105    3104
    3105    3105       0    3107    3108    3109    3108    3109    3109       0
    3111    3112    3113    3112    3113    3113       0    3115    3116    3117
    3116    3117    3117       0    3119    3120    3121    3120    3121    3121
       0    3123    3124    3125    3124    3125    3125       0    3127    3128
    3129    3128    3129    3129       0    3131    3132    3133    3132    3133
    3133       0    3135    3136    3137    3136    3137    3137       0    3139
    3140    3141    3140    3141    3141       0    3143    3144    3145    3144
    3145    3145       0    3147    3148    3149    3148    3149    3149       0
    3151    3152    3153    3152    3153    3153       0    3155    3156    3157
    3156    3157    3157       0    3159    3160    3161    3160    3161    3161
       0    3163    3164    3165    3164    3165    3165       0    3167    3168
    3169    3168    3169    3169       0    3171    3172    3173    3172    3173
    3173       0    3175    3176    3177    3176    3177    3177       0    3179
    3180    3181    3180    3181    3181       0    3183    3184    3185    3184
    3185    3185       0    3187    3188    3189    3188    3189    3189       0
    3191    3192    3193    3192    3193    3193       0    3195    3196    3197
    3196    3197    3197       0    3199    3200    3201    3200    3201    3201
       0    3203    3204    3205    3204    3205    3205       0    3207    3208
    3209    3208    3209    3209       0    3211    3212    3213    3212    3213
    3213       0    3215    3216    3217    3216    3217    3217       0    3219
    3220    3221    3220    3221    3221       0    3223    3224    3225    3224
    3225    3225       0    3227    3228    3229    3228    3229    3229       0
    3231    3232    3233    3232    3233    3233       0    3235    3236    3237
    3236    3237    3237       0    3239    3240    3241    3240    3241    3241
       0    3243    3244    3245    3244    3245    3245       0    3247    3248
    3249    3248    3249    3249       0    3251    3252    3253    3252    3253
    3253       0    3255    3256    3257    3256    3257    3257       0    3259
    3260    3261    3260    3261    3261       0    3263    3264    3265    3264
    3265    3265       0    3267    3268    3269    3268    3269    3269       0
    3271    3272    3273    3272    3273    3273       0    3275    3276    3277
    3276    3277    3277       0    3279    3280    3281    3280    3281    3281
       0    3283    3284    3285    3284    3285    3285       0    3287    3288
    3289    3288    3289    3289       0    3291    3292    3293    3292    3293
    3293       0    3295    3296    3297    3296    3297    3297       0    3299
    3300    3301    3300    3301    3301       0    3303    3304    3305    3304
    3305    3305       0    3307    3308    3309    3308    3309    3309       0
    3311    3312    3313    3312    3313    3313       0    3315    3316    3317
    3316    3317    3317       0    3319    3320    3321    3320    3321    3321
       0    3323    3324    3325    3324    3325    3325       0    3327    3328
    3329    3328    3329    3329       0    3331    3332    3333    3332    3333
    3333       0    3335    3336    3337    3336    3337    3337       0    3339
    3340    3341    3340    3341    3341       0    3343    3344    3345    3344
    3345    3345       0    3347    3348    3349    3348    3349    3349       0
    3351    3352    3353    3352    3353    3353       0    3355    3356    3357
    3356    3357    3357       0    3359    3360    3361    3360    3361    3361
       0    3363    3364    3365    3364    3365    3365       0    3367    3368
    3369    3368    3369    3369       0    3371    3372    3373    3372    3373
    3373       0    3375    3376    3377    3376    3377    3377       0    3379
    3380    3381    3380    3381    3381       0    3383    3384    3385    3384
    3385    3385       0    3387    3388    3389    3388    3389    3389       0
    3391    3392    3393    3392    3393    3393       0    3395    3396    3397
    3396    3397    3397       0    3399    3400    3401    3400    3401    3401
       0    3403    3404    3405    3404    3405    3405       0    3407    3408
    3409    3408    3409    3409       0    3411    3412    3413    3412    3413
    3413       0    3415    3416    3417    3416    3417    3417       0    3419
    3420    3421    3420    3421    3421       0    3423    3424    3425    3424
    3425    3425       0    3427    3428    3429    3428    3429    3429       0
    3431    3432    3433    3432    3433    3433       0    3435    3436    3437
    3436    3437    3437       0    3439    3440    3441    3440    3441    3441
       0    3443    3444    3445    3444    3445    3445       0    3447    3448
    3449    3448    3449    3449       0    3451    3452    3453    3452    3453
    3453       0    3455    3456    3457    3456    3457    3457       0    3459
    3460    3461    3460    3461    3461       0    3463    3464    3465    3464
    3465    3465       0    3467    3468    3469    3468    3469    3469       0
    3471    3472    3473    3472    3473    3473       0    3475    3476    3477
    3476    3477    3477       0    3479    3480    3481    3480    3481    3481
       0    3483    3484    3485    3484    3485    3485       0    3487    3488
    3489    3488    3489    3489       0    3491    3492    3493    3492    3493
    3493       0    3495    3496    3497    3496    3497    3497       0    3499
    3500    3501    3500    3501    3501       0    3503    3504    3505    3504
    3505    3505       0    3507    3508    3509    3508    3509    3509       0
    3511    3512    3513    3512    3513    3513       0    3515    3516    3517
    3516    3517    3517       0    3519    3520    3521    3520    3521    3521
       0    3523    3524    3525    3524    3525    3525       0    3527    3528
    3529    3528    3529    3529       0    3531    3532    3533    3532    3533
    3533       0    3535    3536    3537    3536    3537    3537       0    3539
    3540    3541    3540    3541    3541       0    3543    3544    3545    3544
    3545    3545       0    3547    3548    3549    3548    3549    3549       0
    3551    3552    3553    3552    3553    3553       0    3555    3556    3557
    3556    3557    3557       0    3559    3560    3561    3560    3561    3561
       0    3563    3564    3565    3564    3565    3565       0    3567    3568
    3569    3568    3569    3569       0    3571    3572    3573    3572    3573
    3573       0    3575    3576    3577    3576    3577    3577       0    3579
    3580    3581    3580    3581    3581       0    3583    3584    3585    3584
    3585    3585       0    3587    3588    3589    3588    3589    3589       0
    3591    3592    3593    3592    3593    3593       0    3595    3596    3597
    3596    3597    3597       0    3599    3600    3601    3600    3601    3601
       0    3603    3604    3605    3604    3605    3605       0    3607    3608
    3609    3608    3609    3609       0    3611    3612    3613    3612    3613
    3613       0    3615    3616    3617    3616    3617    3617       0    3619
    3620    3621    3620    3621    3621       0    3623    3624    3625    3624
    3625    3625       0    3627    3628    3629    3628    3629    3629       0
    3631    3632    3633    3632    3633    3633       0    3635    3636    3637
    3636    3637    3637       0    3639    3640    3641    3640    3641    3641
       0    3643    3644    3645    3644    3645    3645       0    3647    3648
    3649    3648    3649    3649       0    3651    3652    3653    3652    3653
    3653       0    3655    3656    3657    3656    3657    3657       0    3659
    3660    3661    3660    3661    3661       0    3663    3664    3665    3664
    3665    3665       0    3667    3668    3669    3668    3669    3669       0
    3671    3672    3673    3672    3673    3673       0    3675    3676    3677
    3676    3677    3677       0    3679    3680    3681    3680    3681    3681
       0    3683    3684    3685    3684    3685    3685       0    3687    3688
    3689    3688    3689    3689       0    3691    3692    3693    3692    3693
    3693       0    3695    3696    3697    3696    3697    3697       0    3699
    3700    3701    3700    3701    3701       0    3703    3704    3705    3704
    3705    3705       0    3707    3708    3709    3708    3709    3709       0
    3711    3712    3713    3712    3713    3713       0    3715    3716    3717
    3716    3717    3717       0    3719    3720    3721    3720    3721    3721
       0    3723    3724    3725    3724    3725    3725       0    3727    3728
    3729    3728    3729    3729       0    3731    3732    3733    3732    3733
    3733       0    3735    3736    3737    3736    3737    3737       0    3739
    3740    3741    3740    3741    3741       0    3743    3744    3745    3744
    3745    3745       0    3747    3748    3749    3748    3749    3749       0
    3751    3752    3753    3752    3753    3753       0    3755    3756    3757
    3756    3757    3757       0    3759    3760    3761    3760    3761    3761
       0    3763    3764    3765    3764    3765    3765       0    3767    3768
    3769    3768    3769    3769       0    3771    3772    3773    3772    3773
    3773       0    3775    3776    3777    3776    3777    3777       0    3779
    3780    3781    3780    3781    3781       0    3783    3784    3785    3784
    3785    3785       0    3787    3788    3789    3788    3789    3789       0
    3791    3792    3793    3792    3793    3793       0    3795    3796    3797
    3796    3797    3797       0    3799    3800    3801    3800    3801    3801
       0    3803    3804    3805    3804    3805    3805       0    3807    3808
    3809    3808    3809    3809       0    3811    3812    3813    3812    3813
    3813       0    3815    3816    3817    3816    3817    3817       0    3819
    3820    3821    3820    3821    3821       0    3823    3824    3825    3824
    3825    3825       0    3827    3828    3829    3828    3829    3829       0
    3831    3832    3833    3832    3833    3833       0    3835    3836    3837
    3836    3837    3837       0    3839    3840    3841    3840    3841    3841
       0    3843    3844    3845    3844    3845    3845       0    3847    3848
    3849    3848    3849    3849       0    3851    3852    3853    3852    3853
    3853       0    3855    3856    3857    3856    3857    3857       0    3859
    3860    3861    3860    3861    3861       0    3863    3864    3865    3864
    3865    3865       0    3867    3868    3869    3868    3869    3869       0
    3871    3872    3873    3872    3873    3873       0    3875    3876    3877
    3876    3877    3877       0    3879    3880    3881    3880    3881    3881
       0    3883    3884    3885    3884    3885    3885       0    3887    3888
    3889    3888    3889    3889       0    3891    3892    3893    3892    3893
    3893       0    3895    3896    3897    3896    3897    3897       0    3899
    3900    3901    3900    3901    3901       0    3903    3904    3905    3904
    3905    3905       0    3907    3908    3909    3908    3909    3909       0
    3911    3912    3913    3912    3913    3913       0    3915    3916    3917
    3916    3917    3917       0    3919    3920    3921    3920    3921    3921
       0    3923    3924    3925    3924    3925    3925       0    3927    3928
    3929    3928    3929    3929       0    3931    3932    3933    3932    3933
    3933       0    3935    3936    3937    3936    3937    3937       0    3939
    3940    3941    3940    3941    3941       0    3943    3944    3945    3944
    3945    3945       0    3947    3948    3949    3948    3949    3949       0
    3951    3952    3953    3952    3953    3953       0    3955    3956    3957
    3956    3957    3957       0    3959    3960    3961    3960    3961    3961
       0    3963    3964    3965    3964    3965    3965       0    3967    3968
    3969    3968    3969    3969       0    3971    3972    3973    3972    3973
    3973       0    3975    3976    3977    3976    3977    3977       0    3979
    3980    3981    3980    3981    3981       0    3983    3984    3985    3984
    3985    3985       0    3987    3988    3989    3988    3989    3989       0
    3991    3992    3993    3992    3993    3993       0    3995    3996    3997
    3996    3997    3997       0    3999    4000    4001    4000    4001    4001
       0    4003    4004    4005    4004    4005    4005       0    4007    4008
    4009    4008    4009    4009       0    4011    4012    4013    4012    4013
    4013       0    4015    4016    4017    4016    4017    4017       0    4019
    4020    4021    4020    4021    4021       0    4023    4024    4025    4024
    4025    4025       0    4027    4028    4029    4028    4029    4029       0
    4031    4032    4033    4032    4033    4033       0    4035    4036    4037
    4036    4037    4037       0    4039    4040    4041    4040    4041    4041
       0    4043    4044    4045    4044    4045    4045       0    4047    4048
    4049    4048    4049    4049       0    4051    4052    4053    4052    4053
    4053       0    4055    4056    4057    4056    4057    4057       0    4059
    4060    4061    4060    4061    4061       0    4063    4064    4065    4064
    4065    4065       0    4067    4068    4069    4068    4069    4069       0
    4071    4072    4073    4072    4073    4073       0    4075    4076    4077
    4076    4077    4077       0    4079    4080    4081    4080    4081    4081
       0    4083    4084    4085    4084    4085    4085       0    4087    4088
    4089    4088    4089    4089       0    4091    4092    4093    4092    4093
    4093       0    4095    4096    4097    4096    4097    4097       0    4099
    4100    4101    4100    4101    4101       0    4103    4104    4105    4104
    4105    4105       0    4107    4108    4109    4108    4109    4109       0
    4111    4112    4113    4112    4113    4113       0    4115    4116    4117
    4116    4117    4117       0    4119    4120    4121    4120    4121    4121
       0    4123    4124    4125    4124    4125    4125       0    4127    4128
    4129    4128    4129    4129       0    4131    4132    4133    4132    4133
    4133       0    4135    4136    4137    4136    4137    4137       0    4139
    4140    4141    4140    4141    4141       0    4143    4144    4145    4144
    4145    4145       0    4147    4148    4149    4148    4149    4149       0
    4151    4152    4153    4152    4153    4153       0    4155    4156    4157
    4156    4157    4157       0    4159    4160    4161    4160    4161    4161
       0    4163    4164    4165    4164    4165    4165       0    4167    4168
    4169    4168    4169    4169       0    4171    4172    4173    4172    4173
    4173       0    4175    4176    4177    4176    4177    4177       0    4179
    4180    4181    4180    4181    4181       0    4183    4184    4185    4184
    4185    4185       0    4187    4188    4189    4188    4189    4189       0
    4191    4192    4193    4192    4193    4193       0    4195    4196    4197
    4196    4197    4197       0    4199    4200    4201    4200    4201    4201
       0    4203    4204    4205    4204    4205    4205       0    4207    4208
    4209    4208    4209    4209       0    4211    4212    4213    4212    4213
    4213       0    4215    4216    4217    4216    4217    4217       0    4219
    4220    4221    4220    4221    4221       0    4223    4224    4225    4224
    4225    4225       0    4227    4228    4229    4228    4229    4229       0
    4231    4232    4233    4232    4233    4233       0    4235    4236    4237
    4236    4237    4237       0    4239    4240    4241    4240    4241    4241
       0    4243    4244    4245    4244    4245    4245       0    4247    4248
    4249    4248    4249    4249       0    4251    4252    4253    4252    4253
    4253       0    4255    4256    4257    4256    4257    4257       0    4259
    4260    4261    4260    4261    4261       0    4263    4264    4265    4264
    4265    4265       0    4267    4268    4269    4268    4269    4269       0
    4271    4272    4273    4272    4273    4273       0    4275    4276    4277
    4276    4277    4277       0    4279    4280    4281    4280    4281    4281
       0    4283    4284    4285    4284    4285    4285       0    4287    4288
    4289    4288    4289    4289       0    4291    4292    4293    4292    4293
    4293       0    4295    4296    4297    4296    4297    4297       0    4299
    4300    4301    4300    4301    4301       0    4303    4304    4305    4304
    4305    4305       0    4307    4308    4309    4308    4309    4309       0
    4311    4312    4313    4312    4313    4313       0    4315    4316    4317
    4316    4317    4317       0    4319    4320    4321    4320    4321    4321
       0    4323    4324    4325    4324    4325    4325       0    4327    4328
    4329    4328    4329    4329       0    4331    4332    4333    4332    4333
    4333       0    4335    4336    4337    4336    4337    4337       0    4339
    4340    4341    4340    4341    4341       0    4343    4344    4345    4344
    4345    4345       0    4347    4348    4349    4348    4349    4349       0
    4351    4352    4353    4352    4353    4353       0    4355    4356    4357
    4356    4357    4357       0    4359    4360    4361    4360    4361    4361
       0    4363    4364    4365    4364    4365    4365       0    4367    4368
    4369    4368    4369    4369       0    4371    4372    4373    4372    4373
    4373       0    4375    4376    4377    4376    4377    4377       0    4379
    4380    4381    4380    4381    4381       0    4383    4384    4385    4384
    4385    4385       0    4387    4388    4389    4388    4389    4389       0
    4391    4392    4393    4392    4393    4393       0    4395    4396    4397
    4396    4397    4397       0    4399    4400    4401    4400    4401    4401
       0    4403    4404    4405    4404    4405    4405       0    4407    4408
    4409    4408    4409    4409       0    4411    4412    4413    4412    4413
    4413       0    4415    4416    4417    4416    4417    4417       0    4419
    4420    4421    4420    4421    4421       0    4423    4424    4425    4424
    4425    4425       0    4427    4428    4429    4428    4429    4429       0
    4431    4432    4433    4432    4433    4433       0    4435    4436    4437
    4436    4437    4437       0    4439    4440    4441    4440    4441    4441
       0    4443    4444    4445    4444    4445    4445       0    4447    4448
    4449    4448    4449    4449       0    4451    4452    4453    4452    4453
    4453       0    4455    4456    4457    4456    4457    4457       0    4459
    4460    4461    4460    4461    4461       0    4463    4464    4465    4464
    4465    4465       0    4467    4468    4469    4468    4469    4469       0
    4471    4472    4473    4472    4473    4473       0    4475    4476    4477
    4476    4477    4477       0    4479    4480    4481    4480    4481    4481
       0    4483    4484    4485    4484    4485    4485       0    4487    4488
    4489    4488    4489    4489       0    4491    4492    4493    4492    4493
    4493       0    4495    4496    4497    4496    4497    4497       0    4499
    4500    4501    4500    4501    4501       0    4503    4504    4505    4504
    4505    4505       0    4507    4508    4509    4508    4509    4509       0
    4511    4512    4513    4512    4513    4513       0    4515    4516    4517
    4516    4517    4517       0    4519    4520    4521    4520    4521    4521
       0    4523    4524    4525    4524    4525    4525       0    4527    4528
    4529    4528    4529    4529       0    4531    4532    4533    4532    4533
    4533       0    4535    4536    4537    4536    4537    4537       0    4539
    4540    4541    4540    4541    4541       0    4543    4544    4545    4544
    4545    4545       0    4547    4548    4549    4548    4549    4549       0
    4551    4552    4553    4552    4553    4553       0    4555    4556    4557
    4556    4557    4557       0    4559    4560    4561    4560    4561    4561
       0    4563    4564    4565    4564    4565    4565       0    4567    4568
    4569    4568    4569    4569       0    4571    4572    4573    4572    4573
    4573       0    4575    4576    4577    4576    4577    4577       0    4579
    4580    4581    4580    4581    4581       0    4583    4584    4585    4584
    4585    4585       0    4587    4588    4589    4588    4589    4589       0
    4591    4592    4593    4592    4593    4593       0    4595    4596    4597
    4596    4597    4597       0    4599    4600    4601    4600    4601    4601
       0    4603    4604    4605    4604    4605    4605       0    4607    4608
    4609    4608    4609    4609       0    4611    4612    4613    4612    4613
    4613       0    4615    4616    4617    4616    4617    4617       0    4619
    4620    4621    4620    4621    4621       0    4623    4624    4625    4624
    4625    4625       0    4627    4628    4629    4628    4629    4629       0
    4631    4632    4633    4632    4633    4633       0    4635    4636    4637
    4636    4637    4637       0    4639    4640    4641    4640    4641    4641
       0    4643    4644    4645    4644    4645    4645       0    4647    4648
    4649    4648    4649    4649       0    4651    4652    4653    4652    4653
    4653       0    4655    4656    4657    4656    4657    4657       0    4659
    4660    4661    4660    4661    4661       0    4663    4664    4665    4664
    4665    4665       0    4667    4668    4669    4668    4669    4669       0
    4671    4672    4673    4672    4673    4673       0    4675    4676    4677
    4676    4677    4677       0    4679    4680    4681    4680    4681    4681
       0    4683    4684    4685    4684    4685    4685       0    4687    4688
    4689    4688    4689    4689       0    4691    4692    4693    4692    4693
    4693       0    4695    4696    4697    4696    4697    4697       0    4699
    4700    4701    4700    4701    4701       0    4703    4704    4705    4704
    4705    4705       0    4707    4708    4709    4708    4709    4709       0
    4711    4712    4713    4712    4713    4713       0    4715    4716    4717
    4716    4717    4717       0    4719    4720    4721    4720    4721    4721
       0    4723    4724    4725    4724    4725    4725       0    4727    4728
    4729    4728    4729    4729       0    4731    4732    4733    4732    4733
    4733       0    4735    4736    4737    4736    4737    4737       0    4739
    4740    4741    4740    4741    4741       0    4743    4744    4745    4744
    4745    4745       0    4747    4748    4749    4748    4749    4749       0
    4751    4752    4753    4752    4753    4753       0    4755    4756    4757
    4756    4757    4757       0    4759    4760    4761    4760    4761    4761
       0    4763    4764    4765    4764    4765    4765       0    4767    4768
    4769    4768    4769    4769       0    4771    4772    4773    4772    4773
    4773       0    4775    4776    4777    4776    4777    4777       0    4779
    4780    4781    4780    4781    4781       0    4783    4784    4785    4784
    4785    4785       0    4787    4788    4789    4788    4789    4789       0
    4791    4792    4793    4792    4793    4793       0    4795    4796    4797
    4796    4797    4797       0    4799    4800    4801    4800    4801    4801
       0    4803    4804    4805    4804    4805    4805       0    4807    4808
    4809    4808    4809    4809       0    4811    4812    4813    4812    4813
    4813       0    4815    4816    4817    4816    4817    4817       0    4819
    4820    4821    4820    4821    4821       0    4823    4824    4825    4824
    4825    4825       0    4827    4828    4829    4828    4829    4829       0
    4831    4832    4833    4832    4833    4833       0    4835    4836    4837
    4836    4837    4837       0    4839    4840    4841    4840    4841    4841
       0    4843    4844    4845    4844    4845    4845       0    4847    4848
    4849    4848    4849    4849       0    4851    4852    4853    4852    4853
    4853       0    4855    4856    4857    4856    4857    4857       0    4859
    4860    4861    4860    4861    4861       0    4863    4864    4865    4864
    4865    4865       0    4867    4868    4869    4868    4869    4869       0
    4871    4872    4873    4872    4873    4873       0    4875    4876    4877
    4876    4877    4877       0    4879    4880    4881    4880    4881    4881
       0    4883    4884    4885    4884    4885    4885       0    4887    4888
    4889    4888    4889    4889       0    4891    4892    4893    4892    4893
    4893       0    4895    4896    4897    4896    4897    4897       0    4899
    4900    4901    4900    4901    4901       0    4903    4904    4905    4904
    4905    4905       0    4907    4908    4909    4908    4909    4909       0
    4911    4912    4913    4912    4913    4913       0    4915    4916    4917
    4916    4917    4917       0    4919    4920    4921    4920    4921    4921
       0    4923    4924    4925    4924    4925    4925       0    4927    4928
    4929    4928    4929    4929       0    4931    4932    4933    4932    4933
    4933       0    4935    4936    4937    4936    4937    4937       0    4939
    4940    4941    4940    4941    4941       0    4943    4944    4945    4944
    4945    4945       0    4947    4948    4949    4948    4949    4949       0
    4951    4952    4953    4952    4953    4953       0    4955    4956    4957
    4956    4957    4957       0    4959    4960    4961    4960    4961    4961
       0    4963    4964    4965    4964    4965    4965       0    4967    4968
    4969    4968    4969    4969       0    4971    4972    4973    4972    4973
    4973       0    4975    4976    4977    4976    4977    4977       0    4979
    4980    4981    4980    4981    4981       0    4983    4984    4985    4984
    4985    4985       0    4987    4988    4989    4988    4989    4989       0
    4991    4992    4993    4992    4993    4993       0    4995    4996    4997
    4996    4997    4997       0    4999    5000    5001    5000    5001    5001
       0    5003    5004    5005    5004    5005    5005       0    5007    5008
    5009    5008    5009    5009       0    5011    5012    5013    5012    5013
    5013       0    5015    5016    5017    5016    5017    5017       0    5019
    5020    5021    5020    5021    5021       0    5023    5024    5025    5024
    5025    5025       0    5027    5028    5029    5028    5029    5029       0
    5031    5032    5033    5032    5033    5033       0    5035    5036    5037
    5036    5037    5037       0    5039    5040    5041    5040    5041    5041
       0    5043    5044    5045    5044    5045    5045       0    5047    5048
    5049    5048    5049    5049       0    5051    5052    5053    5052    5053
    5053       0    5055    5056    5057    5056    5057    5057       0    5059
    5060    5061    5060    5061    5061       0    5063    5064    5065    5064
    5065    5065       0    5067    5068    5069    5068    5069    5069       0
    5071    5072    5073    5072    5073    5073       0    5075    5076    5077
    5076    5077    5077       0    5079    5080    5081    5080    5081    5081
       0    5083    5084    5085    5084    5085    5085       0    5087    5088
    5089    5088    5089    5089       0    5091    5092    5093    5092    5093
    5093       0    5095    5096    5097    5096    5097    5097       0    5099
    5100    5101    5100    5101    5101       0    5103    5104    5105    5104
    5105    5105       0    5107    5108    5109    5108    5109    5109       0
    5111    5112    5113    5112    5113    5113       0    5115    5116    5117
    5116    5117    5117       0    5119    5120    5121    5120    5121    5121
       0    5123    5124    5125    5124    5125    5125       0    5127    5128
    5129    5128    5129    5129       0    5131    5132    5133    5132    5133
    5133       0    5135    5136    5137    5136    5137    5137       0    5139
    5140    5141    5140    5141    5141       0    5143    5144    5145    5144
    5145    5145       0    5147    5148    5149    5148    5149    5149       0
    5151    5152    5153    5152    5153    5153       0    5155    5156    5157
    5156    5157    5157       0    5159    5160    5161    5160    5161    5161
       0    5163    5164    5165    5164    5165    5165       0    5167    5168
    5169    5168    5169    5169       0    5171    5172    5173    5172    5173
    5173       0    5175    5176    5177    5176    5177    5177       0    5179
    5180    5181    5180    5181    5181       0    5183    5184    5185    5184
    5185    5185       0    5187    5188    5189    5188    5189    5189       0
    5191    5192    5193    5192    5193    5193       0    5195    5196    5197
    5196    5197    5197       0    5199    5200    5201    5200    5201    5201
       0    5203    5204    5205    5204    5205    5205       0    5207    5208
    5209    5208    5209    5209       0    5211    5212    5213    5212    5213
    5213       0    5215    5216    5217    5216    5217    5217       0    5219
    5220    5221    5220    5221    5221       0    5223    5224    5225    5224
    5225    5225       0    5227    5228    5229    5228    5229    5229       0
    5231    5232    5233    5232    5233    5233       0    5235    5236    5237
    5236    5237    5237       0    5239    5240    5241    5240    5241    5241
       0    5243    5244    5245    5244    5245    5245       0    5247    5248
    5249    5248    5249    5249       0    5251    5252    5253    5252    5253
    5253       0    5255    5256    5257    5256    5257    5257       0    5259
    5260    5261    5260    5261    5261       0    5263    5264    5265    5264
    5265    5265       0    5267    5268    5269    5268    5269    5269       0
    5271    5272    5273    5272    5273    5273       0    5275    5276    5277
    5276    5277    5277       0    5279    5280    5281    5280    5281    5281
       0    5283    5284    5285    5284    5285    5285       0    5287    5288
    5289    5288    5289    5289       0    5291    5292    5293    5292    5293
    5293       0    5295    5296    5297    5296    5297    5297       0    5299
    5300    5301    5300    5301    5301       0    5303    5304    5305    5304
    5305    5305       0    5307    5308    5309    5308    5309    5309       0
    5311    5312    5313    5312    5313    5313       0    5315    5316    5317
    5316    5317    5317       0    5319    5320    5321    5320    5321    5321
       0    5323    5324    5325    5324    5325    5325       0    5327    5328
    5329    5328    5329    5329       0    5331    5332    5333    5332    5333
    5333       0    5335    5336    5337    5336    5337    5337       0    5339
    5340    5341    5340    5341    5341       0    5343    5344    5345    5344
    5345    5345       0    5347    5348    5349    5348    5349    5349       0
    5351    5352    5353    5352    5353    5353       0    5355    5356    5357
    5356    5357    5357       0    5359    5360    5361    5360    5361    5361
       0    5363    5364    5365    5364    5365    5365       0    5367    5368
    5369    5368    5369    5369       0    5371    5372    5373    5372    5373
    5373       0    5375    5376    5377    5376    5377    5377       0    5379
    5380    5381    5380    5381    5381       0    5383    5384    5385    5384
    5385    5385       0    5387    5388    5389    5388    5389    5389       0
    5391    5392    5393    5392    5393    5393       0    5395    5396    5397
    5396    5397    5397       0    5399    5400    5401    5400    5401    5401
       0    5403    5404    5405    5404    5405    5405       0    5407    5408
    5409    5408    5409    5409       0    5411    5412    5413    5412    5413
    5413       0    5415    5416    5417    5416    5417    5417       0    5419
    5420    5421    5420    5421    5421       0    5423    5424    5425    5424
    5425    5425       0    5427    5428    5429    5428    5429    5429       0
    5431    5432    5433    5432    5433    5433       0    5435    5436    5437
    5436    5437    5437       0    5439    5440    5441    5440    5441    5441
       0    5443    5444    5445    5444    5445    5445       0    5447    5448
    5449    5448    5449    5449       0    5451    5452    5453    5452    5453
    5453       0    5455    5456    5457    5456    5457    5457       0    5459
    5460    5461    5460    5461    5461       0    5463    5464    5465    5464
    5465    5465       0    5467    5468    5469    5468    5469    5469       0
    5471    5472    5473    5472    5473    5473       0    5475    5476    5477
    5476    5477    5477       0    5479    5480    5481    5480    5481    5481
       0    5483    5484    5485    5484    5485    5485       0    5487    5488
    5489    5488    5489    5489       0    5491    5492    5493    5492    5493
    5493       0    5495    5496    5497    5496    5497    5497       0    5499
    5500    5501    5500    5501    5501       0    5503    5504    5505    5504
    5505    5505       0    5507    5508    5509    5508    5509    5509       0
    5511    5512    5513    5512    5513    5513       0    5515    5516    5517
    5516    5517    5517       0    5519    5520    5521    5520    5521    5521
       0    5523    5524    5525    5524    5525    5525       0    5527    5528
    5529    5528    5529    5529       0    5531    5532    5533    5532    5533
    5533       0    5535    5536    5537    5536    5537    5537       0    5539
    5540    5541    5540    5541    5541       0    5543    5544    5545    5544
    5545    5545       0    5547    5548    5549    5548    5549    5549       0
    5551    5552    5553    5552    5553    5553       0    5555    5556    5557
    5556    5557    5557       0    5559    5560    5561    5560    5561    5561
       0    5563    5564    5565    5564    5565    5565       0    5567    5568
    5569    5568    5569    5569       0    5571    5572    5573    5572    5573
    5573       0    5575    5576    5577    5576    5577    5577       0    5579
    5580    5581    5580    5581    5581       0    5583    5584    5585    5584
    5585    5585       0    5587    5588    5589    5588    5589    5589       0
    5591    5592    5593    5592    5593    5593       0    5595    5596    5597
    5596    5597    5597       0    5599    5600    5601    5600    5601    5601
       0    5603    5604    5605    5604    5605    5605       0    5607    5608
    5609    5608    5609    5609       0    5611    5612    5613    5612    5613
    5613       0    5615    5616    5617    5616    5617    5617       0    5619
    5620    5621    5620    5621    5621       0    5623    5624    5625    5624
    5625    5625       0    5627    5628    5629    5628    5629    5629       0
    5631    5632    5633    5632    5633    5633       0    5635    5636    5637
    5636    5637    5637       0    5639    5640    5641    5640    5641    5641
       0    5643    5644    5645    5644    5645    5645       0    5647    5648
    5649    5648    5649    5649       0    5651    5652    5653    5652    5653
    5653       0    5655    5656    5657    5656    5657    5657       0    5659
    5660    5661    5660    5661    5661       0    5663    5664    5665    5664
    5665    5665       0    5667    5668    5669    5668    5669    5669       0
    5671    5672    5673    5672    5673    5673       0    5675    5676    5677
    5676    5677    5677       0    5679    5680    5681    5680    5681    5681
       0    5683    5684    5685    5684    5685    5685       0    5687    5688
    5689    5688    5689    5689       0    5691    5692    5693    5692    5693
    5693       0    5695    5696    5697    5696    5697    5697       0    5699
    5700    5701    5700    5701    5701       0    5703    5704    5705    5704
    5705    5705       0    5707    5708    5709    5708    5709    5709       0
    5711    5712    5713    5712    5713    5713       0    5715    5716    5717
    5716    5717    5717       0    5719    5720    5721    5720    5721    5721
       0    5723    5724    5725    5724    5725    5725       0    5727    5728
    5729    5728    5729    5729       0    5731    5732    5733    5732    5733
    5733       0    5735    5736    5737    5736    5737    5737       0    5739
    5740    5741    5740    5741    5741       0    5743    5744    5745    5744
    5745    5745       0    5747    5748    5749    5748    5749    5749       0
    5751    5752    5753    5752    5753    5753       0    5755    5756    5757
    5756    5757    5757       0    5759    5760    5761    5760    5761    5761
       0    5763    5764    5765    5764    5765    5765       0    5767    5768
    5769    5768    5769    5769       0    5771    5772    5773    5772    5773
    5773       0    5775    5776    5777    5776    5777    5777       0    5779
    5780    5781    5780    5781    5781       0    5783    5784    5785    5784
    5785    5785       0    5787    5788    5789    5788    5789    5789       0
    5791    5792    5793    5792    5793    5793       0    5795    5796    5797
    5796    5797    5797       0    5799    5800    5801    5800    5801    5801
       0    5803    5804    5805    5804    5805    5805       0    5807    5808
    5809    5808    5809    5809       0    5811    5812    5813    5812    5813
    5813       0    5815    5816    5817    5816    5817    5817       0    5819
    5820    5821    5820    5821    5821       0    5823    5824    5825    5824
    5825    5825       0    5827    5828    5829    5828    5829    5829       0
    5831    5832    5833    5832    5833    5833       0    5835    5836    5837
    5836    5837    5837       0    5839    5840    5841    5840    5841    5841
       0    5843    5844    5845    5844    5845    5845       0    5847    5848
    5849    5848    5849    5849       0    5851    5852    5853    5852    5853
    5853       0    5855    5856    5857    5856    5857    5857       0    5859
    5860    5861    5860    5861    5861       0    5863    5864    5865    5864
    5865    5865       0    5867    5868    5869    5868    5869    5869       0
    5871    5872    5873    5872    5873    5873       0    5875    5876    5877
    5876    5877    5877       0    5879    5880    5881    5880    5881    5881
       0    5883    5884    5885    5884    5885    5885       0    5887    5888
    5889    5888    5889    5889       0    5891    5892    5893    5892    5893
    5893       0    5895    5896    5897    5896    5897    5897       0    5899
    5900    5901    5900    5901    5901       0    5903    5904    5905    5904
    5905    5905       0    5907    5908    5909    5908    5909    5909       0
    5911    5912    5913    5912    5913    5913       0    5915    5916    5917
    5916    5917    5917       0    5919    5920    5921    5920    5921    5921
       0    5923    5924    5925    5924    5925    5925       0    5927    5928
    5929    5928    5929    5929       0    5931    5932    5933    5932    5933
    5933       0    5935    5936    5937    5936    5937    5937       0    5939
    5940    5941    5940    5941    5941       0    5943    5944    5945    5944
    5945    5945       0    5947    5948    5949    5948    5949    5949       0
    5951    5952    5953    5952    5953    5953       0    5955    5956    5957
    5956    5957    5957       0    5959    5960    5961    5960    5961    5961
       0    5963    5964    5965    5964    5965    5965       0    5967    5968
    5969    5968    5969    5969       0    5971    5972    5973    5972    5973
    5973       0    5975    5976    5977    5976    5977    5977       0    5979
    5980    5981    5980    5981    5981       0    5983    5984    5985    5984
    5985    5985       0    5987    5988    5989    5988    5989    5989       0
    5991    5992    5993    5992    5993    5993       0    5995    5996    5997
    5996    5997    5997       0    5999    6000    6001    6000    6001    6001
       0    6003    6004    6005    6004    6005    6005       0    6007    6008
    6009    6008    6009    6009       0    6011    6012    6013    6012    6013
    6013       0    6015    6016    6017    6016    6017    6017       0    6019
    6020    6021    6020    6021    6021       0    6023    6024    6025    6024
    6025    6025       0    6027    6028    6029    6028    6029    6029       0
    6031    6032    6033    6032    6033    6033       0    6035    6036    6037
    6036    6037    6037       0    6039    6040    6041    6040    6041    6041
       0    6043    6044    6045    6044    6045    6045       0    6047    6048
    6049    6048    6049    6049       0    6051    6052    6053    6052    6053
    6053       0    6055    6056    6057    6056    6057    6057       0    6059
    6060    6061    6060    6061    6061       0    6063    6064    6065    6064
    6065    6065       0    6067    6068    6069    6068    6069    6069       0
    6071    6072    6073    6072    6073    6073       0    6075    6076    6077
    6076    6077    6077       0    6079    6080    6081    6080    6081    6081
       0    6083    6084    6085    6084    6085    6085       0    6087    6088
    6089    6088    6089    6089       0    6091    6092    6093    6092    6093
    6093       0    6095    6096    6097    6096    6097    6097       0    6099
    6100    6101    6100    6101    6101       0    6103    6104    6105    6104
    6105    6105       0    6107    6108    6109    6108    6109    6109       0
    6111    6112    6113    6112    6113    6113       0    6115    6116    6117
    6116    6117    6117       0    6119    6120    6121    6120    6121    6121
       0    6123    6124    6125    6124    6125    6125       0    6127    6128
    6129    6128    6129    6129       0    6131    6132    6133    6132    6133
    6133       0    6135    6136    6137    6136    6137    6137       0    6139
    6140    6141    6140    6141    6141       0    6143    6144    6145    6144
    6145    6145       0    6147    6148    6149    6148    6149    6149       0
    6151    6152    6153    6152    6153    6153       0    6155    6156    6157
    6156    6157    6157       0    6159    6160    6161    6160    6161    6161
       0    6163    6164    6165    6164    6165    6165       0    6167    6168
    6169    6168    6169    6169       0    6171    6172    6173    6172    6173
    6173       0    6175    6176    6177    6176    6177    6177       0    6179
    6180    6181    6180    6181    6181       0    6183    6184    6185    6184
    6185    6185       0    6187    6188    6189    6188    6189    6189       0
    6191    6192    6193    6192    6193    6193       0    6195    6196    6197
    6196    6197    6197       0    6199    6200    6201    6200    6201    6201
       0    6203    6204    6205    6204    6205    6205       0    6207    6208
    6209    6208    6209    6209       0    6211    6212    6213    6212    6213
    6213       0    6215    6216    6217    6216    6217    6217       0    6219
    6220    6221    6220    6221    6221       0    6223    6224    6225    6224
    6225    6225       0    6227    6228    6229    6228    6229    6229       0
    6231    6232    6233    6232    6233    6233       0    6235    6236    6237
    6236    6237    6237       0    6239    6240    6241    6240    6241    6241
       0    6243    6244    6245    6244    6245    6245       0    6247    6248
    6249    6248    6249    6249       0    6251    6252    6253    6252    6253
    6253       0    6255    6256    6257    6256    6257    6257       0    6259
    6260    6261    6260    6261    6261       0    6263    6264    6265    6264
    6265    6265       0    6267    6268    6269    6268    6269    6269       0
    6271    6272    6273    6272    6273    6273       0    6275    6276    6277
    6276    6277    6277       0    6279    6280    6281    6280    6281    6281
       0    6283    6284    6285    6284    6285    6285       0    6287    6288
    6289    6288    6289    6289       0    6291    6292    6293    6292    6293
    6293       0    6295    6296    6297    6296    6297    6297       0    6299
    6300    6301    6300    6301    6301       0    6303    6304    6305    6304
    6305    6305       0    6307    6308    6309    6308    6309    6309       0
    6311    6312    6313    6312    6313    6313       0    6315    6316    6317
    6316    6317    6317       0    6319    6320    6321    6320    6321    6321
       0    6323    6324    6325    6324    6325    6325       0    6327    6328
    6329    6328    6329    6329       0    6331    6332    6333    6332    6333
    6333       0    6335    6336    6337    6336    6337    6337       0    6339
    6340    6341    6340    6341    6341       0    6343    6344    6345    6344
    6345    6345       0    6347    6348    6349    6348    6349    6349       0
    6351    6352    6353    6352    6353    6353       0    6355    6356    6357
    6356    6357    6357       0    6359    6360    6361    6360    6361    6361
       0    6363    6364    6365    6364    6365    6365       0    6367    6368
    6369    6368    6369    6369       0    6371    6372    6373    6372    6373
    6373       0    6375    6376    6377    6376    6377    6377       0    6379
    6380    6381    6380    6381    6381       0    6383    6384    6385    6384
    6385    6385       0    6387    6388    6389    6388    6389    6389       0
    6391    6392    6393    6392    6393    6393       0    6395    6396    6397
    6396    6397    6397       0    6399    6400    6401    6400    6401    6401
       0    6403    6404    6405    6404    6405    6405       0    6407    6408
    6409    6408    6409    6409       0    6411    6412    6413    6412    6413
    6413       0    6415    6416    6417    6416    6417    6417       0    6419
    6420    6421    6420    6421    6421       0    6423    6424    6425    6424
    6425    6425       0    6427    6428    6429    6428    6429    6429       0
    6431    6432    6433    6432    6433    6433       0    6435    6436    6437
    6436    6437    6437       0    6439    6440    6441    6440    6441    6441
       0    6443    6444    6445    6444    6445    6445       0    6447    6448
    6449    6448    6449    6449       0    6451    6452    6453    6452    6453
    6453       0    6455    6456    6457    6456    6457    6457       0    6459
    6460    6461    6460    6461    6461       0    6463    6464    6465    6464
    6465    6465       0    6467    6468    6469    6468    6469    6469       0
    6471    6472    6473    6472    6473    6473       0    6475    6476    6477
    6476    6477    6477       0    6479    6480    6481    6480    6481    6481
       0    6483    6484    6485    6484    6485    6485       0    6487    6488
    6489    6488    6489    6489       0    6491    6492    6493    6492    6493
    6493       0    6495    6496    6497    6496    6497    6497       0    6499
    6500    6501    6500    6501    6501       0    6503    6504    6505    6504
    6505    6505       0    6507    6508    6509    6508    6509    6509       0
    6511    6512    6513    6512    6513    6513       0    6515    6516    6517
    6516    6517    6517       0    6519    6520    6521    6520    6521    6521
       0    6523    6524    6525    6524    6525    6525       0    6527    6528
    6529    6528    6529    6529       0    6531    6532    6533    6532    6533
    6533       0    6535    6536    6537    6536    6537    6537       0    6539
    6540    6541    6540    6541    6541       0    6543    6544    6545    6544
    6545    6545       0    6547    6548    6549    6548    6549    6549       0
    6551    6552    6553    6552    6553    6553       0    6555    6556    6557
    6556    6557    6557       0    6559    6560    6561    6560    6561    6561
       0    6563    6564    6565    6564    6565    6565       0    6567    6568
    6569    6568    6569    6569       0    6571    6572    6573    6572    6573
    6573       0    6575    6576    6577    6576    6577    6577       0    6579
    6580    6581    6580    6581    6581       0    6583    6584    6585    6584
    6585    6585       0    6587    6588    6589    6588    6589    6589       0
    6591    6592    6593    6592    6593    6593       0    6595    6596    6597
    6596    6597    6597       0    6599    6600    6601    6600    6601    6601
       0    6603    6604    6605    6604    6605    6605       0    6607    6608
    6609    6608    6609    6609       0    6611    6612    6613    6612    6613
    6613       0    6615    6616    6617    6616    6617    6617       0    6619
    6620    6621    6620    6621    6621       0    6623    6624    6625    6624
    6625    6625       0    6627    6628    6629    6628    6629    6629       0
    6631    6632    6633    6632    6633    6633       0    6635    6636    6637
    6636    6637    6637       0    6639    6640    6641    6640    6641    6641
       0    6643    6644    6645    6644    6645    6645       0    6647    6648
    6649    6648    6649    6649       0    6651    6652    6653    6652    6653
    6653       0    6655    6656    6657    6656    6657    6657       0    6659
    6660    6661    6660    6661    6661       0    6663    6664    6665    6664
    6665    6665       0    6667    6668    6669    6668    6669    6669       0
    6671    6672    6673    6672    6673    6673       0    6675    6676    6677
    6676    6677    6677       0    6679    6680    6681    6680    6681    6681
       0    6683    6684    6685    6684    6685    6685       0    6687    6688
    6689    6688    6689    6689       0    6691    6692    6693    6692    6693
    6693       0    6695    6696    6697    6696    6697    6697       0    6699
    6700    6701    6700    6701    6701       0    6703    6704    6705    6704
    6705    6705       0    6707    6708    6709    6708    6709    6709       0
    6711    6712    6713    6712    6713    6713       0    6715    6716    6717
    6716    6717    6717       0    6719    6720    6721    6720    6721    6721
       0    6723    6724    6725    6724    6725    6725       0    6727    6728
    6729    6728    6729    6729       0    6731    6732    6733    6732    6733
    6733       0    6735    6736    6737    6736    6737    6737       0    6739
    6740    6741    6740    6741    6741       0    6743    6744    6745    6744
    6745    6745       0    6747    6748    6749    6748    6749    6749       0
    6751    6752    6753    6752    6753    6753       0    6755    6756    6757
    6756    6757    6757       0    6759    6760    6761    6760    6761    6761
       0    6763    6764    6765    6764    6765    6765       0    6767    6768
    6769    6768    6769    6769       0    6771    6772    6773    6772    6773
    6773       0    6775    6776    6777    6776    6777    6777       0    6779
    6780    6781    6780    6781    6781       0    6783    6784    6785    6784
    6785    6785       0    6787    6788    6789    6788    6789    6789       0
    6791    6792    6793    6792    6793    6793       0    6795    6796    6797
    6796    6797    6797       0    6799    6800    6801    6800    6801    6801
       0    6803    6804    6805    6804    6805    6805       0    6807    6808
    6809    6808    6809    6809       0    6811    6812    6813    6812    6813
    6813       0    6815    6816    6817    6816    6817    6817       0    6819
    6820    6821    6820    6821    6821       0    6823    6824    6825    6824
    6825    6825       0    6827    6828    6829    6828    6829    6829       0
    6831    6832    6833    6832    6833    6833       0    6835    6836    6837
    6836    6837    6837       0    6839    6840    6841    6840    6841    6841
       0    6843    6844    6845    6844    6845    6845       0    6847    6848
    6849    6848    6849    6849       0    6851    6852    6853    6852    6853
    6853       0    6855    6856    6857    6856    6857    6857       0    6859
    6860    6861    6860    6861    6861       0    6863    6864    6865    6864
    6865    6865       0    6867    6868    6869    6868    6869    6869       0
    6871    6872    6873    6872    6873    6873       0    6875    6876    6877
    6876    6877    6877       0    6879    6880    6881    6880    6881    6881
       0    6883    6884    6885    6884    6885    6885       0    6887    6888
    6889    6888    6889    6889       0    6891    6892    6893    6892    6893
    6893       0    6895    6896    6897    6896    6897    6897       0    6899
    6900    6901    6900    6901    6901       0    6903    6904    6905    6904
    6905    6905       0    6907    6908    6909    6908    6909    6909       0
    6911    6912    6913    6912    6913    6913       0    6915    6916    6917
    6916    6917    6917       0    6919    6920    6921    6920    6921    6921
       0    6923    6924    6925    6924    6925    6925       0    6927    6928
    6929    6928    6929    6929       0    6931    6932    6933    6932    6933
    6933       0    6935    6936    6937    6936    6937    6937       0    6939
    6940    6941    6940    6941    6941       0    6943    6944    6945    6944
    6945    6945       0    6947    6948    6949    6948    6949    6949       0
    6951    6952    6953    6952    6953    6953       0    6955    6956    6957
    6956    6957    6957       0    6959    6960    6961    6960    6961    6961
       0    6963    6964    6965    6964    6965    6965       0    6967    6968
    6969    6968    6969    6969       0    6971    6972    6973    6972    6973
    6973       0    6975    6976    6977    6976    6977    6977       0    6979
    6980    6981    6980    6981    6981       0    6983    6984    6985    6984
    6985    6985       0    6987    6988    6989    6988    6989    6989       0
    6991    6992    6993    6992    6993    6993       0    6995    6996    6997
    6996    6997    6997       0    6999    7000    7001    7000    7001    7001
       0    7003    7004    7005    7004    7005    7005       0    7007    7008
    7009    7008    7009    7009       0    7011    7012    7013    7012    7013
    7013       0    7015    7016    7017    7016    7017    7017       0    7019
    7020    7021    7020    7021    7021       0    7023    7024    7025    7024
    7025    7025       0    7027    7028    7029    7028    7029    7029       0
    7031    7032    7033    7032    7033    7033       0    7035    7036    7037
    7036    7037    7037       0    7039    7040    7041    7040    7041    7041
       0    7043    7044    7045    7044    7045    7045       0    7047    7048
    7049    7048    7049    7049       0    7051    7052    7053    7052    7053
    7053       0    7055    7056    7057    7056    7057    7057       0    7059
    7060    7061    7060    7061    7061       0    7063    7064    7065    7064
    7065    7065       0    7067    7068    7069    7068    7069    7069       0
    7071    7072    7073    7072    7073    7073       0    7075    7076    7077
    7076    7077    7077       0    7079    7080    7081    7080    7081    7081
       0    7083    7084    7085    7084    7085    7085       0    7087    7088
    7089    7088    7089    7089       0    7091    7092    7093    7092    7093
    7093       0    7095    7096    7097    7096    7097    7097       0    7099
    7100    7101    7100    7101    7101       0    7103    7104    7105    7104
    7105    7105       0    7107    7108    7109    7108    7109    7109       0
    7111    7112    7113    7112    7113    7113       0    7115    7116    7117
    7116    7117    7117       0    7119    7120    7121    7120    7121    7121
       0    7123    7124    7125    7124    7125    7125       0    7127    7128
    7129    7128    7129    7129       0    7131    7132    7133    7132    7133
    7133       0    7135    7136    7137    7136    7137    7137       0    7139
    7140    7141    7140    7141    7141       0    7143    7144    7145    7144
    7145    7145       0    7147    7148    7149    7148    7149    7149       0
    7151    7152    7153    7152    7153    7153       0    7155    7156    7157
    7156    7157    7157       0    7159    7160    7161    7160    7161    7161
       0    7163    7164    7165    7164    7165    7165       0    7167    7168
    7169    7168    7169    7169       0    7171    7172    7173    7172    7173
    7173       0    7175    7176    7177    7176    7177    7177       0    7179
    7180    7181    7180    7181    7181       0    7183    7184    7185    7184
    7185    7185       0    7187    7188    7189    7188    7189    7189       0
    7191    7192    7193    7192    7193    7193       0    7195    7196    7197
    7196    7197    7197       0    7199    7200    7201    7200    7201    7201
       0    7203    7204    7205    7204    7205    7205       0    7207    7208
    7209    7208    7209    7209       0    7211    7212    7213    7212    7213
    7213       0    7215    7216    7217    7216    7217    7217       0    7219
    7220    7221    7220    7221    7221       0    7223    7224    7225    7224
    7225    7225       0    7227    7228    7229    7228    7229    7229       0
    7231    7232    7233    7232    7233    7233       0    7235    7236    7237
    7236    7237    7237       0    7239    7240    7241    7240    7241    7241
       0    7243    7244    7245    7244    7245    7245       0    7247    7248
    7249    7248    7249    7249       0    7251    7252    7253    7252    7253
    7253       0    7255    7256    7257    7256    7257    7257       0    7259
    7260    7261    7260    7261    7261       0    7263    7264    7265    7264
    7265    7265       0    7267    7268    7269    7268    7269    7269       0
    7271    7272    7273    7272    7273    7273       0    7275    7276    7277
    7276    7277    7277       0    7279    7280    7281    7280    7281    7281
       0    7283    7284    7285    7284    7285    7285       0    7287    7288
    7289    7288    7289    7289       0    7291    7292    7293    7292    7293
    7293       0    7295    7296    7297    7296    7297    7297       0    7299
    7300    7301    7300    7301    7301       0    7303    7304    7305    7304
    7305    7305       0    7307    7308    7309    7308    7309    7309       0
    7311    7312    7313    7312    7313    7313       0    7315    7316    7317
    7316    7317    7317       0    7319    7320    7321    7320    7321    7321
       0    7323    7324    7325    7324    7325    7325       0    7327    7328
    7329    7328    7329    7329       0    7331    7332    7333    7332    7333
    7333       0    7335    7336    7337    7336    7337    7337       0    7339
    7340    7341    7340    7341    7341       0    7343    7344    7345    7344
    7345    7345       0    7347    7348    7349    7348    7349    7349       0
    7351    7352    7353    7352    7353    7353       0    7355    7356    7357
    7356    7357    7357       0    7359    7360    7361    7360    7361    7361
       0    7363    7364    7365    7364    7365    7365       0    7367    7368
    7369    7368    7369    7369       0    7371    7372    7373    7372    7373
    7373       0    7375    7376    7377    7376    7377    7377       0    7379
    7380    7381    7380    7381    7381       0    7383    7384    7385    7384
    7385    7385       0    7387    7388    7389    7388    7389    7389       0
    7391    7392    7393    7392    7393    7393       0    7395    7396    7397
    7396    7397    7397       0    7399    7400    7401    7400    7401    7401
       0    7403    7404    7405    7404    7405    7405       0    7407    7408
    7409    7408    7409    7409       0    7411    7412    7413    7412    7413
    7413       0    7415    7416    7417    7416    7417    7417       0    7419
    7420    7421    7420    7421    7421       0    7423    7424    7425    7424
    7425    7425       0    7427    7428    7429    7428    7429    7429       0
    7431    7432    7433    7432    7433    7433       0    7435    7436    7437
    7436    7437    7437       0    7439    7440    7441    7440    7441    7441
       0    7443    7444    7445    7444    7445    7445       0    7447    7448
    7449    7448    7449    7449       0    7451    7452    7453    7452    7453
    7453       0    7455    7456    7457    7456    7457    7457       0    7459
    7460    7461    7460    7461    7461       0    7463    7464    7465    7464
    7465    7465       0    7467    7468    7469    7468    7469    7469       0
    7471    7472    7473    7472    7473    7473       0    7475    7476    7477
    7476    7477    7477       0    7479    7480    7481    7480    7481    7481
       0    7483    7484    7485    7484    7485    7485       0    7487    7488
    7489    7488    7489    7489       0    7491    7492    7493    7492    7493
    7493       0    7495    7496    7497    7496    7497    7497       0    7499
    7500    7501    7500    7501    7501       0    7503    7504    7505    7504
    7505    7505       0    7507    7508    7509    7508    7509    7509       0
    7511    7512    7513    7512    7513    7513       0    7515    7516    7517
    7516    7517    7517       0    7519    7520    7521    7520    7521    7521
       0    7523    7524    7525    7524    7525    7525       0    7527    7528
    7529    7528    7529    7529       0    7531    7532    7533    7532    7533
    7533       0    7535    7536    7537    7536    7537    7537       0    7539
    7540    7541    7540    7541    7541       0    7543    7544    7545    7544
    7545    7545       0    7547    7548    7549    7548    7549    7549       0
    7551    7552    7553    7552    7553    7553       0    7555    7556    7557
    7556    7557    7557       0    7559    7560    7561    7560    7561    7561
       0    7563    7564    7565    7564    7565    7565       0    7567    7568
    7569    7568    7569    7569       0    7571    7572    7573    7572    7573
    7573       0    7575    7576    7577    7576    7577    7577       0    7579
    7580    7581    7580    7581    7581       0    7583    7584    7585    7584
    7585    7585       0    7587    7588    7589    7588    7589    7589       0
    7591    7592    7593    7592    7593    7593       0    7595    7596    7597
    7596    7597    7597       0    7599    7600    7601    7600    7601    7601
       0    7603    7604    7605    7604    7605    7605       0    7607    7608
    7609    7608    7609    7609       0    7611    7612    7613    7612    7613
    7613       0    7615    7616    7617    7616    7617    7617       0    7619
    7620    7621    7620    7621    7621       0    7623    7624    7625    7624
    7625    7625       0    7627    7628    7629    7628    7629    7629       0
    7631    7632    7633    7632    7633    7633       0    7635    7636    7637
    7636    7637    7637       0    7639    7640    7641    7640    7641    7641
       0    7643    7644    7645    7644    7645    7645       0    7647    7648
    7649    7648    7649    7649       0    7651    7652    7653    7652    7653
    7653       0    7655    7656    7657    7656    7657    7657       0    7659
    7660    7661    7660    7661    7661       0    7663    7664    7665    7664
    7665    7665       0    7667    7668    7669    7668    7669    7669       0
    7671    7672    7673    7672    7673    7673       0    7675    7676    7677
    7676    7677    7677       0    7679    7680    7681    7680    7681    7681
       0    7683    7684    7685    7684    7685    7685       0    7687    7688
    7689    7688    7689    7689       0    7691    7692    7693    7692    7693
    7693       0    7695    7696    7697    7696    7697    7697       0    7699
    7700    7701    7700    7701    7701       0    7703    7704    7705    7704
    7705    7705       0    7707    7708    7709    7708    7709    7709       0
    7711    7712    7713    7712    7713    7713       0    7715    7716    7717
    7716    7717    7717       0    7719    7720    7721    7720    7721    7721
       0    7723    7724    7725    7724    7725    7725       0    7727    7728
    7729    7728    7729    7729       0    7731    7732    7733    7732    7733
    7733       0    7735    7736    7737    7736    7737    7737       0    7739
    7740    7741    7740    7741    7741       0    7743    7744    7745    7744
    7745    7745       0    7747    7748    7749    7748    7749    7749       0
    7751    7752    7753    7752    7753    7753       0    7755    7756    7757
    7756    7757    7757       0    7759    7760    7761    7760    7761    7761
       0    7763    7764    7765    7764    7765    7765       0    7767    7768
    7769    7768    7769    7769       0    7771    7772    7773    7772    7773
    7773       0    7775    7776    7777    7776    7777    7777       0    7779
    7780    7781    7780    7781    7781       0    7783    7784    7785    7784
    7785    7785       0    7787    7788    7789    7788    7789    7789       0
    7791    7792    7793    7792    7793    7793       0    7795    7796    7797
    7796    7797    7797       0    7799    7800    7801    7800    7801    7801
       0    7803    7804    7805    7804    7805    7805       0    7807    7808
    7809    7808    7809    7809       0    7811    7812    7813    7812    7813
    7813       0    7815    7816    7817    7816    7817    7817       0    7819
    7820    7821    7820    7821    7821       0    7823    7824    7825    7824
    7825    7825       0    7827    7828    7829    7828    7829    7829       0
    7831    7832    7833    7832    7833    7833       0    7835    7836    7837
    7836    7837    7837       0    7839    7840    7841    7840    7841    7841
       0    7843    7844    7845    7844    7845    7845       0    7847    7848
    7849    7848    7849    7849       0    7851    7852    7853    7852    7853
    7853       0    7855    7856    7857    7856    7857    7857       0    7859
    7860    7861    7860    7861    7861       0    7863    7864    7865    7864
    7865    7865       0    7867    7868    7869    7868    7869    7869       0
    7871    7872    7873    7872    7873    7873       0    7875    7876    7877
    7876    7877    7877       0    7879    7880    7881    7880    7881    7881
       0    7883    7884    7885    7884    7885    7885       0    7887    7888
    7889    7888    7889    7889       0    7891    7892    7893    7892    7893
    7893       0    7895    7896    7897    7896    7897    7897       0    7899
    7900    7901    7900    7901    7901       0    7903    7904    7905    7904
    7905    7905       0    7907    7908    7909    7908    7909    7909       0
    7911    7912    7913    7912    7913    7913       0    7915    7916    7917
    7916    7917    7917       0    7919    7920    7921    7920    7921    7921
       0    7923    7924    7925    7924    7925    7925       0    7927    7928
    7929    7928    7929    7929       0    7931    7932    7933    7932    7933
    7933       0    7935    7936    7937    7936    7937    7937       0    7939
    7940    7941    7940    7941    7941       0    7943    7944    7945    7944
    7945    7945       0    7947    7948    7949    7948    7949    7949       0
    7951    7952    7953    7952    7953    7953       0    7955    7956    7957
    7956    7957    7957       0    7959    7960    7961    7960    7961    7961
       0    7963    7964    7965    7964    7965    7965       0    7967    7968
    7969    7968    7969    7969       0    7971    7972    7973    7972    7973
    7973       0    7975    7976    7977    7976    7977    7977       0    7979
    7980    7981    7980    7981    7981       0    7983    7984    7985    7984
    7985    7985       0    7987    7988    7989    7988    7989    7989       0
    7991    7992    7993    7992    7993    7993       0    7995    7996    7997
    7996    7997    7997       0    7999    8000    8001    8000    8001    8001
       0    8003    8004    8005    8004    8005    8005       0    8007    8008
    8009    8008    8009    8009       0    8011    8012    8013    8012    8013
    8013       0    8015    8016    8017    8016    8017    8017       0    8019
    8020    8021    8020    8021    8021       0    8023    8024    8025    8024
    8025    8025       0    8027    8028    8029    8028    8029    8029       0
    8031    8032    8033    8032    8033    8033       0    8035    8036    8037
    8036    8037    8037       0    8039    8040    8041    8040    8041    8041
       0    8043    8044    8045    8044    8045    8045       0    8047    8048
    8049    8048    8049    8049       0    8051    8052    8053    8052    8053
    8053       0    8055    8056    8057    8056    8057    8057       0    8059
    8060    8061    8060    8061    8061       0    8063    8064    8065    8064
    8065    8065       0    8067    8068    8069    8068    8069    8069       0
    8071    8072    8073    8072    8073    8073       0    8075    8076    8077
    8076    8077    8077       0    8079    8080    8081    8080    8081    8081
       0    8083    8084    8085    8084    8085    8085       0    8087    8088
    8089    8088    8089    8089       0    8091    8092    8093    8092    8093
    8093       0    8095    8096    8097    8096    8097    8097       0    8099
    8100    8101    8100    8101    8101       0    8103    8104    8105    8104
    8105    8105       0    8107    8108    8109    8108    8109    8109       0
    8111    8112    8113    8112    8113    8113       0    8115    8116    8117
    8116    8117    8117       0    8119    8120    8121    8120    8121    8121
       0    8123    8124    8125    8124    8125    8125       0    8127    8128
    8129    8128    8129    8129       0    8131    8132    8133    8132    8133
    8133       0    8135    8136    8137    8136    8137    8137       0    8139
    8140    8141    8140    8141    8141       0    8143    8144    8145    8144
    8145    8145       0    8147    8148    8149    8148    8149    8149       0
    8151    8152    8153    8152    8153    8153       0    8155    8156    8157
    8156    8157    8157       0    8159    8160    8161    8160    8161    8161
       0    8163    8164    8165    8164    8165    8165       0    8167    8168
    8169    8168    8169    8169       0    8171    8172    8173    8172    8173
    8173       0    8175    8176    8177    8176    8177    8177       0    8179
    8180    8181    8180    8181    8181       0    8183    8184    8185    8184
    8185    8185       0    8187    8188    8189    8188    8189    8189       0
    8191    8192    8193    8192    8193    8193       0    8195    8196    8197
    8196    8197    8197       0    8199    8200    8201    8200    8201    8201
       0    8203    8204    8205    8204    8205    8205       0    8207    8208
    8209    8208    8209    8209       0    8211    8212    8213    8212    8213
    8213       0    8215    8216    8217    8216    8217    8217       0    8219
    8220    8221    8220    8221    8221       0    8223    8224    8225    8224
    8225    8225       0    8227    8228    8229    8228    8229    8229       0
    8231    8232    8233    8232    8233    8233       0    8235    8236    8237
    8236    8237    8237       0    8239    8240    8241    8240    8241    8241
       0    8243    8244    8245    8244    8245    8245       0    8247    8248
    8249    8248    8249    8249       0    8251    8252    8253    8252    8253
    8253       0    8255    8256    8257    8256    8257    8257       0    8259
    8260    8261    8260    8261    8261       0    8263    8264    8265    8264
    8265    8265       0    8267    8268    8269    8268    8269    8269       0
    8271    8272    8273    8272    8273    8273       0    8275    8276    8277
    8276    8277    8277       0    8279    8280    8281    8280    8281    8281
       0    8283    8284    8285    8284    8285    8285       0    8287    8288
    8289    8288    8289    8289       0    8291    8292    8293    8292    8293
    8293       0    8295    8296    8297    8296    8297    8297       0    8299
    8300    8301    8300    8301    8301       0    8303    8304    8305    8304
    8305    8305       0    8307    8308    8309    8308    8309    8309       0
    8311    8312    8313    8312    8313    8313       0    8315    8316    8317
    8316    8317    8317       0    8319    8320    8321    8320    8321    8321
       0    8323    8324    8325    8324    8325    8325       0    8327    8328
    8329    8328    8329    8329       0    8331    8332    8333    8332    8333
    8333       0    8335    8336    8337    8336    8337    8337       0    8339
    8340    8341    8340    8341    8341       0    8343    8344    8345    8344
    8345    8345       0    8347    8348    8349    8348    8349    8349       0
    8351    8352    8353    8352    8353    8353       0    8355    8356    8357
    8356    8357    8357       0    8359    8360    8361    8360    8361    8361
       0    8363    8364    8365    8364    8365    8365       0    8367    8368
    8369    8368    8369    8369       0    8371    8372    8373    8372    8373
    8373       0    8375    8376    8377    8376    8377    8377       0    8379
    8380    8381    8380    8381    8381       0    8383    8384    8385    8384
    8385    8385       0    8387    8388    8389    8388    8389    8389       0
    8391    8392    8393    8392    8393    8393       0    8395    8396    8397
    8396    8397    8397       0    8399    8400    8401    8400    8401    8401
       0    8403    8404    8405    8404    8405    8405       0    8407    8408
    8409    8408    8409    8409       0    8411    8412    8413    8412    8413
    8413       0    8415    8416    8417    8416    8417    8417       0    8419
    8420    8421    8420    8421    8421       0    8423    8424    8425    8424
    8425    8425       0    8427    8428    8429    8428    8429    8429       0
    8431    8432    8433    8432    8433    8433       0    8435    8436    8437
    8436    8437    8437       0    8439    8440    8441    8440    8441    8441
       0    8443    8444    8445    8444    8445    8445       0    8447    8448
    8449    8448    8449    8449       0    8451    8452    8453    8452    8453
    8453       0    8455    8456    8457    8456    8457    8457       0    8459
    8460    8461    8460    8461    8461       0    8463    8464    8465    8464
    8465    8465       0    8467    8468    8469    8468    8469    8469       0
    8471    8472    8473    8472    8473    8473       0    8475    8476    8477
    8476    8477    8477       0    8479    8480    8481    8480    8481    8481
       0    8483    8484    8485    8484    8485    8485       0    8487    8488
    8489    8488    8489    8489       0    8491    8492    8493    8492    8493
    8493       0    8495    8496    8497    8496    8497    8497       0    8499
    8500    8501    8500    8501    8501       0    8503    8504    8505    8504
    8505    8505       0    8507    8508    8509    8508    8509    8509       0
    8511    8512    8513    8512    8513    8513       0    8515    8516    8517
    8516    8517    8517       0    8519    8520    8521    8520    8521    8521
       0    8523    8524    8525    8524    8525    8525       0    8527    8528
    8529    8528    8529    8529       0    8531    8532    8533    8532    8533
    8533       0    8535    8536    8537    8536    8537    8537       0    8539
    8540    8541    8540    8541    8541       0    8543    8544    8545    8544
    8545    8545       0    8547    8548    8549    8548    8549    8549       0
    8551    8552    8553    8552    8553    8553       0    8555    8556    8557
    8556    8557    8557       0    8559    8560    8561    8560    8561    8561
       0    8563    8564    8565    8564    8565    8565       0    8567    8568
    8569    8568    8569    8569       0    8571    8572    8573    8572    8573
    8573       0    8575    8576    8577    8576    8577    8577       0    8579
    8580    8581    8580    8581    8581       0    8583    8584    8585    8584
    8585    8585       0    8587    8588    8589    8588    8589    8589       0
    8591    8592    8593    8592    8593    8593       0    8595    8596    8597
    8596    8597    8597       0    8599    8600    8601    8600    8601    8601
       0    8603    8604    8605    8604    8605    8605       0    8607    8608
    8609    8608    8609    8609       0    8611    8612    8613    8612    8613
    8613       0    8615    8616    8617    8616    8617    8617       0    8619
    8620    8621    8620    8621    8621       0    8623    8624    8625    8624
    8625    8625       0    8627    8628    8629    8628    8629    8629       0
    8631    8632    8633    8632    8633    8633       0    8635    8636    8637
    8636    8637    8637       0    8639    8640    8641    8640    8641    8641
       0    8643    8644    8645    8644    8645    8645       0    8647    8648
    8649    8648    8649    8649       0    8651    8652    8653    8652    8653
    8653       0    8655    8656    8657    8656    8657    8657       0    8659
    8660    8661    8660    8661    8661       0    8663    8664    8665    8664
    8665    8665       0    8667    8668    8669    8668    8669    8669       0
    8671    8672    8673    8672    8673    8673       0    8675    8676    8677
    8676    8677    8677       0    8679    8680    8681    8680    8681    8681
       0    8683    8684    8685    8684    8685    8685       0    8687    8688
    8689    8688    8689    8689       0    8691    8692    8693    8692    8693
    8693       0    8695    8696    8697    8696    8697    8697       0    8699
    8700    8701    8700    8701    8701       0    8703    8704    8705    8704
    8705    8705       0    8707    8708    8709    8708    8709    8709       0
    8711    8712    8713    8712    8713    8713       0    8715    8716    8717
    8716    8717    8717       0    8719    8720    8721    8720    8721    8721
       0    8723    8724    8725    8724    8725    8725       0    8727    8728
    8729    8728    8729    8729       0    8731    8732    8733    8732    8733
    8733       0    8735    8736    8737    8736    8737    8737       0    8739
    8740    8741    8740    8741    8741       0    8743    8744    8745    8744
    8745    8745       0    8747    8748    8749    8748    8749    8749       0
    8751    8752    8753    8752    8753    8753       0    8755    8756    8757
    8756    8757    8757       0    8759    8760    8761    8760    8761    8761
       0    8763    8764    8765    8764    8765    8765       0    8767    8768
    8769    8768    8769    8769       0    8771    8772    8773    8772    8773
    8773       0    8775    8776    8777    8776    8777    8777       0    8779
    8780    8781    8780    8781    8781       0    8783    8784    8785    8784
    8785    8785       0    8787    8788    8789    8788    8789    8789       0
    8791    8792    8793    8792    8793    8793       0    8795    8796    8797
    8796    8797    8797       0    8799    8800    8801    8800    8801    8801
       0    8803    8804    8805    8804    8805    8805       0    8807    8808
    8809    8808    8809    8809       0    8811    8812    8813    8812    8813
    8813       0    8815    8816    8817    8816    8817    8817       0    8819
    8820    8821    8820    8821    8821       0    8823    8824    8825    8824
    8825    8825       0    8827    8828    8829    8828    8829    8829       0
    8831    8832    8833    8832    8833    8833       0    8835    8836    8837
    8836    8837    8837       0    8839    8840    8841    8840    8841    8841
       0    8843    8844    8845    8844    8845    8845       0    8847    8848
    8849    8848    8849    8849       0    8851    8852    8853    8852    8853
    8853       0    8855    8856    8857    8856    8857    8857       0    8859
    8860    8861    8860    8861    8861       0    8863    8864    8865    8864
    8865    8865       0    8867    8868    8869    8868    8869    8869       0
    8871    8872    8873    8872    8873    8873       0    8875    8876    8877
    8876    8877    8877       0    8879    8880    8881    8880    8881    8881
       0    8883    8884    8885    8884    8885    8885       0    8887    8888
    8889    8888    8889    8889       0    8891    8892    8893    8892    8893
    8893       0    8895    8896    8897    8896    8897    8897       0    8899
    8900    8901    8900    8901    8901       0    8903    8904    8905    8904
    8905    8905       0    8907    8908    8909    8908    8909    8909       0
    8911    8912    8913    8912    8913    8913       0    8915    8916    8917
    8916    8917    8917       0    8919    8920    8921    8920    8921    8921
       0    8923    8924    8925    8924    8925    8925       0    8927    8928
    8929    8928    8929    8929       0    8931    8932    8933    8932    8933
    8933       0    8935    8936    8937    8936    8937    8937       0    8939
    8940    8941    8940    8941    8941       0    8943    8944    8945    8944
    8945    8945       0    8947    8948    8949    8948    8949    8949       0
    8951    8952    8953    8952    8953    8953       0    8955    8956    8957
    8956    8957    8957       0    8959    8960    8961    8960    8961    8961
       0    8963    8964    8965    8964    8965    8965       0    8967    8968
    8969    8968    8969    8969       0    8971    8972    8973    8972    8973
    8973       0    8975    8976    8977    8976    8977    8977       0    8979
    8980    8981    8980    8981    8981       0    8983    8984    8985    8984
    8985    8985       0    8987    8988    8989    8988    8989    8989       0
    8991    8992    8993    8992    8993    8993       0    8995    8996    8997
    8996    8997    8997       0    8999    9000    9001    9000    9001    9001
       0    9003    9004    9005    9004    9005    9005       0    9007    9008
    9009    9008    9009    9009       0    9011    9012    9013    9012    9013
    9013       0    9015    9016    9017    9016    9017    9017       0    9019
    9020    9021    9020    9021    9021       0    9023    9024    9025    9024
    9025    9025       0    9027    9028    9029    9028    9029    9029       0
    9031    9032    9033    9032    9033    9033       0    9035    9036    9037
    9036    9037    9037       0    9039    9040    9041    9040    9041    9041
       0    9043    9044    9045    9044    9045    9045       0    9047    9048
    9049    9048    9049    9049       0    9051    9052    9053    9052    9053
    9053       0    9055    9056    9057    9056    9057    9057       0    9059
    9060    9061    9060    9061    9061       0    9063    9064    9065    9064
    9065    9065       0    9067    9068    9069    9068    9069    9069       0
    9071    9072    9073    9072    9073    9073       0    9075    9076    9077
    9076    9077    9077       0    9079    9080    9081    9080    9081    9081
       0    9083    9084    9085    9084    9085    9085       0    9087    9088
    9089    9088    9089    9089       0    9091    9092    9093    9092    9093
    9093       0    9095    9096    9097    9096    9097    9097       0    9099
    9100    9101    9100    9101    9101       0    9103    9104    9105    9104
    9105    9105       0    9107    9108    9109    9108    9109    9109       0
    9111    9112    9113    9112    9113    9113       0    9115    9116    9117
    9116    9117    9117       0    9119    9120    9121    9120    9121    9121
       0    9123    9124    9125    9124    9125    9125       0    9127    9128
    9129    9128    9129    9129       0    9131    9132    9133    9132    9133
    9133       0    9135    9136    9137    9136    9137    9137       0    9139
    9140    9141    9140    9141    9141       0    9143    9144    9145    9144
    9145    9145       0    9147    9148    9149    9148    9149    9149       0
    9151    9152    9153    9152    9153    9153       0    9155    9156    9157
    9156    9157    9157       0    9159    9160    9161    9160    9161    9161
       0    9163    9164    9165    9164    9165    9165       0    9167    9168
    9169    9168    9169    9169       0    9171    9172    9173    9172    9173
    9173       0    9175    9176    9177    9176    9177    9177       0    9179
    9180    9181    9180    9181    9181       0    9183    9184    9185    9184
    9185    9185       0    9187    9188    9189    9188    9189    9189       0
    9191    9192    9193    9192    9193    9193       0    9195    9196    9197
    9196    9197    9197       0    9199    9200    9201    9200    9201    9201
       0    9203    9204    9205    9204    9205    9205       0    9207    9208
    9209    9208    9209    9209       0    9211    9212    9213    9212    9213
    9213       0    9215    9216    9217    9216    9217    9217       0    9219
    9220    9221    9220    9221    9221       0    9223    9224    9225    9224
    9225    9225       0    9227    9228    9229    9228    9229    9229       0
    9231    9232    9233    9232    9233    9233       0    9235    9236    9237
    9236    9237    9237       0    9239    9240    9241    9240    9241    9241
       0    9243    9244    9245    9244    9245    9245       0    9247    9248
    9249    9248    9249    9249       0    9251    9252    9253    9252    9253
    9253       0    9255    9256    9257    9256    9257    9257       0    9259
    9260    9261    9260    9261    9261       0    9263    9264    9265    9264
    9265    9265       0    9267    9268    9269    9268    9269    9269       0
    9271    9272    9273    9272    9273    9273       0    9275    9276    9277
    9276    9277    9277       0    9279    9280    9281    9280    9281    9281
       0    9283    9284    9285    9284    9285    9285       0    9287    9288
    9289    9288    9289    9289       0    9291    9292    9293    9292    9293
    9293       0    9295    9296    9297    9296    9297    9297       0    9299
    9300    9301    9300    9301    9301       0    9303    9304    9305    9304
    9305    9305       0    9307    9308    9309    9308    9309    9309       0
    9311    9312    9313    9312    9313    9313       0    9315    9316    9317
    9316    9317    9317       0    9319    9320    9321    9320    9321    9321
       0    9323    9324    9325    9324    9325    9325       0    9327    9328
    9329    9328    9329    9329       0    9331    9332    9333    9332    9333
    9333       0    9335    9336    9337    9336    9337    9337       0    9339
    9340    9341    9340    9341    9341       0    9343    9344    9345    9344
    9345    9345       0    9347    9348    9349    9348    9349    9349       0
    9351    9352    9353    9352    9353    9353       0    9355    9356    9357
    9356    9357    9357       0    9359    9360    9361    9360    9361    9361
       0    9363    9364    9365    9364    9365    9365       0    9367    9368
    9369    9368    9369    9369       0    9371    9372    9373    9372    9373
    9373       0    9375    9376    9377    9376    9377    9377       0    9379
    9380    9381    9380    9381    9381       0    9383    9384    9385    9384
    9385    9385       0    9387    9388    9389    9388    9389    9389       0
    9391    9392    9393    9392    9393    9393       0    9395    9396    9397
    9396    9397    9397       0    9399    9400    9401    9400    9401    9401
       0    9403    9404    9405    9404    9405    9405       0    9407    9408
    9409    9408    9409    9409       0    9411    9412    9413    9412    9413
    9413       0    9415    9416    9417    9416    9417    9417       0    9419
    9420    9421    9420    9421    9421       0    9423    9424    9425    9424
    9425    9425       0    9427    9428    9429    9428    9429    9429       0
    9431    9432    9433    9432    9433    9433       0    9435    9436    9437
    9436    9437    9437       0    9439    9440    9441    9440    9441    9441
       0    9443    9444    9445    9444    9445    9445       0    9447    9448
    9449    9448    9449    9449       0    9451    9452    9453    9452    9453
    9453       0    9455    9456    9457    9456    9457    9457       0    9459
    9460    9461    9460    9461    9461       0    9463    9464    9465    9464
    9465    9465       0    9467    9468    9469    9468    9469    9469       0
    9471    9472    9473    9472    9473    9473       0    9475    9476    9477
    9476    9477    9477       0    9479    9480    9481    9480    9481    9481
       0    9483    9484    9485    9484    9485    9485       0    9487    9488
    9489    9488    9489    9489       0    9491    9492    9493    9492    9493
    9493       0    9495    9496    9497    9496    9497    9497       0    9499
    9500    9501    9500    9501    9501       0    9503    9504    9505    9504
    9505    9505       0    9507    9508    9509    9508    9509    9509       0
    9511    9512    9513    9512    9513    9513       0    9515    9516    9517
    9516    9517    9517       0    9519    9520    9521    9520    9521    9521
       0    9523    9524    9525    9524    9525    9525       0    9527    9528
    9529    9528    9529    9529       0    9531    9532    9533    9532    9533
    9533       0    9535    9536    9537    9536    9537    9537       0    9539
    9540    9541    9540    9541    9541       0    9543    9544    9545    9544
    9545    9545       0    9547    9548    9549    9548    9549    9549       0
    9551    9552    9553    9552    9553    9553       0    9555    9556    9557
    9556    9557    9557       0    9559    9560    9561    9560    9561    9561
       0    9563    9564    9565    9564    9565    9565       0    9567    9568
    9569    9568    9569    9569       0    9571    9572    9573    9572    9573
    9573       0    9575    9576    9577    9576    9577    9577       0    9579
    9580    9581    9580    9581    9581       0    9583    9584    9585    9584
    9585    9585       0    9587    9588    9589    9588    9589    9589       0
    9591    9592    9593    9592    9593    9593       0    9595    9596    9597
    9596    9597    9597       0    9599    9600    9601    9600    9601    9601
       0    9603    9604    9605    9604    9605    9605       0    9607    9608
    9609    9608    9609    9609       0    9611    9612    9613    9612    9613
    9613       0    9615    9616    9617    9616    9617    9617       0    9619
    9620    9621    9620    9621    9621       0    9623    9624    9625    9624
    9625    9625       0    9627    9628    9629    9628    9629    9629       0
    9631    9632    9633    9632    9633    9633       0    9635    9636    9637
    9636    9637    9637       0    9639    9640    9641    9640    9641    9641
       0    9643    9644    9645    9644    9645    9645       0    9647    9648
    9649    9648    9649    9649       0    9651    9652    9653    9652    9653
    9653       0    9655    9656    9657    9656    9657    9657       0    9659
    9660    9661    9660    9661    9661       0    9663    9664    9665    9664
    9665    9665       0    9667    9668    9669    9668    9669    9669       0
    9671    9672    9673    9672    9673    9673       0    9675    9676    9677
    9676    9677    9677       0    9679    9680    9681    9680    9681    9681
       0    9683    9684    9685    9684    9685    9685       0    9687    9688
    9689    9688    9689    9689       0    9691    9692    9693    9692    9693
    9693       0    9695    9696    9697    9696    9697    9697       0    9699
    9700    9701    9700    9701    9701       0    9703    9704    9705    9704
    9705    9705       0    9707    9708    9709    9708    9709    9709       0
    9711    9712    9713    9712    9713    9713       0    9715    9716    9717
    9716    9717    9717       0    9719    9720    9721    9720    9721    9721
       0    9723    9724    9725    9724    9725    9725       0    9727    9728
    9729    9728    9729    9729       0    9731    9732    9733    9732    9733
    9733       0    9735    9736    9737    9736    9737    9737       0    9739
    9740    9741    9740    9741    9741       0    9743    9744    9745    9744
    9745    9745       0    9747    9748    9749    9748    9749    9749       0
    9751    9752    9753    9752    9753    9753       0    9755    9756    9757
    9756    9757    9757       0    9759    9760    9761    9760    9761    9761
       0    9763    9764    9765    9764    9765    9765       0    9767    9768
    9769    9768    9769    9769       0    9771    9772    9773    9772    9773
    9773       0    9775    9776    9777    9776    9777    9777       0    9779
    9780    9781    9780    9781    9781       0    9783    9784    9785    9784
    9785    9785       0    9787    9788    9789    9788    9789    9789       0
    9791    9792    9793    9792    9793    9793       0    9795    9796    9797
    9796    9797    9797       0    9799    9800    9801    9800    9801    9801
       0    9803    9804    9805    9804    9805    9805       0    9807    9808
    9809    9808    9809    9809       0    9811    9812    9813    9812    9813
    9813       0    9815    9816    9817    9816    9817    9817       0    9819
    9820    9821    9820    9821    9821       0    9823    9824    9825    9824
    9825    9825       0    9827    9828    9829    9828    9829    9829       0
    9831    9832    9833    9832    9833    9833       0    9835    9836    9837
    9836    9837    9837       0    9839    9840    9841    9840    9841    9841
       0    9843    9844    9845    9844    9845    9845       0    9847    9848
    9849    9848    9849    9849       0    9851    9852    9853    9852    9853
    9853       0    9855    9856    9857    9856    9857    9857       0    9859
    9860    9861    9860    9861    9861       0    9863    9864    9865    9864
    9865    9865       0    9867    9868    9869    9868    9869    9869       0
    9871    9872    9873    9872    9873    9873       0    9875    9876    9877
    9876    9877    9877       0    9879    9880    9881    9880    9881    9881
       0    9883    9884    9885    9884    9885    9885       0    9887    9888
    9889    9888    9889    9889       0    9891    9892    9893    9892    9893
    9893       0    9895    9896    9897    9896    9897    9897       0    9899
    9900    9901    9900    9901    9901       0    9903    9904    9905    9904
    9905    9905       0    9907    9908    9909    9908    9909    9909       0
    9911    9912    9913    9912    9913    9913       0    9915    9916    9917
    9916    9917    9917       0    9919    9920    9921    9920    9921    9921
       0    9923    9924    9925    9924    9925    9925       0    9927    9928
    9929    9928    9929    9929       0    9931    9932    9933    9932    9933
    9933       0    9935    9936    9937    9936    9937    9937       0    9939
    9940    9941    9940    9941    9941       0    9943    9944    9945    9944
    9945    9945       0    9947    9948    9949    9948    9949    9949       0
    9951    9952    9953    9952    9953    9953       0    9955    9956    9957
    9956    9957    9957       0    9959    9960    9961    9960    9961    9961
       0    9963    9964    9965    9964    9965    9965       0    9967    9968
    9969    9968    9969    9969       0    9971    9972    9973    9972    9973
    9973       0    9975    9976    9977    9976    9977    9977       0    9979
    9980    9981    9980    9981    9981       0    9983    9984    9985    9984
    9985    9985       0    9987    9988    9989    9988    9989    9989       0
    9991    9992    9993    9992    9993    9993       0    9995    9996    9997
    9996    9997    9997       0    9999   10000   10001   10000   10001   10001
       0   10003   10004   10005   10004   10005   10005       0   10007   10008
   10009   10008   10009   10009       0   10011   10012   10013   10012   10013
   10013       0   10015   10016   10017   10016   10017   10017       0   10019
   10020   10021   10020   10021   10021       0   10023   10024   10025   10024
   10025   10025       0   10027   10028   10029   10028   10029   10029       0
   10031   10032   10033   10032   10033   10033       0   10035   10036   10037
   10036   10037   10037       0   10039   10040   10041   10040   10041   10041
       0   10043   10044   10045   10044   10045   10045       0   10047   10048
   10049   10048   10049   10049       0   10051   10052   10053   10052   10053
   10053       0   10055   10056   10057   10056   10057   10057       0   10059
   10060   10061   10060   10061   10061       0   10063   10064   10065   10064
   10065   10065       0   10067   10068   10069   10068   10069   10069       0
   10071   10072   10073   10072   10073   10073       0   10075   10076   10077
   10076   10077   10077       0   10079   10080   10081   10080   10081   10081
       0   10083   10084   10085   10084   10085   10085       0   10087   10088
   10089   10088   10089   10089       0   10091   10092   10093   10092   10093
   10093       0   10095   10096   10097   10096   10097   10097       0   10099
   10100   10101   10100   10101   10101       0   10103   10104   10105   10104
   10105   10105       0   10107   10108   10109   10108   10109   10109       0
   10111   10112   10113   10112   10113   10113       0   10115   10116   10117
   10116   10117   10117       0   10119   10120   10121   10120   10121   10121
       0   10123   10124   10125   10124   10125   10125       0   10127   10128
   10129   10128   10129   10129       0   10131   10132   10133   10132   10133
   10133       0   10135   10136   10137   10136   10137   10137       0   10139
   10140   10141   10140   10141   10141       0   10143   10144   10145   10144
   10145   10145       0   10147   10148   10149   10148   10149   10149       0
   10151   10152   10153   10152   10153   10153       0   10155   10156   10157
   10156   10157   10157       0   10159   10160   10161   10160   10161   10161
       0   10163   10164   10165   10164   10165   10165       0   10167   10168
   10169   10168   10169   10169       0   10171   10172   10173   10172   10173
   10173       0   10175   10176   10177   10176   10177   10177       0   10179
   10180   10181   10180   10181   10181       0   10183   10184   10185   10184
   10185   10185       0   10187   10188   10189   10188   10189   10189       0
   10191   10192   10193   10192   10193   10193       0   10195   10196   10197
   10196   10197   10197       0   10199   10200   10201   10200   10201   10201
       0   10203   10204   10205   10204   10205   10205       0   10207   10208
   10209   10208   10209   10209       0   10211   10212   10213   10212   10213
   10213       0   10215   10216   10217   10216   10217   10217       0   10219
   10220   10221   10220   10221   10221       0   10223   10224   10225   10224
   10225   10225       0   10227   10228   10229   10228   10229   10229       0
   10231   10232   10233   10232   10233   10233       0   10235   10236   10237
   10236   10237   10237       0   10239   10240   10241   10240   10241   10241
       0   10243   10244   10245   10244   10245   10245       0   10247   10248
   10249   10248   10249   10249       0   10251   10252   10253   10252   10253
   10253       0   10255   10256   10257   10256   10257   10257       0   10259
   10260   10261   10260   10261   10261       0   10263   10264   10265   10264
   10265   10265       0   10267   10268   10269   10268   10269   10269       0
   10271   10272   10273   10272   10273   10273       0   10275   10276   10277
   10276   10277   10277       0   10279   10280   10281   10280   10281   10281
       0   10283   10284   10285   10284   10285   10285       0   10287   10288
   10289   10288   10289   10289       0   10291   10292   10293   10292   10293
   10293       0   10295   10296   10297   10296   10297   10297       0   10299
   10300   10301   10300   10301   10301       0   10303   10304   10305   10304
   10305   10305       0   10307   10308   10309   10308   10309   10309       0
   10311   10312   10313   10312   10313   10313       0   10315   10316   10317
   10316   10317   10317       0   10319   10320   10321   10320   10321   10321
       0   10323   10324   10325   10324   10325   10325       0   10327   10328
   10329   10328   10329   10329       0   10331   10332   10333   10332   10333
   10333       0   10335   10336   10337   10336   10337   10337       0   10339
   10340   10341   10340   10341   10341       0   10343   10344   10345   10344
   10345   10345       0   10347   10348   10349   10348   10349   10349       0
   10351   10352   10353   10352   10353   10353       0   10355   10356   10357
   10356   10357   10357       0   10359   10360   10361   10360   10361   10361
       0   10363   10364   10365   10364   10365   10365       0   10367   10368
   10369   10368   10369   10369       0   10371   10372   10373   10372   10373
   10373       0   10375   10376   10377   10376   10377   10377       0   10379
   10380   10381   10380   10381   10381       0   10383   10384   10385   10384
   10385   10385       0   10387   10388   10389   10388   10389   10389       0
   10391   10392   10393   10392   10393   10393       0   10395   10396   10397
   10396   10397   10397       0   10399   10400   10401   10400   10401   10401
       0   10403   10404   10405   10404   10405   10405       0   10407   10408
   10409   10408   10409   10409       0   10411   10412   10413   10412   10413
   10413       0   10415   10416   10417   10416   10417   10417       0   10419
   10420   10421   10420   10421   10421       0   10423   10424   10425   10424
   10425   10425       0   10427   10428   10429   10428   10429   10429       0
   10431   10432   10433   10432   10433   10433       0   10435   10436   10437
   10436   10437   10437       0   10439   10440   10441   10440   10441   10441
       0   10443   10444   10445   10444   10445   10445       0   10447   10448
   10449   10448   10449   10449       0   10451   10452   10453   10452   10453
   10453       0   10455   10456   10457   10456   10457   10457       0   10459
   10460   10461   10460   10461   10461       0   10463   10464   10465   10464
   10465   10465       0   10467   10468   10469   10468   10469   10469       0
   10471   10472   10473   10472   10473   10473       0   10475   10476   10477
   10476   10477   10477       0   10479   10480   10481   10480   10481   10481
       0   10483   10484   10485   10484   10485   10485       0   10487   10488
   10489   10488   10489   10489       0   10491   10492   10493   10492   10493
   10493       0   10495   10496   10497   10496   10497   10497       0   10499
   10500   10501   10500   10501   10501       0   10503   10504   10505   10504
   10505   10505       0   10507   10508   10509   10508   10509   10509       0
   10511   10512   10513   10512   10513   10513       0   10515   10516   10517
   10516   10517   10517       0   10519   10520   10521   10520   10521   10521
       0   10523   10524   10525   10524   10525   10525       0   10527   10528
   10529   10528   10529   10529       0   10531   10532   10533   10532   10533
   10533       0   10535   10536   10537   10536   10537   10537       0   10539
   10540   10541   10540   10541   10541       0   10543   10544   10545   10544
   10545   10545       0   10547   10548   10549   10548   10549   10549       0
   10551   10552   10553   10552   10553   10553       0   10555   10556   10557
   10556   10557   10557       0   10559   10560   10561   10560   10561   10561
       0   10563   10564   10565   10564   10565   10565       0   10567   10568
   10569   10568   10569   10569       0   10571   10572   10573   10572   10573
   10573       0   10575   10576   10577   10576   10577   10577       0   10579
   10580   10581   10580   10581   10581       0   10583   10584   10585   10584
   10585   10585       0   10587   10588   10589   10588   10589   10589       0
   10591   10592   10593   10592   10593   10593       0   10595   10596   10597
   10596   10597   10597       0   10599   10600   10601   10600   10601   10601
       0   10603   10604   10605   10604   10605   10605       0   10607   10608
   10609   10608   10609   10609       0   10611   10612   10613   10612   10613
   10613       0   10615   10616   10617   10616   10617   10617       0   10619
   10620   10621   10620   10621   10621       0   10623   10624   10625   10624
   10625   10625       0   10627   10628   10629   10628   10629   10629       0
   10631   10632   10633   10632   10633   10633       0   10635   10636   10637
   10636   10637   10637       0   10639   10640   10641   10640   10641   10641
       0   10643   10644   10645   10644   10645   10645       0   10647   10648
   10649   10648   10649   10649       0   10651   10652   10653   10652   10653
   10653       0   10655   10656   10657   10656   10657   10657       0   10659
   10660   10661   10660   10661   10661       0   10663   10664   10665   10664
   10665   10665       0   10667   10668   10669   10668   10669   10669       0
   10671   10672   10673   10672   10673   10673       0   10675   10676   10677
   10676   10677   10677       0   10679   10680   10681   10680   10681   10681
       0   10683   10684   10685   10684   10685   10685       0   10687   10688
   10689   10688   10689   10689       0   10691   10692   10693   10692   10693
   10693       0   10695   10696   10697   10696   10697   10697       0   10699
   10700   10701   10700   10701   10701       0   10703   10704   10705   10704
   10705   10705       0   10707   10708   10709   10708   10709   10709       0
   10711   10712   10713   10712   10713   10713       0   10715   10716   10717
   10716   10717   10717       0   10719   10720   10721   10720   10721   10721
       0   10723   10724   10725   10724   10725   10725       0   10727   10728
   10729   10728   10729   10729       0   10731   10732   10733   10732   10733
   10733       0   10735   10736   10737   10736   10737   10737       0   10739
   10740   10741   10740   10741   10741       0   10743   10744   10745   10744
   10745   10745       0   10747   10748   10749   10748   10749   10749       0
   10751   10752   10753   10752   10753   10753       0   10755   10756   10757
   10756   10757   10757       0   10759   10760   10761   10760   10761   10761
       0   10763   10764   10765   10764   10765   10765       0   10767   10768
   10769   10768   10769   10769       0   10771   10772   10773   10772   10773
   10773       0   10775   10776   10777   10776   10777   10777       0   10779
   10780   10781   10780   10781   10781       0   10783   10784   10785   10784
   10785   10785       0   10787   10788   10789   10788   10789   10789       0
   10791   10792   10793   10792   10793   10793       0   10795   10796   10797
   10796   10797   10797       0   10799   10800   10801   10800   10801   10801
       0   10803   10804   10805   10804   10805   10805       0   10807   10808
   10809   10808   10809   10809       0   10811   10812   10813   10812   10813
   10813       0   10815   10816   10817   10816   10817   10817       0   10819
   10820   10821   10820   10821   10821       0   10823   10824   10825   10824
   10825   10825       0   10827   10828   10829   10828   10829   10829       0
   10831   10832   10833   10832   10833   10833       0   10835   10836   10837
   10836   10837   10837       0   10839   10840   10841   10840   10841   10841
       0   10843   10844   10845   10844   10845   10845       0   10847   10848
   10849   10848   10849   10849       0   10851   10852   10853   10852   10853
   10853       0   10855   10856   10857   10856   10857   10857       0   10859
   10860   10861   10860   10861   10861       0   10863   10864   10865   10864
   10865   10865       0   10867   10868   10869   10868   10869   10869       0
   10871   10872   10873   10872   10873   10873       0   10875   10876   10877
   10876   10877   10877       0   10879   10880   10881   10880   10881   10881
       0   10883   10884   10885   10884   10885   10885       0   10887   10888
   10889   10888   10889   10889       0   10891   10892   10893   10892   10893
   10893       0   10895   10896   10897   10896   10897   10897       0   10899
   10900   10901   10900   10901   10901       0   10903   10904   10905   10904
   10905   10905       0   10907   10908   10909   10908   10909   10909       0
   10911   10912   10913   10912   10913   10913       0   10915   10916   10917
   10916   10917   10917       0   10919   10920   10921   10920   10921   10921
       0   10923   10924   10925   10924   10925   10925       0   10927   10928
   10929   10928   10929   10929       0   10931   10932   10933   10932   10933
   10933       0   10935   10936   10937   10936   10937   10937       0   10939
   10940   10941   10940   10941   10941       0   10943   10944   10945   10944
   10945   10945       0   10947   10948   10949   10948   10949   10949       0
   10951   10952   10953   10952   10953   10953       0   10955   10956   10957
   10956   10957   10957       0   10959   10960   10961   10960   10961   10961
       0   10963   10964   10965   10964   10965   10965       0   10967   10968
   10969   10968   10969   10969       0   10971   10972   10973   10972   10973
   10973       0   10975   10976   10977   10976   10977   10977       0   10979
   10980   10981   10980   10981   10981       0   10983   10984   10985   10984
   10985   10985       0   10987   10988   10989   10988   10989   10989       0
   10991   10992   10993   10992   10993   10993       0   10995   10996   10997
   10996   10997   10997       0   10999   11000   11001   11000   11001   11001
       0   11003   11004   11005   11004   11005   11005       0   11007   11008
   11009   11008   11009   11009       0   11011   11012   11013   11012   11013
   11013       0   11015   11016   11017   11016   11017   11017       0   11019
   11020   11021   11020   11021   11021       0   11023   11024   11025   11024
   11025   11025       0   11027   11028   11029   11028   11029   11029       0
   11031   11032   11033   11032   11033   11033       0   11035   11036   11037
   11036   11037   11037       0   11039   11040   11041   11040   11041   11041
       0   11043   11044   11045   11044   11045   11045       0   11047   11048
   11049   11048   11049   11049       0   11051   11052   11053   11052   11053
   11053       0   11055   11056   11057   11056   11057   11057       0   11059
   11060   11061   11060   11061   11061       0   11063   11064   11065   11064
   11065   11065       0   11067   11068   11069   11068   11069   11069       0
   11071   11072   11073   11072   11073   11073       0   11075   11076   11077
   11076   11077   11077       0   11079   11080   11081   11080   11081   11081
       0   11083   11084   11085   11084   11085   11085       0   11087   11088
   11089   11088   11089   11089       0   11091   11092   11093   11092   11093
   11093       0   11095   11096   11097   11096   11097   11097       0   11099
   11100   11101   11100   11101   11101       0   11103   11104   11105   11104
   11105   11105       0   11107   11108   11109   11108   11109   11109       0
   11111   11112   11113   11112   11113   11113       0   11115   11116   11117
   11116   11117   11117       0   11119   11120   11121   11120   11121   11121
       0   11123   11124   11125   11124   11125   11125       0   11127   11128
   11129   11128   11129   11129       0   11131   11132   11133   11132   11133
   11133       0   11135   11136   11137   11136   11137   11137       0   11139
   11140   11141   11140   11141   11141       0   11143   11144   11145   11144
   11145   11145       0   11147   11148   11149   11148   11149   11149       0
   11151   11152   11153   11152   11153   11153       0   11155   11156   11157
   11156   11157   11157       0   11159   11160   11161   11160   11161   11161
       0   11163   11164   11165   11164   11165   11165       0   11167   11168
   11169   11168   11169   11169       0   11171   11172   11173   11172   11173
   11173       0   11175   11176   11177   11176   11177   11177       0   11179
   11180   11181   11180   11181   11181       0   11183   11184   11185   11184
   11185   11185       0   11187   11188   11189   11188   11189   11189       0
   11191   11192   11193   11192   11193   11193       0   11195   11196   11197
   11196   11197   11197       0   11199   11200   11201   11200   11201   11201
       0   11203   11204   11205   11204   11205   11205       0   11207   11208
   11209   11208   11209   11209       0   11211   11212   11213   11212   11213
   11213       0   11215   11216   11217   11216   11217   11217       0   11219
   11220   11221   11220   11221   11221       0   11223   11224   11225   11224
   11225   11225       0   11227   11228   11229   11228   11229   11229       0
   11231   11232   11233   11232   11233   11233       0   11235   11236   11237
   11236   11237   11237       0   11239   11240   11241   11240   11241   11241
       0   11243   11244   11245   11244   11245   11245       0   11247   11248
   11249   11248   11249   11249       0   11251   11252   11253   11252   11253
   11253       0   11255   11256   11257   11256   11257   11257       0   11259
   11260   11261   11260   11261   11261       0   11263   11264   11265   11264
   11265   11265       0   11267   11268   11269   11268   11269   11269       0
   11271   11272   11273   11272   11273   11273       0   11275   11276   11277
   11276   11277   11277       0   11279   11280   11281   11280   11281   11281
       0   11283   11284   11285   11284   11285   11285       0   11287   11288
   11289   11288   11289   11289       0   11291   11292   11293   11292   11293
   11293       0   11295   11296   11297   11296   11297   11297       0   11299
   11300   11301   11300   11301   11301       0   11303   11304   11305   11304
   11305   11305       0   11307   11308   11309   11308   11309   11309       0
   11311   11312   11313   11312   11313   11313       0   11315   11316   11317
   11316   11317   11317       0   11319   11320   11321   11320   11321   11321
       0   11323   11324   11325   11324   11325   11325       0   11327   11328
   11329   11328   11329   11329       0   11331   11332   11333   11332   11333
   11333       0   11335   11336   11337   11336   11337   11337       0   11339
   11340   11341   11340   11341   11341       0   11343   11344   11345   11344
   11345   11345       0   11347   11348   11349   11348   11349   11349       0
   11351   11352   11353   11352   11353   11353       0   11355   11356   11357
   11356   11357   11357       0   11359   11360   11361   11360   11361   11361
       0   11363   11364   11365   11364   11365   11365       0   11367   11368
   11369   11368   11369   11369       0   11371   11372   11373   11372   11373
   11373       0   11375   11376   11377   11376   11377   11377       0   11379
   11380   11381   11380   11381   11381       0   11383   11384   11385   11384
   11385   11385       0   11387   11388   11389   11388   11389   11389       0
   11391   11392   11393   11392   11393   11393       0   11395   11396   11397
   11396   11397   11397       0   11399   11400   11401   11400   11401   11401
       0   11403   11404   11405   11404   11405   11405       0   11407   11408
   11409   11408   11409   11409       0   11411   11412   11413   11412   11413
   11413       0   11415   11416   11417   11416   11417   11417       0   11419
   11420   11421   11420   11421   11421       0   11423   11424   11425   11424
   11425   11425       0   11427   11428   11429   11428   11429   11429       0
   11431   11432   11433   11432   11433   11433       0   11435   11436   11437
   11436   11437   11437       0   11439   11440   11441   11440   11441   11441
       0   11443   11444   11445   11444   11445   11445       0   11447   11448
   11449   11448   11449   11449       0   11451   11452   11453   11452   11453
   11453       0   11455   11456   11457   11456   11457   11457       0   11459
   11460   11461   11460   11461   11461       0   11463   11464   11465   11464
   11465   11465       0   11467   11468   11469   11468   11469   11469       0
   11471   11472   11473   11472   11473   11473       0   11475   11476   11477
   11476   11477   11477       0   11479   11480   11481   11480   11481   11481
       0   11483   11484   11485   11484   11485   11485       0   11487   11488
   11489   11488   11489   11489       0   11491   11492   11493   11492   11493
   11493       0   11495   11496   11497   11496   11497   11497       0   11499
   11500   11501   11500   11501   11501       0   11503   11504   11505   11504
   11505   11505       0   11507   11508   11509   11508   11509   11509       0
   11511   11512   11513   11512   11513   11513       0   11515   11516   11517
   11516   11517   11517       0   11519   11520   11521   11520   11521   11521
       0   11523   11524   11525   11524   11525   11525       0   11527   11528
   11529   11528   11529   11529       0   11531   11532   11533   11532   11533
   11533       0   11535   11536   11537   11536   11537   11537       0   11539
   11540   11541   11540   11541   11541       0   11543   11544   11545   11544
   11545   11545       0   11547   11548   11549   11548   11549   11549       0
   11551   11552   11553   11552   11553   11553       0   11555   11556   11557
   11556   11557   11557       0   11559   11560   11561   11560   11561   11561
       0   11563   11564   11565   11564   11565   11565       0   11567   11568
   11569   11568   11569   11569       0   11571   11572   11573   11572   11573
   11573       0   11575   11576   11577   11576   11577   11577       0   11579
   11580   11581   11580   11581   11581       0   11583   11584   11585   11584
   11585   11585       0   11587   11588   11589   11588   11589   11589       0
   11591   11592   11593   11592   11593   11593       0   11595   11596   11597
   11596   11597   11597       0   11599   11600   11601   11600   11601   11601
       0   11603   11604   11605   11604   11605   11605       0   11607   11608
   11609   11608   11609   11609       0   11611   11612   11613   11612   11613
   11613       0   11615   11616   11617   11616   11617   11617       0   11619
   11620   11621   11620   11621   11621       0   11623   11624   11625   11624
   11625   11625       0   11627   11628   11629   11628   11629   11629       0
   11631   11632   11633   11632   11633   11633       0   11635   11636   11637
   11636   11637   11637       0   11639   11640   11641   11640   11641   11641
       0   11643   11644   11645   11644   11645   11645       0   11647   11648
   11649   11648   11649   11649       0   11651   11652   11653   11652   11653
   11653       0   11655   11656   11657   11656   11657   11657       0   11659
   11660   11661   11660   11661   11661       0   11663   11664   11665   11664
   11665   11665       0   11667   11668   11669   11668   11669   11669       0
   11671   11672   11673   11672   11673   11673       0   11675   11676   11677
   11676   11677   11677       0   11679   11680   11681   11680   11681   11681
       0   11683   11684   11685   11684   11685   11685       0   11687   11688
   11689   11688   11689   11689       0   11691   11692   11693   11692   11693
   11693       0   11695   11696   11697   11696   11697   11697       0   11699
   11700   11701   11700   11701   11701       0   11703   11704   11705   11704
   11705   11705       0   11707   11708   11709   11708   11709   11709       0
   11711   11712   11713   11712   11713   11713       0   11715   11716   11717
   11716   11717   11717       0   11719   11720   11721   11720   11721   11721
       0   11723   11724   11725   11724   11725   11725       0   11727   11728
   11729   11728   11729   11729       0   11731   11732   11733   11732   11733
   11733       0   11735   11736   11737   11736   11737   11737       0   11739
   11740   11741   11740   11741   11741       0   11743   11744   11745   11744
   11745   11745       0   11747   11748   11749   11748   11749   11749       0
   11751   11752   11753   11752   11753   11753       0   11755   11756   11757
   11756   11757   11757       0   11759   11760   11761   11760   11761   11761
       0   11763   11764   11765   11764   11765   11765       0   11767   11768
   11769   11768   11769   11769       0   11771   11772   11773   11772   11773
   11773       0   11775   11776   11777   11776   11777   11777       0   11779
   11780   11781   11780   11781   11781       0   11783   11784   11785   11784
   11785   11785       0   11787   11788   11789   11788   11789   11789       0
   11791   11792   11793   11792   11793   11793       0   11795   11796   11797
   11796   11797   11797       0   11799   11800   11801   11800   11801   11801
       0   11803   11804   11805   11804   11805   11805       0   11807   11808
   11809   11808   11809   11809       0   11811   11812   11813   11812   11813
   11813       0   11815   11816   11817   11816   11817   11817       0   11819
   11820   11821   11820   11821   11821       0   11823   11824   11825   11824
   11825   11825       0   11827   11828   11829   11828   11829   11829       0
   11831   11832   11833   11832   11833   11833       0   11835   11836   11837
   11836   11837   11837       0   11839   11840   11841   11840   11841   11841
       0   11843   11844   11845   11844   11845   11845       0   11847   11848
   11849   11848   11849   11849       0   11851   11852   11853   11852   11853
   11853       0   11855   11856   11857   11856   11857   11857       0   11859
   11860   11861   11860   11861   11861       0   11863   11864   11865   11864
   11865   11865       0   11867   11868   11869   11868   11869   11869       0
   11871   11872   11873   11872   11873   11873       0   11875   11876   11877
   11876   11877   11877       0   11879   11880   11881   11880   11881   11881
       0   11883   11884   11885   11884   11885   11885       0   11887   11888
   11889   11888   11889   11889       0   11891   11892   11893   11892   11893
   11893       0   11895   11896   11897   11896   11897   11897       0   11899
   11900   11901   11900   11901   11901       0   11903   11904   11905   11904
   11905   11905       0   11907   11908   11909   11908   11909   11909       0
   11911   11912   11913   11912   11913   11913       0   11915   11916   11917
   11916   11917   11917       0   11919   11920   11921   11920   11921   11921
       0   11923   11924   11925   11924   11925   11925       0   11927   11928
   11929   11928   11929   11929       0   11931   11932   11933   11932   11933
   11933       0   11935   11936   11937   11936   11937   11937       0   11939
   11940   11941   11940   11941   11941       0   11943   11944   11945   11944
   11945   11945       0   11947   11948   11949   11948   11949   11949       0
   11951   11952   11953   11952   11953   11953       0   11955   11956   11957
   11956   11957   11957       0   11959   11960   11961   11960   11961   11961
       0   11963   11964   11965   11964   11965   11965       0   11967   11968
   11969   11968   11969   11969       0   11971   11972   11973   11972   11973
   11973       0   11975   11976   11977   11976   11977   11977       0   11979
   11980   11981   11980   11981   11981       0   11983   11984   11985   11984
   11985   11985       0   11987   11988   11989   11988   11989   11989       0
   11991   11992   11993   11992   11993   11993       0   11995   11996   11997
   11996   11997   11997       0   11999   12000   12001   12000   12001   12001
       0   12003   12004   12005   12004   12005   12005       0   12007   12008
   12009   12008   12009   12009       0   12011   12012   12013   12012   12013
   12013       0   12015   12016   12017   12016   12017   12017       0   12019
   12020   12021   12020   12021   12021       0   12023   12024   12025   12024
   12025   12025       0   12027   12028   12029   12028   12029   12029       0
   12031   12032   12033   12032   12033   12033       0   12035   12036   12037
   12036   12037   12037       0   12039   12040   12041   12040   12041   12041
       0   12043   12044   12045   12044   12045   12045       0   12047   12048
   12049   12048   12049   12049       0   12051   12052   12053   12052   12053
   12053       0   12055   12056   12057   12056   12057   12057       0   12059
   12060   12061   12060   12061   12061       0   12063   12064   12065   12064
   12065   12065       0   12067   12068   12069   12068   12069   12069       0
   12071   12072   12073   12072   12073   12073       0   12075   12076   12077
   12076   12077   12077       0   12079   12080   12081   12080   12081   12081
       0   12083   12084   12085   12084   12085   12085       0   12087   12088
   12089   12088   12089   12089       0   12091   12092   12093   12092   12093
   12093       0   12095   12096   12097   12096   12097   12097       0   12099
   12100   12101   12100   12101   12101       0   12103   12104   12105   12104
   12105   12105       0   12107   12108   12109   12108   12109   12109       0
   12111   12112   12113   12112   12113   12113       0   12115   12116   12117
   12116   12117   12117       0   12119   12120   12121   12120   12121   12121
       0   12123   12124   12125   12124   12125   12125       0   12127   12128
   12129   12128   12129   12129       0   12131   12132   12133   12132   12133
   12133       0   12135   12136   12137   12136   12137   12137       0   12139
   12140   12141   12140   12141   12141       0   12143   12144   12145   12144
   12145   12145       0   12147   12148   12149   12148   12149   12149       0
   12151   12152   12153   12152   12153   12153       0   12155   12156   12157
   12156   12157   12157       0   12159   12160   12161   12160   12161   12161
       0   12163   12164   12165   12164   12165   12165       0   12167   12168
   12169   12168   12169   12169       0   12171   12172   12173   12172   12173
   12173       0   12175   12176   12177   12176   12177   12177       0   12179
   12180   12181   12180   12181   12181       0   12183   12184   12185   12184
   12185   12185       0   12187   12188   12189   12188   12189   12189       0
   12191   12192   12193   12192   12193   12193       0   12195   12196   12197
   12196   12197   12197       0   12199   12200   12201   12200   12201   12201
       0   12203   12204   12205   12204   12205   12205       0   12207   12208
   12209   12208   12209   12209       0   12211   12212   12213   12212   12213
   12213       0   12215   12216   12217   12216   12217   12217       0   12219
   12220   12221   12220   12221   12221       0   12223   12224   12225   12224
   12225   12225       0   12227   12228   12229   12228   12229   12229       0
   12231   12232   12233   12232   12233   12233       0   12235   12236   12237
   12236   12237   12237       0   12239   12240   12241   12240   12241   12241
       0   12243   12244   12245   12244   12245   12245       0   12247   12248
   12249   12248   12249   12249       0   12251   12252   12253   12252   12253
   12253       0   12255   12256   12257   12256   12257   12257       0   12259
   12260   12261   12260   12261   12261       0   12263   12264   12265   12264
   12265   12265       0   12267   12268   12269   12268   12269   12269       0
   12271   12272   12273   12272   12273   12273       0   12275   12276   12277
   12276   12277   12277       0   12279   12280   12281   12280   12281   12281
       0   12283   12284   12285   12284   12285   12285       0   12287   12288
   12289   12288   12289   12289       0   12291   12292   12293   12292   12293
   12293       0   12295   12296   12297   12296   12297   12297       0   12299
   12300   12301   12300   12301   12301       0   12303   12304   12305   12304
   12305   12305       0   12307   12308   12309   12308   12309   12309       0
   12311   12312   12313   12312   12313   12313       0   12315   12316   12317
   12316   12317   12317       0   12319   12320   12321   12320   12321   12321
       0   12323   12324   12325   12324   12325   12325       0   12327   12328
   12329   12328   12329   12329       0   12331   12332   12333   12332   12333
   12333       0   12335   12336   12337   12336   12337   12337       0   12339
   12340   12341   12340   12341   12341       0   12343   12344   12345   12344
   12345   12345       0   12347   12348   12349   12348   12349   12349       0
   12351   12352   12353   12352   12353   12353       0   12355   12356   12357
   12356   12357   12357       0   12359   12360   12361   12360   12361   12361
       0   12363   12364   12365   12364   12365   12365       0   12367   12368
   12369   12368   12369   12369       0   12371   12372   12373   12372   12373
   12373       0   12375   12376   12377   12376   12377   12377       0   12379
   12380   12381   12380   12381   12381       0   12383   12384   12385   12384
   12385   12385       0   12387   12388   12389   12388   12389   12389       0
   12391   12392   12393   12392   12393   12393       0   12395   12396   12397
   12396   12397   12397       0   12399   12400   12401   12400   12401   12401
       0   12403   12404   12405   12404   12405   12405       0   12407   12408
   12409   12408   12409   12409       0   12411   12412   12413   12412   12413
   12413       0   12415   12416   12417   12416   12417   12417       0   12419
   12420   12421   12420   12421   12421       0   12423   12424   12425   12424
   12425   12425       0   12427   12428   12429   12428   12429   12429       0
   12431   12432   12433   12432   12433   12433       0   12435   12436   12437
   12436   12437   12437       0   12439   12440   12441   12440   12441   12441
       0   12443   12444   12445   12444   12445   12445       0   12447   12448
   12449   12448   12449   12449       0   12451   12452   12453   12452   12453
   12453       0   12455   12456   12457   12456   12457   12457       0   12459
   12460   12461   12460   12461   12461       0   12463   12464   12465   12464
   12465   12465       0   12467   12468   12469   12468   12469   12469       0
   12471   12472   12473   12472   12473   12473       0   12475   12476   12477
   12476   12477   12477       0   12479   12480   12481   12480   12481   12481
       0   12483   12484   12485   12484   12485   12485       0   12487   12488
   12489   12488   12489   12489       0   12491   12492   12493   12492   12493
   12493       0   12495   12496   12497   12496   12497   12497       0   12499
   12500   12501   12500   12501   12501       0   12503   12504   12505   12504
   12505   12505       0   12507   12508   12509   12508   12509   12509       0
   12511   12512   12513   12512   12513   12513       0   12515   12516   12517
   12516   12517   12517       0   12519   12520   12521   12520   12521   12521
       0   12523   12524   12525   12524   12525   12525       0   12527   12528
   12529   12528   12529   12529       0   12531   12532   12533   12532   12533
   12533       0   12535   12536   12537   12536   12537   12537       0   12539
   12540   12541   12540   12541   12541       0   12543   12544   12545   12544
   12545   12545       0   12547   12548   12549   12548   12549   12549       0
   12551   12552   12553   12552   12553   12553       0   12555   12556   12557
   12556   12557   12557       0   12559   12560   12561   12560   12561   12561
       0   12563   12564   12565   12564   12565   12565       0   12567   12568
   12569   12568   12569   12569       0   12571   12572   12573   12572   12573
   12573       0   12575   12576   12577   12576   12577   12577       0   12579
   12580   12581   12580   12581   12581       0   12583   12584   12585   12584
   12585   12585       0   12587   12588   12589   12588   12589   12589       0
   12591   12592   12593   12592   12593   12593       0   12595   12596   12597
   12596   12597   12597       0   12599   12600   12601   12600   12601   12601
       0   12603   12604   12605   12604   12605   12605       0   12607   12608
   12609   12608   12609   12609       0   12611   12612   12613   12612   12613
   12613       0   12615   12616   12617   12616   12617   12617       0   12619
   12620   12621   12620   12621   12621       0   12623   12624   12625   12624
   12625   12625       0   12627   12628   12629   12628   12629   12629       0
   12631   12632   12633   12632   12633   12633       0   12635   12636   12637
   12636   12637   12637       0   12639   12640   12641   12640   12641   12641
       0   12643   12644   12645   12644   12645   12645       0   12647   12648
   12649   12648   12649   12649       0   12651   12652   12653   12652   12653
   12653       0   12655   12656   12657   12656   12657   12657       0   12659
   12660   12661   12660   12661   12661       0   12663   12664   12665   12664
   12665   12665       0   12667   12668   12669   12668   12669   12669       0
   12671   12672   12673   12672   12673   12673       0   12675   12676   12677
   12676   12677   12677       0   12679   12680   12681   12680   12681   12681
       0   12683   12684   12685   12684   12685   12685       0   12687   12688
   12689   12688   12689   12689       0   12691   12692   12693   12692   12693
   12693       0   12695   12696   12697   12696   12697   12697       0   12699
   12700   12701   12700   12701   12701       0   12703   12704   12705   12704
   12705   12705       0   12707   12708   12709   12708   12709   12709       0
   12711   12712   12713   12712   12713   12713       0   12715   12716   12717
   12716   12717   12717       0   12719   12720   12721   12720   12721   12721
       0   12723   12724   12725   12724   12725   12725       0   12727   12728
   12729   12728   12729   12729       0   12731   12732   12733   12732   12733
   12733       0   12735   12736   12737   12736   12737   12737       0   12739
   12740   12741   12740   12741   12741       0   12743   12744   12745   12744
   12745   12745       0   12747   12748   12749   12748   12749   12749       0
   12751   12752   12753   12752   12753   12753       0   12755   12756   12757
   12756   12757   12757       0   12759   12760   12761   12760   12761   12761
       0   12763   12764   12765   12764   12765   12765       0   12767   12768
   12769   12768   12769   12769       0   12771   12772   12773   12772   12773
   12773       0   12775   12776   12777   12776   12777   12777       0   12779
   12780   12781   12780   12781   12781       0   12783   12784   12785   12784
   12785   12785       0   12787   12788   12789   12788   12789   12789       0
   12791   12792   12793   12792   12793   12793       0   12795   12796   12797
   12796   12797   12797       0   12799   12800   12801   12800   12801   12801
       0   12803   12804   12805   12804   12805   12805       0   12807   12808
   12809   12808   12809   12809       0   12811   12812   12813   12812   12813
   12813       0   12815   12816   12817   12816   12817   12817       0   12819
   12820   12821   12820   12821   12821       0   12823   12824   12825   12824
   12825   12825       0   12827   12828   12829   12828   12829   12829       0
   12831   12832   12833   12832   12833   12833       0   12835   12836   12837
   12836   12837   12837       0   12839   12840   12841   12840   12841   12841
       0   12843   12844   12845   12844   12845   12845       0   12847   12848
   12849   12848   12849   12849       0   12851   12852   12853   12852   12853
   12853       0   12855   12856   12857   12856   12857   12857       0   12859
   12860   12861   12860   12861   12861       0   12863   12864   12865   12864
   12865   12865       0   12867   12868   12869   12868   12869   12869       0
   12871   12872   12873   12872   12873   12873       0   12875   12876   12877
   12876   12877   12877       0   12879   12880   12881   12880   12881   12881
       0   12883   12884   12885   12884   12885   12885       0   12887   12888
   12889   12888   12889   12889       0   12891   12892   12893   12892   12893
   12893       0   12895   12896   12897   12896   12897   12897       0   12899
   12900   12901   12900   12901   12901       0   12903   12904   12905   12904
   12905   12905       0   12907   12908   12909   12908   12909   12909       0
   12911   12912   12913   12912   12913   12913       0   12915   12916   12917
   12916   12917   12917       0   12919   12920   12921   12920   12921   12921
       0   12923   12924   12925   12924   12925   12925       0   12927   12928
   12929   12928   12929   12929       0   12931   12932   12933   12932   12933
   12933       0   12935   12936   12937   12936   12937   12937       0   12939
   12940   12941   12940   12941   12941       0   12943   12944   12945   12944
   12945   12945       0   12947   12948   12949   12948   12949   12949       0
   12951   12952   12953   12952   12953   12953       0   12955   12956   12957
   12956   12957   12957       0   12959   12960   12961   12960   12961   12961
       0   12963   12964   12965   12964   12965   12965       0   12967   12968
   12969   12968   12969   12969       0   12971   12972   12973   12972   12973
   12973       0   12975   12976   12977   12976   12977   12977       0   12979
   12980   12981   12980   12981   12981       0   12983   12984   12985   12984
   12985   12985       0   12987   12988   12989   12988   12989   12989       0
   12991   12992   12993   12992   12993   12993       0   12995   12996   12997
   12996   12997   12997       0   12999   13000   13001   13000   13001   13001
       0   13003   13004   13005   13004   13005   13005       0   13007   13008
   13009   13008   13009   13009       0   13011   13012   13013   13012   13013
   13013       0   13015   13016   13017   13016   13017   13017       0   13019
   13020   13021   13020   13021   13021       0   13023   13024   13025   13024
   13025   13025       0   13027   13028   13029   13028   13029   13029       0
   13031   13032   13033   13032   13033   13033       0   13035   13036   13037
   13036   13037   13037       0   13039   13040   13041   13040   13041   13041
       0   13043   13044   13045   13044   13045   13045       0   13047   13048
   13049   13048   13049   13049       0   13051   13052   13053   13052   13053
   13053       0   13055   13056   13057   13056   13057   13057       0   13059
   13060   13061   13060   13061   13061       0   13063   13064   13065   13064
   13065   13065       0   13067   13068   13069   13068   13069   13069       0
   13071   13072   13073   13072   13073   13073       0   13075   13076   13077
   13076   13077   13077       0   13079   13080   13081   13080   13081   13081
       0   13083   13084   13085   13084   13085   13085       0   13087   13088
   13089   13088   13089   13089       0   13091   13092   13093   13092   13093
   13093       0   13095   13096   13097   13096   13097   13097       0   13099
   13100   13101   13100   13101   13101       0   13103   13104   13105   13104
   13105   13105       0   13107   13108   13109   13108   13109   13109       0
   13111   13112   13113   13112   13113   13113       0   13115   13116   13117
   13116   13117   13117       0   13119   13120   13121   13120   13121   13121
       0   13123   13124   13125   13124   13125   13125       0   13127   13128
   13129   13128   13129   13129       0   13131   13132   13133   13132   13133
   13133       0   13135   13136   13137   13136   13137   13137       0   13139
   13140   13141   13140   13141   13141       0   13143   13144   13145   13144
   13145   13145       0   13147   13148   13149   13148   13149   13149       0
   13151   13152   13153   13152   13153   13153       0   13155   13156   13157
   13156   13157   13157       0   13159   13160   13161   13160   13161   13161
       0   13163   13164   13165   13164   13165   13165       0   13167   13168
   13169   13168   13169   13169       0   13171   13172   13173   13172   13173
   13173       0   13175   13176   13177   13176   13177   13177       0   13179
   13180   13181   13180   13181   13181       0   13183   13184   13185   13184
   13185   13185       0   13187   13188   13189   13188   13189   13189       0
   13191   13192   13193   13192   13193   13193       0   13195   13196   13197
   13196   13197   13197       0   13199   13200   13201   13200   13201   13201
       0   13203   13204   13205   13204   13205   13205       0   13207   13208
   13209   13208   13209   13209       0   13211   13212   13213   13212   13213
   13213       0   13215   13216   13217   13216   13217   13217       0   13219
   13220   13221   13220   13221   13221       0   13223   13224   13225   13224
   13225   13225       0   13227   13228   13229   13228   13229   13229       0
   13231   13232   13233   13232   13233   13233       0   13235   13236   13237
   13236   13237   13237       0   13239   13240   13241   13240   13241   13241
       0   13243   13244   13245   13244   13245   13245       0   13247   13248
   13249   13248   13249   13249       0   13251   13252   13253   13252   13253
   13253       0   13255   13256   13257   13256   13257   13257       0   13259
   13260   13261   13260   13261   13261       0   13263   13264   13265   13264
   13265   13265       0   13267   13268   13269   13268   13269   13269       0
   13271   13272   13273   13272   13273   13273       0   13275   13276   13277
   13276   13277   13277       0   13279   13280   13281   13280   13281   13281
       0   13283   13284   13285   13284   13285   13285       0   13287   13288
   13289   13288   13289   13289       0   13291   13292   13293   13292   13293
   13293       0   13295   13296   13297   13296   13297   13297       0   13299
   13300   13301   13300   13301   13301       0   13303   13304   13305   13304
   13305   13305       0   13307   13308   13309   13308   13309   13309       0
   13311   13312   13313   13312   13313   13313       0   13315   13316   13317
   13316   13317   13317       0   13319   13320   13321   13320   13321   13321
       0   13323   13324   13325   13324   13325   13325       0   13327   13328
   13329   13328   13329   13329       0   13331   13332   13333   13332   13333
   13333       0   13335   13336   13337   13336   13337   13337       0   13339
   13340   13341   13340   13341   13341       0   13343   13344   13345   13344
   13345   13345       0   13347   13348   13349   13348   13349   13349       0
   13351   13352   13353   13352   13353   13353       0   13355   13356   13357
   13356   13357   13357       0   13359   13360   13361   13360   13361   13361
       0   13363   13364   13365   13364   13365   13365       0   13367   13368
   13369   13368   13369   13369       0   13371   13372   13373   13372   13373
   13373       0   13375   13376   13377   13376   13377   13377       0   13379
   13380   13381   13380   13381   13381       0   13383   13384   13385   13384
   13385   13385       0   13387   13388   13389   13388   13389   13389       0
   13391   13392   13393   13392   13393   13393       0   13395   13396   13397
   13396   13397   13397       0   13399   13400   13401   13400   13401   13401
       0   13403   13404   13405   13404   13405   13405       0   13407   13408
   13409   13408   13409   13409       0   13411   13412   13413   13412   13413
   13413       0   13415   13416   13417   13416   13417   13417       0   13419
   13420   13421   13420   13421   13421       0   13423   13424   13425   13424
   13425   13425       0   13427   13428   13429   13428   13429   13429       0
   13431   13432   13433   13432   13433   13433       0   13435   13436   13437
   13436   13437   13437       0   13439   13440   13441   13440   13441   13441
       0   13443   13444   13445   13444   13445   13445       0   13447   13448
   13449   13448   13449   13449       0   13451   13452   13453   13452   13453
   13453       0   13455   13456   13457   13456   13457   13457       0   13459
   13460   13461   13460   13461   13461       0   13463   13464   13465   13464
   13465   13465       0   13467   13468   13469   13468   13469   13469       0
   13471   13472   13473   13472   13473   13473       0   13475   13476   13477
   13476   13477   13477       0   13479   13480   13481   13480   13481   13481
       0   13483   13484   13485   13484   13485   13485       0   13487   13488
   13489   13488   13489   13489       0   13491   13492   13493   13492   13493
   13493       0   13495   13496   13497   13496   13497   13497       0   13499
   13500   13501   13500   13501   13501       0   13503   13504   13505   13504
   13505   13505       0   13507   13508   13509   13508   13509   13509       0
   13511   13512   13513   13512   13513   13513       0   13515   13516   13517
   13516   13517   13517       0   13519   13520   13521   13520   13521   13521
       0   13523   13524   13525   13524   13525   13525       0   13527   13528
   13529   13528   13529   13529       0   13531   13532   13533   13532   13533
   13533       0   13535   13536   13537   13536   13537   13537       0   13539
   13540   13541   13540   13541   13541       0   13543   13544   13545   13544
   13545   13545       0   13547   13548   13549   13548   13549   13549       0
   13551   13552   13553   13552   13553   13553       0   13555   13556   13557
   13556   13557   13557       0   13559   13560   13561   13560   13561   13561
       0   13563   13564   13565   13564   13565   13565       0   13567   13568
   13569   13568   13569   13569       0   13571   13572   13573   13572   13573
   13573       0   13575   13576   13577   13576   13577   13577       0   13579
   13580   13581   13580   13581   13581       0   13583   13584   13585   13584
   13585   13585       0   13587   13588   13589   13588   13589   13589       0
   13591   13592   13593   13592   13593   13593       0   13595   13596   13597
   13596   13597   13597       0   13599   13600   13601   13600   13601   13601
       0   13603   13604   13605   13604   13605   13605       0   13607   13608
   13609   13608   13609   13609       0   13611   13612   13613   13612   13613
   13613       0   13615   13616   13617   13616   13617   13617       0   13619
   13620   13621   13620   13621   13621       0   13623   13624   13625   13624
   13625   13625       0   13627   13628   13629   13628   13629   13629       0
   13631   13632   13633   13632   13633   13633       0   13635   13636   13637
   13636   13637   13637       0   13639   13640   13641   13640   13641   13641
       0   13643   13644   13645   13644   13645   13645       0   13647   13648
   13649   13648   13649   13649       0   13651   13652   13653   13652   13653
   13653       0   13655   13656   13657   13656   13657   13657       0   13659
   13660   13661   13660   13661   13661       0   13663   13664   13665   13664
   13665   13665       0   13667   13668   13669   13668   13669   13669       0
   13671   13672   13673   13672   13673   13673       0   13675   13676   13677
   13676   13677   13677       0   13679   13680   13681   13680   13681   13681
       0   13683   13684   13685   13684   13685   13685       0   13687   13688
   13689   13688   13689   13689       0   13691   13692   13693   13692   13693
   13693       0   13695   13696   13697   13696   13697   13697       0   13699
   13700   13701   13700   13701   13701       0   13703   13704   13705   13704
   13705   13705       0   13707   13708   13709   13708   13709   13709       0
   13711   13712   13713   13712   13713   13713       0   13715   13716   13717
   13716   13717   13717       0   13719   13720   13721   13720   13721   13721
       0   13723   13724   13725   13724   13725   13725       0   13727   13728
   13729   13728   13729   13729       0   13731   13732   13733   13732   13733
   13733       0   13735   13736   13737   13736   13737   13737       0   13739
   13740   13741   13740   13741   13741       0   13743   13744   13745   13744
   13745   13745       0   13747   13748   13749   13748   13749   13749       0
   13751   13752   13753   13752   13753   13753       0   13755   13756   13757
   13756   13757   13757       0   13759   13760   13761   13760   13761   13761
       0   13763   13764   13765   13764   13765   13765       0   13767   13768
   13769   13768   13769   13769       0   13771   13772   13773   13772   13773
   13773       0   13775   13776   13777   13776   13777   13777       0   13779
   13780   13781   13780   13781   13781       0   13783   13784   13785   13784
   13785   13785       0   13787   13788   13789   13788   13789   13789       0
   13791   13792   13793   13792   13793   13793       0   13795   13796   13797
   13796   13797   13797       0   13799   13800   13801   13800   13801   13801
       0   13803   13804   13805   13804   13805   13805       0   13807   13808
   13809   13808   13809   13809       0   13811   13812   13813   13812   13813
   13813       0   13815   13816   13817   13816   13817   13817       0   13819
   13820   13821   13820   13821   13821       0   13823   13824   13825   13824
   13825   13825       0   13827   13828   13829   13828   13829   13829       0
   13831   13832   13833   13832   13833   13833       0   13835   13836   13837
   13836   13837   13837       0   13839   13840   13841   13840   13841   13841
       0   13843   13844   13845   13844   13845   13845       0   13847   13848
   13849   13848   13849   13849       0   13851   13852   13853   13852   13853
   13853       0   13855   13856   13857   13856   13857   13857       0   13859
   13860   13861   13860   13861   13861       0   13863   13864   13865   13864
   13865   13865       0   13867   13868   13869   13868   13869   13869       0
   13871   13872   13873   13872   13873   13873       0   13875   13876   13877
   13876   13877   13877       0   13879   13880   13881   13880   13881   13881
       0   13883   13884   13885   13884   13885   13885       0   13887   13888
   13889   13888   13889   13889       0   13891   13892   13893   13892   13893
   13893       0   13895   13896   13897   13896   13897   13897       0   13899
   13900   13901   13900   13901   13901       0   13903   13904   13905   13904
   13905   13905       0   13907   13908   13909   13908   13909   13909       0
   13911   13912   13913   13912   13913   13913       0   13915   13916   13917
   13916   13917   13917       0   13919   13920   13921   13920   13921   13921
       0   13923   13924   13925   13924   13925   13925       0   13927   13928
   13929   13928   13929   13929       0   13931   13932   13933   13932   13933
   13933       0   13935   13936   13937   13936   13937   13937       0   13939
   13940   13941   13940   13941   13941       0   13943   13944   13945   13944
   13945   13945       0   13947   13948   13949   13948   13949   13949       0
   13951   13952   13953   13952   13953   13953       0   13955   13956   13957
   13956   13957   13957       0   13959   13960   13961   13960   13961   13961
       0   13963   13964   13965   13964   13965   13965       0   13967   13968
   13969   13968   13969   13969       0   13971   13972   13973   13972   13973
   13973       0   13975   13976   13977   13976   13977   13977       0   13979
   13980   13981   13980   13981   13981       0   13983   13984   13985   13984
   13985   13985       0   13987   13988   13989   13988   13989   13989       0
   13991   13992   13993   13992   13993   13993       0   13995   13996   13997
   13996   13997   13997       0   13999   14000   14001   14000   14001   14001
       0   14003   14004   14005   14004   14005   14005       0   14007   14008
   14009   14008   14009   14009       0   14011   14012   14013   14012   14013
   14013       0   14015   14016   14017   14016   14017   14017       0   14019
   14020   14021   14020   14021   14021       0   14023   14024   14025   14024
   14025   14025       0   14027   14028   14029   14028   14029   14029       0
   14031   14032   14033   14032   14033   14033       0   14035   14036   14037
   14036   14037   14037       0   14039   14040   14041   14040   14041   14041
       0   14043   14044   14045   14044   14045   14045       0   14047   14048
   14049   14048   14049   14049       0   14051   14052   14053   14052   14053
   14053       0   14055   14056   14057   14056   14057   14057       0   14059
   14060   14061   14060   14061   14061       0   14063   14064   14065   14064
   14065   14065       0   14067   14068   14069   14068   14069   14069       0
   14071   14072   14073   14072   14073   14073       0   14075   14076   14077
   14076   14077   14077       0   14079   14080   14081   14080   14081   14081
       0   14083   14084   14085   14084   14085   14085       0   14087   14088
   14089   14088   14089   14089       0   14091   14092   14093   14092   14093
   14093       0   14095   14096   14097   14096   14097   14097       0   14099
   14100   14101   14100   14101   14101       0   14103   14104   14105   14104
   14105   14105       0   14107   14108   14109   14108   14109   14109       0
   14111   14112   14113   14112   14113   14113       0   14115   14116   14117
   14116   14117   14117       0   14119   14120   14121   14120   14121   14121
       0   14123   14124   14125   14124   14125   14125       0   14127   14128
   14129   14128   14129   14129       0   14131   14132   14133   14132   14133
   14133       0   14135   14136   14137   14136   14137   14137       0   14139
   14140   14141   14140   14141   14141       0   14143   14144   14145   14144
   14145   14145       0   14147   14148   14149   14148   14149   14149       0
   14151   14152   14153   14152   14153   14153       0   14155   14156   14157
   14156   14157   14157       0   14159   14160   14161   14160   14161   14161
       0   14163   14164   14165   14164   14165   14165       0   14167   14168
   14169   14168   14169   14169       0   14171   14172   14173   14172   14173
   14173       0   14175   14176   14177   14176   14177   14177       0   14179
   14180   14181   14180   14181   14181       0   14183   14184   14185   14184
   14185   14185       0   14187   14188   14189   14188   14189   14189       0
   14191   14192   14193   14192   14193   14193       0   14195   14196   14197
   14196   14197   14197       0   14199   14200   14201   14200   14201   14201
       0   14203   14204   14205   14204   14205   14205       0   14207   14208
   14209   14208   14209   14209       0   14211   14212   14213   14212   14213
   14213       0   14215   14216   14217   14216   14217   14217       0   14219
   14220   14221   14220   14221   14221       0   14223   14224   14225   14224
   14225   14225       0   14227   14228   14229   14228   14229   14229       0
   14231   14232   14233   14232   14233   14233       0   14235   14236   14237
   14236   14237   14237       0   14239   14240   14241   14240   14241   14241
       0   14243   14244   14245   14244   14245   14245       0   14247   14248
   14249   14248   14249   14249       0   14251   14252   14253   14252   14253
   14253       0   14255   14256   14257   14256   14257   14257       0   14259
   14260   14261   14260   14261   14261       0   14263   14264   14265   14264
   14265   14265       0   14267   14268   14269   14268   14269   14269       0
   14271   14272   14273   14272   14273   14273       0   14275   14276   14277
   14276   14277   14277       0   14279   14280   14281   14280   14281   14281
       0   14283   14284   14285   14284   14285   14285       0   14287   14288
   14289   14288   14289   14289       0   14291   14292   14293   14292   14293
   14293       0   14295   14296   14297   14296   14297   14297       0   14299
   14300   14301   14300   14301   14301       0   14303   14304   14305   14304
   14305   14305       0   14307   14308   14309   14308   14309   14309       0
   14311   14312   14313   14312   14313   14313       0   14315   14316   14317
   14316   14317   14317       0   14319   14320   14321   14320   14321   14321
       0   14323   14324   14325   14324   14325   14325       0   14327   14328
   14329   14328   14329   14329       0   14331   14332   14333   14332   14333
   14333       0   14335   14336   14337   14336   14337   14337       0   14339
   14340   14341   14340   14341   14341       0   14343   14344   14345   14344
   14345   14345       0   14347   14348   14349   14348   14349   14349       0
   14351   14352   14353   14352   14353   14353       0   14355   14356   14357
   14356   14357   14357       0   14359   14360   14361   14360   14361   14361
       0   14363   14364   14365   14364   14365   14365       0   14367   14368
   14369   14368   14369   14369       0   14371   14372   14373   14372   14373
   14373       0   14375   14376   14377   14376   14377   14377       0   14379
   14380   14381   14380   14381   14381       0   14383   14384   14385   14384
   14385   14385       0   14387   14388   14389   14388   14389   14389       0
   14391   14392   14393   14392   14393   14393       0   14395   14396   14397
   14396   14397   14397       0   14399   14400   14401   14400   14401   14401
       0   14403   14404   14405   14404   14405   14405       0   14407   14408
   14409   14408   14409   14409       0   14411   14412   14413   14412   14413
   14413       0   14415   14416   14417   14416   14417   14417       0   14419
   14420   14421   14420   14421   14421       0   14423   14424   14425   14424
   14425   14425       0   14427   14428   14429   14428   14429   14429       0
   14431   14432   14433   14432   14433   14433       0   14435   14436   14437
   14436   14437   14437       0   14439   14440   14441   14440   14441   14441
       0   14443   14444   14445   14444   14445   14445       0   14447   14448
   14449   14448   14449   14449       0   14451   14452   14453   14452   14453
   14453       0   14455   14456   14457   14456   14457   14457       0   14459
   14460   14461   14460   14461   14461       0   14463   14464   14465   14464
   14465   14465       0   14467   14468   14469   14468   14469   14469       0
   14471   14472   14473   14472   14473   14473       0   14475   14476   14477
   14476   14477   14477       0   14479   14480   14481   14480   14481   14481
       0   14483   14484   14485   14484   14485   14485       0   14487   14488
   14489   14488   14489   14489       0   14491   14492   14493   14492   14493
   14493       0   14495   14496   14497   14496   14497   14497       0   14499
   14500   14501   14500   14501   14501       0   14503   14504   14505   14504
   14505   14505       0   14507   14508   14509   14508   14509   14509       0
   14511   14512   14513   14512   14513   14513       0   14515   14516   14517
   14516   14517   14517       0   14519   14520   14521   14520   14521   14521
       0   14523   14524   14525   14524   14525   14525       0   14527   14528
   14529   14528   14529   14529       0   14531   14532   14533   14532   14533
   14533       0   14535   14536   14537   14536   14537   14537       0   14539
   14540   14541   14540   14541   14541       0   14543   14544   14545   14544
   14545   14545       0   14547   14548   14549   14548   14549   14549       0
   14551   14552   14553   14552   14553   14553       0   14555   14556   14557
   14556   14557   14557       0   14559   14560   14561   14560   14561   14561
       0   14563   14564   14565   14564   14565   14565       0   14567   14568
   14569   14568   14569   14569       0   14571   14572   14573   14572   14573
   14573       0   14575   14576   14577   14576   14577   14577       0   14579
   14580   14581   14580   14581   14581       0   14583   14584   14585   14584
   14585   14585       0   14587   14588   14589   14588   14589   14589       0
   14591   14592   14593   14592   14593   14593       0   14595   14596   14597
   14596   14597   14597       0   14599   14600   14601   14600   14601   14601
       0   14603   14604   14605   14604   14605   14605       0   14607   14608
   14609   14608   14609   14609       0   14611   14612   14613   14612   14613
   14613       0   14615   14616   14617   14616   14617   14617       0   14619
   14620   14621   14620   14621   14621       0   14623   14624   14625   14624
   14625   14625       0   14627   14628   14629   14628   14629   14629       0
   14631   14632   14633   14632   14633   14633       0   14635   14636   14637
   14636   14637   14637       0   14639   14640   14641   14640   14641   14641
       0   14643   14644   14645   14644   14645   14645       0   14647   14648
   14649   14648   14649   14649       0   14651   14652   14653   14652   14653
   14653       0   14655   14656   14657   14656   14657   14657       0   14659
   14660   14661   14660   14661   14661       0   14663   14664   14665   14664
   14665   14665       0   14667   14668   14669   14668   14669   14669       0
   14671   14672   14673   14672   14673   14673       0   14675   14676   14677
   14676   14677   14677       0   14679   14680   14681   14680   14681   14681
       0   14683   14684   14685   14684   14685   14685       0   14687   14688
   14689   14688   14689   14689       0   14691   14692   14693   14692   14693
   14693       0   14695   14696   14697   14696   14697   14697       0   14699
   14700   14701   14700   14701   14701       0   14703   14704   14705   14704
   14705   14705       0   14707   14708   14709   14708   14709   14709       0
   14711   14712   14713   14712   14713   14713       0   14715   14716   14717
   14716   14717   14717       0   14719   14720   14721   14720   14721   14721
       0   14723   14724   14725   14724   14725   14725       0   14727   14728
   14729   14728   14729   14729       0   14731   14732   14733   14732   14733
   14733       0   14735   14736   14737   14736   14737   14737       0   14739
   14740   14741   14740   14741   14741       0   14743   14744   14745   14744
   14745   14745       0   14747   14748   14749   14748   14749   14749       0
   14751   14752   14753   14752   14753   14753       0   14755   14756   14757
   14756   14757   14757       0   14759   14760   14761   14760   14761   14761
       0   14763   14764   14765   14764   14765   14765       0   14767   14768
   14769   14768   14769   14769       0   14771   14772   14773   14772   14773
   14773       0   14775   14776   14777   14776   14777   14777       0   14779
   14780   14781   14780   14781   14781       0   14783   14784   14785   14784
   14785   14785       0   14787   14788   14789   14788   14789   14789       0
   14791   14792   14793   14792   14793   14793       0   14795   14796   14797
   14796   14797   14797       0   14799   14800   14801   14800   14801   14801
       0   14803   14804   14805   14804   14805   14805       0   14807   14808
   14809   14808   14809   14809       0   14811   14812   14813   14812   14813
   14813       0   14815   14816   14817   14816   14817   14817       0   14819
   14820   14821   14820   14821   14821       0   14823   14824   14825   14824
   14825   14825       0   14827   14828   14829   14828   14829   14829       0
   14831   14832   14833   14832   14833   14833       0   14835   14836   14837
   14836   14837   14837       0   14839   14840   14841   14840   14841   14841
       0   14843   14844   14845   14844   14845   14845       0   14847   14848
   14849   14848   14849   14849       0   14851   14852   14853   14852   14853
   14853       0   14855   14856   14857   14856   14857   14857       0   14859
   14860   14861   14860   14861   14861       0   14863   14864   14865   14864
   14865   14865       0   14867   14868   14869   14868   14869   14869       0
   14871   14872   14873   14872   14873   14873       0   14875   14876   14877
   14876   14877   14877       0   14879   14880   14881   14880   14881   14881
       0   14883   14884   14885   14884   14885   14885       0   14887   14888
   14889   14888   14889   14889       0   14891   14892   14893   14892   14893
   14893       0   14895   14896   14897   14896   14897   14897       0   14899
   14900   14901   14900   14901   14901       0   14903   14904   14905   14904
   14905   14905       0   14907   14908   14909   14908   14909   14909       0
   14911   14912   14913   14912   14913   14913       0   14915   14916   14917
   14916   14917   14917       0   14919   14920   14921   14920   14921   14921
       0   14923   14924   14925   14924   14925   14925       0   14927   14928
   14929   14928   14929   14929       0   14931   14932   14933   14932   14933
   14933       0   14935   14936   14937   14936   14937   14937       0   14939
   14940   14941   14940   14941   14941       0   14943   14944   14945   14944
   14945   14945       0   14947   14948   14949   14948   14949   14949       0
   14951   14952   14953   14952   14953   14953       0   14955   14956   14957
   14956   14957   14957       0   14959   14960   14961   14960   14961   14961
       0   14963   14964   14965   14964   14965   14965       0   14967   14968
   14969   14968   14969   14969       0   14971   14972   14973   14972   14973
   14973       0   14975   14976   14977   14976   14977   14977       0   14979
   14980   14981   14980   14981   14981       0   14983   14984   14985   14984
   14985   14985       0   14987   14988   14989   14988   14989   14989       0
   14991   14992   14993   14992   14993   14993       0   14995   14996   14997
   14996   14997   14997       0   14999   15000   15001   15000   15001   15001
       0   15003   15004   15005   15004   15005   15005       0   15007   15008
   15009   15008   15009   15009       0   15011   15012   15013   15012   15013
   15013       0   15015   15016   15017   15016   15017   15017       0   15019
   15020   15021   15020   15021   15021       0   15023   15024   15025   15024
   15025   15025       0   15027   15028   15029   15028   15029   15029       0
   15031   15032   15033   15032   15033   15033       0   15035   15036   15037
   15036   15037   15037       0   15039   15040   15041   15040   15041   15041
       0   15043   15044   15045   15044   15045   15045       0   15047   15048
   15049   15048   15049   15049       0   15051   15052   15053   15052   15053
   15053       0   15055   15056   15057   15056   15057   15057       0   15059
   15060   15061   15060   15061   15061       0   15063   15064   15065   15064
   15065   15065       0   15067   15068   15069   15068   15069   15069       0
   15071   15072   15073   15072   15073   15073       0   15075   15076   15077
   15076   15077   15077       0   15079   15080   15081   15080   15081   15081
       0   15083   15084   15085   15084   15085   15085       0   15087   15088
   15089   15088   15089   15089       0   15091   15092   15093   15092   15093
   15093       0   15095   15096   15097   15096   15097   15097       0   15099
   15100   15101   15100   15101   15101       0   15103   15104   15105   15104
   15105   15105       0   15107   15108   15109   15108   15109   15109       0
   15111   15112   15113   15112   15113   15113       0   15115   15116   15117
   15116   15117   15117       0   15119   15120   15121   15120   15121   15121
       0   15123   15124   15125   15124   15125   15125       0   15127   15128
   15129   15128   15129   15129       0   15131   15132   15133   15132   15133
   15133       0   15135   15136   15137   15136   15137   15137       0   15139
   15140   15141   15140   15141   15141       0   15143   15144   15145   15144
   15145   15145       0   15147   15148   15149   15148   15149   15149       0
   15151   15152   15153   15152   15153   15153       0   15155   15156   15157
   15156   15157   15157       0   15159   15160   15161   15160   15161   15161
       0   15163   15164   15165   15164   15165   15165       0   15167   15168
   15169   15168   15169   15169       0   15171   15172   15173   15172   15173
   15173       0   15175   15176   15177   15176   15177   15177       0   15179
   15180   15181   15180   15181   15181       0   15183   15184   15185   15184
   15185   15185       0   15187   15188   15189   15188   15189   15189       0
   15191   15192   15193   15192   15193   15193       0   15195   15196   15197
   15196   15197   15197       0   15199   15200   15201   15200   15201   15201
       0   15203   15204   15205   15204   15205   15205       0   15207   15208
   15209   15208   15209   15209       0   15211   15212   15213   15212   15213
   15213       0   15215   15216   15217   15216   15217   15217       0   15219
   15220   15221   15220   15221   15221       0   15223   15224   15225   15224
   15225   15225       0   15227   15228   15229   15228   15229   15229       0
   15231   15232   15233   15232   15233   15233       0   15235   15236   15237
   15236   15237   15237       0   15239   15240   15241   15240   15241   15241
       0   15243   15244   15245   15244   15245   15245       0   15247   15248
   15249   15248   15249   15249       0   15251   15252   15253   15252   15253
   15253       0   15255   15256   15257   15256   15257   15257       0   15259
   15260   15261   15260   15261   15261       0   15263   15264   15265   15264
   15265   15265       0   15267   15268   15269   15268   15269   15269       0
   15271   15272   15273   15272   15273   15273       0   15275   15276   15277
   15276   15277   15277       0   15279   15280   15281   15280   15281   15281
       0   15283   15284   15285   15284   15285   15285       0   15287   15288
   15289   15288   15289   15289       0   15291   15292   15293   15292   15293
   15293       0   15295   15296   15297   15296   15297   15297       0   15299
   15300   15301   15300   15301   15301       0   15303   15304   15305   15304
   15305   15305       0   15307   15308   15309   15308   15309   15309       0
   15311   15312   15313   15312   15313   15313       0   15315   15316   15317
   15316   15317   15317       0   15319   15320   15321   15320   15321   15321
       0   15323   15324   15325   15324   15325   15325       0   15327   15328
   15329   15328   15329   15329       0   15331   15332   15333   15332   15333
   15333       0   15335   15336   15337   15336   15337   15337       0   15339
   15340   15341   15340   15341   15341       0   15343   15344   15345   15344
   15345   15345       0   15347   15348   15349   15348   15349   15349       0
   15351   15352   15353   15352   15353   15353       0   15355   15356   15357
   15356   15357   15357       0   15359   15360   15361   15360   15361   15361
       0   15363   15364   15365   15364   15365   15365       0   15367   15368
   15369   15368   15369   15369       0   15371   15372   15373   15372   15373
   15373       0   15375   15376   15377   15376   15377   15377       0   15379
   15380   15381   15380   15381   15381       0   15383   15384   15385   15384
   15385   15385       0   15387   15388   15389   15388   15389   15389       0
   15391   15392   15393   15392   15393   15393       0   15395   15396   15397
   15396   15397   15397       0   15399   15400   15401   15400   15401   15401
       0   15403   15404   15405   15404   15405   15405       0   15407   15408
   15409   15408   15409   15409       0   15411   15412   15413   15412   15413
   15413       0   15415   15416   15417   15416   15417   15417       0   15419
   15420   15421   15420   15421   15421       0   15423   15424   15425   15424
   15425   15425       0   15427   15428   15429   15428   15429   15429       0
   15431   15432   15433   15432   15433   15433       0   15435   15436   15437
   15436   15437   15437       0   15439   15440   15441   15440   15441   15441
       0   15443   15444   15445   15444   15445   15445       0   15447   15448
   15449   15448   15449   15449       0   15451   15452   15453   15452   15453
   15453       0   15455   15456   15457   15456   15457   15457       0   15459
   15460   15461   15460   15461   15461       0   15463   15464   15465   15464
   15465   15465       0   15467   15468   15469   15468   15469   15469       0
   15471   15472   15473   15472   15473   15473       0   15475   15476   15477
   15476   15477   15477       0   15479   15480   15481   15480   15481   15481
       0   15483   15484   15485   15484   15485   15485       0   15487   15488
   15489   15488   15489   15489       0   15491   15492   15493   15492   15493
   15493       0   15495   15496   15497   15496   15497   15497       0   15499
   15500   15501   15500   15501   15501       0   15503   15504   15505   15504
   15505   15505       0   15507   15508   15509   15508   15509   15509       0
   15511   15512   15513   15512   15513   15513       0   15515   15516   15517
   15516   15517   15517       0   15519   15520   15521   15520   15521   15521
       0   15523   15524   15525   15524   15525   15525       0   15527   15528
   15529   15528   15529   15529       0   15531   15532   15533   15532   15533
   15533       0   15535   15536   15537   15536   15537   15537       0   15539
   15540   15541   15540   15541   15541       0   15543   15544   15545   15544
   15545   15545       0   15547   15548   15549   15548   15549   15549       0
   15551   15552   15553   15552   15553   15553       0   15555   15556   15557
   15556   15557   15557       0   15559   15560   15561   15560   15561   15561
       0   15563   15564   15565   15564   15565   15565       0   15567   15568
   15569   15568   15569   15569       0   15571   15572   15573   15572   15573
   15573       0   15575   15576   15577   15576   15577   15577       0   15579
   15580   15581   15580   15581   15581       0   15583   15584   15585   15584
   15585   15585       0   15587   15588   15589   15588   15589   15589       0
   15591   15592   15593   15592   15593   15593       0   15595   15596   15597
   15596   15597   15597       0   15599   15600   15601   15600   15601   15601
       0   15603   15604   15605   15604   15605   15605       0   15607   15608
   15609   15608   15609   15609       0   15611   15612   15613   15612   15613
   15613       0   15615   15616   15617   15616   15617   15617       0   15619
   15620   15621   15620   15621   15621       0   15623   15624   15625   15624
   15625   15625       0   15627   15628   15629   15628   15629   15629       0
   15631   15632   15633   15632   15633   15633       0   15635   15636   15637
   15636   15637   15637       0   15639   15640   15641   15640   15641   15641
       0   15643   15644   15645   15644   15645   15645       0   15647   15648
   15649   15648   15649   15649       0   15651   15652   15653   15652   15653
   15653       0   15655   15656   15657   15656   15657   15657       0   15659
   15660   15661   15660   15661   15661       0   15663   15664   15665   15664
   15665   15665       0   15667   15668   15669   15668   15669   15669       0
   15671   15672   15673   15672   15673   15673       0   15675   15676   15677
   15676   15677   15677       0   15679   15680   15681   15680   15681   15681
       0   15683   15684   15685   15684   15685   15685       0   15687   15688
   15689   15688   15689   15689       0   15691   15692   15693   15692   15693
   15693       0   15695   15696   15697   15696   15697   15697       0   15699
   15700   15701   15700   15701   15701       0   15703   15704   15705   15704
   15705   15705       0   15707   15708   15709   15708   15709   15709       0
   15711   15712   15713   15712   15713   15713       0   15715   15716   15717
   15716   15717   15717       0   15719   15720   15721   15720   15721   15721
       0   15723   15724   15725   15724   15725   15725       0   15727   15728
   15729   15728   15729   15729       0   15731   15732   15733   15732   15733
   15733       0   15735   15736   15737   15736   15737   15737       0   15739
   15740   15741   15740   15741   15741       0   15743   15744   15745   15744
   15745   15745       0   15747   15748   15749   15748   15749   15749       0
   15751   15752   15753   15752   15753   15753       0   15755   15756   15757
   15756   15757   15757       0   15759   15760   15761   15760   15761   15761
       0   15763   15764   15765   15764   15765   15765       0   15767   15768
   15769   15768   15769   15769       0   15771   15772   15773   15772   15773
   15773       0   15775   15776   15777   15776   15777   15777       0   15779
   15780   15781   15780   15781   15781       0   15783   15784   15785   15784
   15785   15785       0   15787   15788   15789   15788   15789   15789       0
   15791   15792   15793   15792   15793   15793       0   15795   15796   15797
   15796   15797   15797       0   15799   15800   15801   15800   15801   15801
       0   15803   15804   15805   15804   15805   15805       0   15807   15808
   15809   15808   15809   15809       0   15811   15812   15813   15812   15813
   15813       0   15815   15816   15817   15816   15817   15817       0   15819
   15820   15821   15820   15821   15821       0   15823   15824   15825   15824
   15825   15825       0   15827   15828   15829   15828   15829   15829       0
   15831   15832   15833   15832   15833   15833       0   15835   15836   15837
   15836   15837   15837       0   15839   15840   15841   15840   15841   15841
       0   15843   15844   15845   15844   15845   15845       0   15847   15848
   15849   15848   15849   15849       0   15851   15852   15853   15852   15853
   15853       0   15855   15856   15857   15856   15857   15857       0   15859
   15860   15861   15860   15861   15861       0   15863   15864   15865   15864
   15865   15865       0   15867   15868   15869   15868   15869   15869       0
   15871   15872   15873   15872   15873   15873       0   15875   15876   15877
   15876   15877   15877       0   15879   15880   15881   15880   15881   15881
       0   15883   15884   15885   15884   15885   15885       0   15887   15888
   15889   15888   15889   15889       0   15891   15892   15893   15892   15893
   15893       0   15895   15896   15897   15896   15897   15897       0   15899
   15900   15901   15900   15901   15901       0   15903   15904   15905   15904
   15905   15905       0   15907   15908   15909   15908   15909   15909       0
   15911   15912   15913   15912   15913   15913       0   15915   15916   15917
   15916   15917   15917       0   15919   15920   15921   15920   15921   15921
       0   15923   15924   15925   15924   15925   15925       0   15927   15928
   15929   15928   15929   15929       0   15931   15932   15933   15932   15933
   15933       0   15935   15936   15937   15936   15937   15937       0   15939
   15940   15941   15940   15941   15941       0   15943   15944   15945   15944
   15945   15945       0   15947   15948   15949   15948   15949   15949       0
   15951   15952   15953   15952   15953   15953       0   15955   15956   15957
   15956   15957   15957       0   15959   15960   15961   15960   15961   15961
       0   15963   15964   15965   15964   15965   15965       0   15967   15968
   15969   15968   15969   15969       0   15971   15972   15973   15972   15973
   15973       0   15975   15976   15977   15976   15977   15977       0   15979
   15980   15981   15980   15981   15981       0   15983   15984   15985   15984
   15985   15985       0   15987   15988   15989   15988   15989   15989       0
   15991   15992   15993   15992   15993   15993       0   15995   15996   15997
   15996   15997   15997       0   15999   16000   16001   16000   16001   16001
       0   16003   16004   16005   16004   16005   16005       0   16007   16008
   16009   16008   16009   16009       0   16011   16012   16013   16012   16013
   16013       0   16015   16016   16017   16016   16017   16017       0   16019
   16020   16021   16020   16021   16021       0   16023   16024   16025   16024
   16025   16025       0   16027   16028   16029   16028   16029   16029       0
   16031   16032   16033   16032   16033   16033       0   16035   16036   16037
   16036   16037   16037       0   16039   16040   16041   16040   16041   16041
       0   16043   16044   16045   16044   16045   16045       0   16047   16048
   16049   16048   16049   16049       0   16051   16052   16053   16052   16053
   16053       0   16055   16056   16057   16056   16057   16057       0   16059
   16060   16061   16060   16061   16061       0   16063   16064   16065   16064
   16065   16065       0   16067   16068   16069   16068   16069   16069       0
   16071   16072   16073   16072   16073   16073       0   16075   16076   16077
   16076   16077   16077       0   16079   16080   16081   16080   16081   16081
       0   16083   16084   16085   16084   16085   16085       0   16087   16088
   16089   16088   16089   16089       0   16091   16092   16093   16092   16093
   16093       0   16095   16096   16097   16096   16097   16097       0   16099
   16100   16101   16100   16101   16101       0   16103   16104   16105   16104
   16105   16105       0   16107   16108   16109   16108   16109   16109       0
   16111   16112   16113   16112   16113   16113       0   16115   16116   16117
   16116   16117   16117       0   16119   16120   16121   16120   16121   16121
       0   16123   16124   16125   16124   16125   16125       0   16127   16128
   16129   16128   16129   16129       0   16131   16132   16133   16132   16133
   16133       0   16135   16136   16137   16136   16137   16137       0   16139
   16140   16141   16140   16141   16141       0   16143   16144   16145   16144
   16145   16145       0   16147   16148   16149   16148   16149   16149       0
   16151   16152   16153   16152   16153   16153       0   16155   16156   16157
   16156   16157   16157       0   16159   16160   16161   16160   16161   16161
       0   16163   16164   16165   16164   16165   16165       0   16167   16168
   16169   16168   16169   16169       0   16171   16172   16173   16172   16173
   16173       0   16175   16176   16177   16176   16177   16177       0   16179
   16180   16181   16180   16181   16181       0   16183   16184   16185   16184
   16185   16185       0   16187   16188   16189   16188   16189   16189       0
   16191   16192   16193   16192   16193   16193       0   16195   16196   16197
   16196   16197   16197       0   16199   16200   16201   16200   16201   16201
       0   16203   16204   16205   16204   16205   16205       0   16207   16208
   16209   16208   16209   16209       0   16211   16212   16213   16212   16213
   16213       0   16215   16216   16217   16216   16217   16217       0   16219
   16220   16221   16220   16221   16221       0   16223   16224   16225   16224
   16225   16225       0   16227   16228   16229   16228   16229   16229       0
   16231   16232   16233   16232   16233   16233       0   16235   16236   16237
   16236   16237   16237       0   16239   16240   16241   16240   16241   16241
       0   16243   16244   16245   16244   16245   16245       0   16247   16248
   16249   16248   16249   16249       0   16251   16252   16253   16252   16253
   16253       0   16255   16256   16257   16256   16257   16257       0   16259
   16260   16261   16260   16261   16261       0   16263   16264   16265   16264
   16265   16265       0   16267   16268   16269   16268   16269   16269       0
   16271   16272   16273   16272   16273   16273       0   16275   16276   16277
   16276   16277   16277       0   16279   16280   16281   16280   16281   16281
       0   16283   16284   16285   16284   16285   16285       0   16287   16288
   16289   16288   16289   16289       0   16291   16292   16293   16292   16293
   16293       0   16295   16296   16297   16296   16297   16297       0   16299
   16300   16301   16300   16301   16301       0   16303   16304   16305   16304
   16305   16305       0   16307   16308   16309   16308   16309   16309       0
   16311   16312   16313   16312   16313   16313       0   16315   16316   16317
   16316   16317   16317       0   16319   16320   16321   16320   16321   16321
       0   16323   16324   16325   16324   16325   16325       0   16327   16328
   16329   16328   16329   16329       0   16331   16332   16333   16332   16333
   16333       0   16335   16336   16337   16336   16337   16337       0   16339
   16340   16341   16340   16341   16341       0   16343   16344   16345   16344
   16345   16345       0   16347   16348   16349   16348   16349   16349       0
   16351   16352   16353   16352   16353   16353       0   16355   16356   16357
   16356   16357   16357       0   16359   16360   16361   16360   16361   16361
       0   16363   16364   16365   16364   16365   16365       0   16367   16368
   16369   16368   16369   16369       0   16371   16372   16373   16372   16373
   16373       0   16375   16376   16377   16376   16377   16377       0   16379
   16380   16381   16380   16381   16381       0   16383   16384   16385   16384
   16385   16385       0   16387   16388   16389   16388   16389   16389       0
   16391   16392   16393   16392   16393   16393       0   16395   16396   16397
   16396   16397   16397       0   16399   16400   16401   16400   16401   16401
       0   16403   16404   16405   16404   16405   16405       0   16407   16408
   16409   16408   16409   16409       0   16411   16412   16413   16412   16413
   16413       0   16415   16416   16417   16416   16417   16417       0   16419
   16420   16421   16420   16421   16421       0   16423   16424   16425   16424
   16425   16425       0   16427   16428   16429   16428   16429   16429       0
   16431   16432   16433   16432   16433   16433       0   16435   16436   16437
   16436   16437   16437       0   16439   16440   16441   16440   16441   16441
       0   16443   16444   16445   16444   16445   16445       0   16447   16448
   16449   16448   16449   16449       0   16451   16452   16453   16452   16453
   16453       0   16455   16456   16457   16456   16457   16457       0   16459
   16460   16461   16460   16461   16461       0   16463   16464   16465   16464
   16465   16465       0   16467   16468   16469   16468   16469   16469       0
   16471   16472   16473   16472   16473   16473       0   16475   16476   16477
   16476   16477   16477       0   16479   16480   16481   16480   16481   16481
       0   16483   16484   16485   16484   16485   16485       0   16487   16488
   16489   16488   16489   16489       0   16491   16492   16493   16492   16493
   16493       0   16495   16496   16497   16496   16497   16497       0   16499
   16500   16501   16500   16501   16501       0   16503   16504   16505   16504
   16505   16505       0   16507   16508   16509   16508   16509   16509       0
   16511   16512   16513   16512   16513   16513       0   16515   16516   16517
   16516   16517   16517       0   16519   16520   16521   16520   16521   16521
       0   16523   16524   16525   16524   16525   16525       0   16527   16528
   16529   16528   16529   16529       0   16531   16532   16533   16532   16533
   16533       0   16535   16536   16537   16536   16537   16537       0   16539
   16540   16541   16540   16541   16541       0   16543   16544   16545   16544
   16545   16545       0   16547   16548   16549   16548   16549   16549       0
   16551   16552   16553   16552   16553   16553       0   16555   16556   16557
   16556   16557   16557       0   16559   16560   16561   16560   16561   16561
       0   16563   16564   16565   16564   16565   16565       0   16567   16568
   16569   16568   16569   16569       0   16571   16572   16573   16572   16573
   16573       0   16575   16576   16577   16576   16577   16577       0   16579
   16580   16581   16580   16581   16581       0   16583   16584   16585   16584
   16585   16585       0   16587   16588   16589   16588   16589   16589       0
   16591   16592   16593   16592   16593   16593       0   16595   16596   16597
   16596   16597   16597       0   16599   16600   16601   16600   16601   16601
       0   16603   16604   16605   16604   16605   16605       0   16607   16608
   16609   16608   16609   16609       0   16611   16612   16613   16612   16613
   16613       0   16615   16616   16617   16616   16617   16617       0   16619
   16620   16621   16620   16621   16621       0   16623   16624   16625   16624
   16625   16625       0   16627   16628   16629   16628   16629   16629       0
   16631   16632   16633   16632   16633   16633       0   16635   16636   16637
   16636   16637   16637       0   16639   16640   16641   16640   16641   16641
       0   16643   16644   16645   16644   16645   16645       0   16647   16648
   16649   16648   16649   16649       0   16651   16652   16653   16652   16653
   16653       0   16655   16656   16657   16656   16657   16657       0   16659
   16660   16661   16660   16661   16661       0   16663   16664   16665   16664
   16665   16665       0   16667   16668   16669   16668   16669   16669       0
   16671   16672   16673   16672   16673   16673       0   16675   16676   16677
   16676   16677   16677       0   16679   16680   16681   16680   16681   16681
       0   16683   16684   16685   16684   16685   16685       0   16687   16688
   16689   16688   16689   16689       0   16691   16692   16693   16692   16693
   16693       0   16695   16696   16697   16696   16697   16697       0   16699
   16700   16701   16700   16701   16701       0   16703   16704   16705   16704
   16705   16705       0   16707   16708   16709   16708   16709   16709       0
   16711   16712   16713   16712   16713   16713       0   16715   16716   16717
   16716   16717   16717       0   16719   16720   16721   16720   16721   16721
       0   16723   16724   16725   16724   16725   16725       0   16727   16728
   16729   16728   16729   16729       0   16731   16732   16733   16732   16733
   16733       0   16735   16736   16737   16736   16737   16737       0   16739
   16740   16741   16740   16741   16741       0   16743   16744   16745   16744
   16745   16745       0   16747   16748   16749   16748   16749   16749       0
   16751   16752   16753   16752   16753   16753       0   16755   16756   16757
   16756   16757   16757       0   16759   16760   16761   16760   16761   16761
       0   16763   16764   16765   16764   16765   16765       0   16767   16768
   16769   16768   16769   16769       0   16771   16772   16773   16772   16773
   16773       0   16775   16776   16777   16776   16777   16777       0   16779
   16780   16781   16780   16781   16781       0   16783   16784   16785   16784
   16785   16785       0   16787   16788   16789   16788   16789   16789       0
   16791   16792   16793   16792   16793   16793       0   16795   16796   16797
   16796   16797   16797       0   16799   16800   16801   16800   16801   16801
       0   16803   16804   16805   16804   16805   16805       0   16807   16808
   16809   16808   16809   16809       0   16811   16812   16813   16812   16813
   16813       0   16815   16816   16817   16816   16817   16817       0   16819
   16820   16821   16820   16821   16821       0   16823   16824   16825   16824
   16825   16825       0   16827   16828   16829   16828   16829   16829       0
   16831   16832   16833   16832   16833   16833       0   16835   16836   16837
   16836   16837   16837       0   16839   16840   16841   16840   16841   16841
       0   16843   16844   16845   16844   16845   16845       0   16847   16848
   16849   16848   16849   16849       0   16851   16852   16853   16852   16853
   16853       0   16855   16856   16857   16856   16857   16857       0   16859
   16860   16861   16860   16861   16861       0   16863   16864   16865   16864
   16865   16865       0   16867   16868   16869   16868   16869   16869       0
   16871   16872   16873   16872   16873   16873       0   16875   16876   16877
   16876   16877   16877       0   16879   16880   16881   16880   16881   16881
       0   16883   16884   16885   16884   16885   16885       0   16887   16888
   16889   16888   16889   16889       0   16891   16892   16893   16892   16893
   16893       0   16895   16896   16897   16896   16897   16897       0   16899
   16900   16901   16900   16901   16901       0   16903   16904   16905   16904
   16905   16905       0   16907   16908   16909   16908   16909   16909       0
   16911   16912   16913   16912   16913   16913       0   16915   16916   16917
   16916   16917   16917       0   16919   16920   16921   16920   16921   16921
       0   16923   16924   16925   16924   16925   16925       0   16927   16928
   16929   16928   16929   16929       0   16931   16932   16933   16932   16933
   16933       0   16935   16936   16937   16936   16937   16937       0   16939
   16940   16941   16940   16941   16941       0   16943   16944   16945   16944
   16945   16945       0   16947   16948   16949   16948   16949   16949       0
   16951   16952   16953   16952   16953   16953       0   16955   16956   16957
   16956   16957   16957       0   16959   16960   16961   16960   16961   16961
       0   16963   16964   16965   16964   16965   16965       0   16967   16968
   16969   16968   16969   16969       0   16971   16972   16973   16972   16973
   16973       0   16975   16976   16977   16976   16977   16977       0   16979
   16980   16981   16980   16981   16981       0   16983   16984   16985   16984
   16985   16985       0   16987   16988   16989   16988   16989   16989       0
   16991   16992   16993   16992   16993   16993       0   16995   16996   16997
   16996   16997   16997       0   16999   17000   17001   17000   17001   17001
       0   17003   17004   17005   17004   17005   17005       0   17007   17008
   17009   17008   17009   17009       0   17011   17012   17013   17012   17013
   17013       0   17015   17016   17017   17016   17017   17017       0   17019
   17020   17021   17020   17021   17021       0   17023   17024   17025   17024
   17025   17025       0   17027   17028   17029   17028   17029   17029       0
   17031   17032   17033   17032   17033   17033       0   17035   17036   17037
   17036   17037   17037       0   17039   17040   17041   17040   17041   17041
       0   17043   17044   17045   17044   17045   17045       0   17047   17048
   17049   17048   17049   17049       0   17051   17052   17053   17052   17053
   17053       0   17055   17056   17057   17056   17057   17057       0   17059
   17060   17061   17060   17061   17061       0   17063   17064   17065   17064
   17065   17065       0   17067   17068   17069   17068   17069   17069       0
   17071   17072   17073   17072   17073   17073       0   17075   17076   17077
   17076   17077   17077       0   17079   17080   17081   17080   17081   17081
       0   17083   17084   17085   17084   17085   17085       0   17087   17088
   17089   17088   17089   17089       0   17091   17092   17093   17092   17093
   17093       0   17095   17096   17097   17096   17097   17097       0   17099
   17100   17101   17100   17101   17101       0   17103   17104   17105   17104
   17105   17105       0   17107   17108   17109   17108   17109   17109       0
   17111   17112   17113   17112   17113   17113       0   17115   17116   17117
   17116   17117   17117       0   17119   17120   17121   17120   17121   17121
       0   17123   17124   17125   17124   17125   17125       0   17127   17128
   17129   17128   17129   17129       0   17131   17132   17133   17132   17133
   17133       0   17135   17136   17137   17136   17137   17137       0   17139
   17140   17141   17140   17141   17141       0   17143   17144   17145   17144
   17145   17145       0   17147   17148   17149   17148   17149   17149       0
   17151   17152   17153   17152   17153   17153       0   17155   17156   17157
   17156   17157   17157       0   17159   17160   17161   17160   17161   17161
       0   17163   17164   17165   17164   17165   17165       0   17167   17168
   17169   17168   17169   17169       0   17171   17172   17173   17172   17173
   17173       0   17175   17176   17177   17176   17177   17177       0   17179
   17180   17181   17180   17181   17181       0   17183   17184   17185   17184
   17185   17185       0   17187   17188   17189   17188   17189   17189       0
   17191   17192   17193   17192   17193   17193       0   17195   17196   17197
   17196   17197   17197       0   17199   17200   17201   17200   17201   17201
       0   17203   17204   17205   17204   17205   17205       0   17207   17208
   17209   17208   17209   17209       0   17211   17212   17213   17212   17213
   17213       0   17215   17216   17217   17216   17217   17217       0   17219
   17220   17221   17220   17221   17221       0   17223   17224   17225   17224
   17225   17225       0   17227   17228   17229   17228   17229   17229       0
   17231   17232   17233   17232   17233   17233       0   17235   17236   17237
   17236   17237   17237       0   17239   17240   17241   17240   17241   17241
       0   17243   17244   17245   17244   17245   17245       0   17247   17248
   17249   17248   17249   17249       0   17251   17252   17253   17252   17253
   17253       0   17255   17256   17257   17256   17257   17257       0   17259
   17260   17261   17260   17261   17261       0   17263   17264   17265   17264
   17265   17265       0   17267   17268   17269   17268   17269   17269       0
   17271   17272   17273   17272   17273   17273       0   17275   17276   17277
   17276   17277   17277       0   17279   17280   17281   17280   17281   17281
       0   17283   17284   17285   17284   17285   17285       0   17287   17288
   17289   17288   17289   17289       0   17291   17292   17293   17292   17293
   17293       0   17295   17296   17297   17296   17297   17297       0   17299
   17300   17301   17300   17301   17301       0   17303   17304   17305   17304
   17305   17305       0   17307   17308   17309   17308   17309   17309       0
   17311   17312   17313   17312   17313   17313       0   17315   17316   17317
   17316   17317   17317       0   17319   17320   17321   17320   17321   17321
       0   17323   17324   17325   17324   17325   17325       0   17327   17328
   17329   17328   17329   17329       0   17331   17332   17333   17332   17333
   17333       0   17335   17336   17337   17336   17337   17337       0   17339
   17340   17341   17340   17341   17341       0   17343   17344   17345   17344
   17345   17345       0   17347   17348   17349   17348   17349   17349       0
   17351   17352   17353   17352   17353   17353       0   17355   17356   17357
   17356   17357   17357       0   17359   17360   17361   17360   17361   17361
       0   17363   17364   17365   17364   17365   17365       0   17367   17368
   17369   17368   17369   17369       0   17371   17372   17373   17372   17373
   17373       0   17375   17376   17377   17376   17377   17377       0   17379
   17380   17381   17380   17381   17381       0   17383   17384   17385   17384
   17385   17385       0   17387   17388   17389   17388   17389   17389       0
   17391   17392   17393   17392   17393   17393       0   17395   17396   17397
   17396   17397   17397       0   17399   17400   17401   17400   17401   17401
       0   17403   17404   17405   17404   17405   17405       0   17407   17408
   17409   17408   17409   17409       0   17411   17412   17413   17412   17413
   17413       0   17415   17416   17417   17416   17417   17417       0   17419
   17420   17421   17420   17421   17421       0   17423   17424   17425   17424
   17425   17425       0   17427   17428   17429   17428   17429   17429       0
   17431   17432   17433   17432   17433   17433       0   17435   17436   17437
   17436   17437   17437       0   17439   17440   17441   17440   17441   17441
       0   17443   17444   17445   17444   17445   17445       0   17447   17448
   17449   17448   17449   17449       0   17451   17452   17453   17452   17453
   17453       0   17455   17456   17457   17456   17457   17457       0   17459
   17460   17461   17460   17461   17461       0   17463   17464   17465   17464
   17465   17465       0   17467   17468   17469   17468   17469   17469       0
   17471   17472   17473   17472   17473   17473       0   17475   17476   17477
   17476   17477   17477       0   17479   17480   17481   17480   17481   17481
       0   17483   17484   17485   17484   17485   17485       0   17487   17488
   17489   17488   17489   17489       0   17491   17492   17493   17492   17493
   17493       0   17495   17496   17497   17496   17497   17497       0   17499
   17500   17501   17500   17501   17501       0   17503   17504   17505   17504
   17505   17505       0   17507   17508   17509   17508   17509   17509       0
   17511   17512   17513   17512   17513   17513       0   17515   17516   17517
   17516   17517   17517       0   17519   17520   17521   17520   17521   17521
       0   17523   17524   17525   17524   17525   17525       0   17527   17528
   17529   17528   17529   17529       0   17531   17532   17533   17532   17533
   17533       0   17535   17536   17537   17536   17537   17537       0   17539
   17540   17541   17540   17541   17541       0   17543   17544   17545   17544
   17545   17545       0   17547   17548   17549   17548   17549   17549       0
   17551   17552   17553   17552   17553   17553       0   17555   17556   17557
   17556   17557   17557       0   17559   17560   17561   17560   17561   17561
       0   17563   17564   17565   17564   17565   17565       0   17567   17568
   17569   17568   17569   17569       0   17571   17572   17573   17572   17573
   17573       0   17575   17576   17577   17576   17577   17577       0   17579
   17580   17581   17580   17581   17581       0   17583   17584   17585   17584
   17585   17585       0   17587   17588   17589   17588   17589   17589       0
   17591   17592   17593   17592   17593   17593       0   17595   17596   17597
   17596   17597   17597       0   17599   17600   17601   17600   17601   17601
       0   17603   17604   17605   17604   17605   17605       0   17607   17608
   17609   17608   17609   17609       0   17611   17612   17613   17612   17613
   17613       0   17615   17616   17617   17616   17617   17617       0   17619
   17620   17621   17620   17621   17621       0   17623   17624   17625   17624
   17625   17625       0   17627   17628   17629   17628   17629   17629       0
   17631   17632   17633   17632   17633   17633       0   17635   17636   17637
   17636   17637   17637       0   17639   17640   17641   17640   17641   17641
       0   17643   17644   17645   17644   17645   17645       0   17647   17648
   17649   17648   17649   17649       0   17651   17652   17653   17652   17653
   17653       0   17655   17656   17657   17656   17657   17657       0   17659
   17660   17661   17660   17661   17661       0   17663   17664   17665   17664
   17665   17665       0   17667   17668   17669   17668   17669   17669       0
   17671   17672   17673   17672   17673   17673       0   17675   17676   17677
   17676   17677   17677       0   17679   17680   17681   17680   17681   17681
       0   17683   17684   17685   17684   17685   17685       0   17687   17688
   17689   17688   17689   17689       0   17691   17692   17693   17692   17693
   17693       0   17695   17696   17697   17696   17697   17697       0   17699
   17700   17701   17700   17701   17701       0   17703   17704   17705   17704
   17705   17705       0   17707   17708   17709   17708   17709   17709       0
   17711   17712   17713   17712   17713   17713       0   17715   17716   17717
   17716   17717   17717       0   17719   17720   17721   17720   17721   17721
       0   17723   17724   17725   17724   17725   17725       0   17727   17728
   17729   17728   17729   17729       0   17731   17732   17733   17732   17733
   17733       0   17735   17736   17737   17736   17737   17737       0   17739
   17740   17741   17740   17741   17741       0   17743   17744   17745   17744
   17745   17745       0   17747   17748   17749   17748   17749   17749       0
   17751   17752   17753   17752   17753   17753       0   17755   17756   17757
   17756   17757   17757       0   17759   17760   17761   17760   17761   17761
       0   17763   17764   17765   17764   17765   17765       0   17767   17768
   17769   17768   17769   17769       0   17771   17772   17773   17772   17773
   17773       0   17775   17776   17777   17776   17777   17777       0   17779
   17780   17781   17780   17781   17781       0   17783   17784   17785   17784
   17785   17785       0   17787   17788   17789   17788   17789   17789       0
   17791   17792   17793   17792   17793   17793       0   17795   17796   17797
   17796   17797   17797       0   17799   17800   17801   17800   17801   17801
       0   17803   17804   17805   17804   17805   17805       0   17807   17808
   17809   17808   17809   17809       0   17811   17812   17813   17812   17813
   17813       0   17815   17816   17817   17816   17817   17817       0   17819
   17820   17821   17820   17821   17821       0   17823   17824   17825   17824
   17825   17825       0   17827   17828   17829   17828   17829   17829       0
   17831   17832   17833   17832   17833   17833       0   17835   17836   17837
   17836   17837   17837       0   17839   17840   17841   17840   17841   17841
       0   17843   17844   17845   17844   17845   17845       0   17847   17848
   17849   17848   17849   17849       0   17851   17852   17853   17852   17853
   17853       0   17855   17856   17857   17856   17857   17857       0   17859
   17860   17861   17860   17861   17861       0   17863   17864   17865   17864
   17865   17865       0   17867   17868   17869   17868   17869   17869       0
   17871   17872   17873   17872   17873   17873       0   17875   17876   17877
   17876   17877   17877       0   17879   17880   17881   17880   17881   17881
       0   17883   17884   17885   17884   17885   17885       0   17887   17888
   17889   17888   17889   17889       0   17891   17892   17893   17892   17893
   17893       0   17895   17896   17897   17896   17897   17897       0   17899
   17900   17901   17900   17901   17901       0   17903   17904   17905   17904
   17905   17905       0   17907   17908   17909   17908   17909   17909       0
   17911   17912   17913   17912   17913   17913       0   17915   17916   17917
   17916   17917   17917       0   17919   17920   17921   17920   17921   17921
       0   17923   17924   17925   17924   17925   17925       0   17927   17928
   17929   17928   17929   17929       0   17931   17932   17933   17932   17933
   17933       0   17935   17936   17937   17936   17937   17937       0   17939
   17940   17941   17940   17941   17941       0   17943   17944   17945   17944
   17945   17945       0   17947   17948   17949   17948   17949   17949       0
   17951   17952   17953   17952   17953   17953       0   17955   17956   17957
   17956   17957   17957       0   17959   17960   17961   17960   17961   17961
       0   17963   17964   17965   17964   17965   17965       0   17967   17968
   17969   17968   17969   17969       0   17971   17972   17973   17972   17973
   17973       0   17975   17976   17977   17976   17977   17977       0   17979
   17980   17981   17980   17981   17981       0   17983   17984   17985   17984
   17985   17985       0   17987   17988   17989   17988   17989   17989       0
   17991   17992   17993   17992   17993   17993       0   17995   17996   17997
   17996   17997   17997       0   17999   18000   18001   18000   18001   18001
       0   18003   18004   18005   18004   18005   18005       0   18007   18008
   18009   18008   18009   18009       0   18011   18012   18013   18012   18013
   18013       0   18015   18016   18017   18016   18017   18017       0   18019
   18020   18021   18020   18021   18021       0   18023   18024   18025   18024
   18025   18025       0   18027   18028   18029   18028   18029   18029       0
   18031   18032   18033   18032   18033   18033       0   18035   18036   18037
   18036   18037   18037       0   18039   18040   18041   18040   18041   18041
       0   18043   18044   18045   18044   18045   18045       0   18047   18048
   18049   18048   18049   18049       0   18051   18052   18053   18052   18053
   18053       0   18055   18056   18057   18056   18057   18057       0   18059
   18060   18061   18060   18061   18061       0   18063   18064   18065   18064
   18065   18065       0   18067   18068   18069   18068   18069   18069       0
   18071   18072   18073   18072   18073   18073       0   18075   18076   18077
   18076   18077   18077       0   18079   18080   18081   18080   18081   18081
       0   18083   18084   18085   18084   18085   18085       0   18087   18088
   18089   18088   18089   18089       0   18091   18092   18093   18092   18093
   18093       0   18095   18096   18097   18096   18097   18097       0   18099
   18100   18101   18100   18101   18101       0   18103   18104   18105   18104
   18105   18105       0   18107   18108   18109   18108   18109   18109       0
   18111   18112   18113   18112   18113   18113       0   18115   18116   18117
   18116   18117   18117       0   18119   18120   18121   18120   18121   18121
       0   18123   18124   18125   18124   18125   18125       0   18127   18128
   18129   18128   18129   18129       0   18131   18132   18133   18132   18133
   18133       0   18135   18136   18137   18136   18137   18137       0   18139
   18140   18141   18140   18141   18141       0   18143   18144   18145   18144
   18145   18145       0   18147   18148   18149   18148   18149   18149       0
   18151   18152   18153   18152   18153   18153       0   18155   18156   18157
   18156   18157   18157       0   18159   18160   18161   18160   18161   18161
       0   18163   18164   18165   18164   18165   18165       0   18167   18168
   18169   18168   18169   18169       0   18171   18172   18173   18172   18173
   18173       0   18175   18176   18177   18176   18177   18177       0   18179
   18180   18181   18180   18181   18181       0   18183   18184   18185   18184
   18185   18185       0   18187   18188   18189   18188   18189   18189       0
   18191   18192   18193   18192   18193   18193       0   18195   18196   18197
   18196   18197   18197       0   18199   18200   18201   18200   18201   18201
       0   18203   18204   18205   18204   18205   18205       0   18207   18208
   18209   18208   18209   18209       0   18211   18212   18213   18212   18213
   18213       0   18215   18216   18217   18216   18217   18217       0   18219
   18220   18221   18220   18221   18221       0   18223   18224   18225   18224
   18225   18225       0   18227   18228   18229   18228   18229   18229       0
   18231   18232   18233   18232   18233   18233       0   18235   18236   18237
   18236   18237   18237       0   18239   18240   18241   18240   18241   18241
       0   18243   18244   18245   18244   18245   18245       0   18247   18248
   18249   18248   18249   18249       0   18251   18252   18253   18252   18253
   18253       0   18255   18256   18257   18256   18257   18257       0   18259
   18260   18261   18260   18261   18261       0   18263   18264   18265   18264
   18265   18265       0   18267   18268   18269   18268   18269   18269       0
   18271   18272   18273   18272   18273   18273       0   18275   18276   18277
   18276   18277   18277       0   18279   18280   18281   18280   18281   18281
       0   18283   18284   18285   18284   18285   18285       0   18287   18288
   18289   18288   18289   18289       0   18291   18292   18293   18292   18293
   18293       0   18295   18296   18297   18296   18297   18297       0   18299
   18300   18301   18300   18301   18301       0   18303   18304   18305   18304
   18305   18305       0   18307   18308   18309   18308   18309   18309       0
   18311   18312   18313   18312   18313   18313       0   18315   18316   18317
   18316   18317   18317       0   18319   18320   18321   18320   18321   18321
       0   18323   18324   18325   18324   18325   18325       0   18327   18328
   18329   18328   18329   18329       0   18331   18332   18333   18332   18333
   18333       0   18335   18336   18337   18336   18337   18337       0   18339
   18340   18341   18340   18341   18341       0   18343   18344   18345   18344
   18345   18345       0   18347   18348   18349   18348   18349   18349       0
   18351   18352   18353   18352   18353   18353       0   18355   18356   18357
   18356   18357   18357       0   18359   18360   18361   18360   18361   18361
       0   18363   18364   18365   18364   18365   18365       0   18367   18368
   18369   18368   18369   18369       0   18371   18372   18373   18372   18373
   18373       0   18375   18376   18377   18376   18377   18377       0   18379
   18380   18381   18380   18381   18381       0   18383   18384   18385   18384
   18385   18385       0   18387   18388   18389   18388   18389   18389       0
   18391   18392   18393   18392   18393   18393       0   18395   18396   18397
   18396   18397   18397       0   18399   18400   18401   18400   18401   18401
       0   18403   18404   18405   18404   18405   18405       0   18407   18408
   18409   18408   18409   18409       0   18411   18412   18413   18412   18413
   18413       0   18415   18416   18417   18416   18417   18417       0   18419
   18420   18421   18420   18421   18421       0   18423   18424   18425   18424
   18425   18425       0   18427   18428   18429   18428   18429   18429       0
   18431   18432   18433   18432   18433   18433       0   18435   18436   18437
   18436   18437   18437       0   18439   18440   18441   18440   18441   18441
       0   18443   18444   18445   18444   18445   18445       0   18447   18448
   18449   18448   18449   18449       0   18451   18452   18453   18452   18453
   18453       0   18455   18456   18457   18456   18457   18457       0   18459
   18460   18461   18460   18461   18461       0   18463   18464   18465   18464
   18465   18465       0   18467   18468   18469   18468   18469   18469       0
   18471   18472   18473   18472   18473   18473       0   18475   18476   18477
   18476   18477   18477       0   18479   18480   18481   18480   18481   18481
       0   18483   18484   18485   18484   18485   18485       0   18487   18488
   18489   18488   18489   18489       0   18491   18492   18493   18492   18493
   18493       0   18495   18496   18497   18496   18497   18497       0   18499
   18500   18501   18500   18501   18501       0   18503   18504   18505   18504
   18505   18505       0   18507   18508   18509   18508   18509   18509       0
   18511   18512   18513   18512   18513   18513       0   18515   18516   18517
   18516   18517   18517       0   18519   18520   18521   18520   18521   18521
       0   18523   18524   18525   18524   18525   18525       0   18527   18528
   18529   18528   18529   18529       0   18531   18532   18533   18532   18533
   18533       0   18535   18536   18537   18536   18537   18537       0   18539
   18540   18541   18540   18541   18541       0   18543   18544   18545   18544
   18545   18545       0   18547   18548   18549   18548   18549   18549       0
   18551   18552   18553   18552   18553   18553       0   18555   18556   18557
   18556   18557   18557       0   18559   18560   18561   18560   18561   18561
       0   18563   18564   18565   18564   18565   18565       0   18567   18568
   18569   18568   18569   18569       0   18571   18572   18573   18572   18573
   18573       0   18575   18576   18577   18576   18577   18577       0   18579
   18580   18581   18580   18581   18581       0   18583   18584   18585   18584
   18585   18585       0   18587   18588   18589   18588   18589   18589       0
   18591   18592   18593   18592   18593   18593       0   18595   18596   18597
   18596   18597   18597       0   18599   18600   18601   18600   18601   18601
       0   18603   18604   18605   18604   18605   18605       0   18607   18608
   18609   18608   18609   18609       0   18611   18612   18613   18612   18613
   18613       0   18615   18616   18617   18616   18617   18617       0   18619
   18620   18621   18620   18621   18621       0   18623   18624   18625   18624
   18625   18625       0   18627   18628   18629   18628   18629   18629       0
   18631   18632   18633   18632   18633   18633       0   18635   18636   18637
   18636   18637   18637       0   18639   18640   18641   18640   18641   18641
       0   18643   18644   18645   18644   18645   18645       0   18647   18648
   18649   18648   18649   18649       0   18651   18652   18653   18652   18653
   18653       0   18655   18656   18657   18656   18657   18657       0   18659
   18660   18661   18660   18661   18661       0   18663   18664   18665   18664
   18665   18665       0   18667   18668   18669   18668   18669   18669       0
   18671   18672   18673   18672   18673   18673       0   18675   18676   18677
   18676   18677   18677       0   18679   18680   18681   18680   18681   18681
       0   18683   18684   18685   18684   18685   18685       0   18687   18688
   18689   18688   18689   18689       0   18691   18692   18693   18692   18693
   18693       0   18695   18696   18697   18696   18697   18697       0   18699
   18700   18701   18700   18701   18701       0   18703   18704   18705   18704
   18705   18705       0   18707   18708   18709   18708   18709   18709       0
   18711   18712   18713   18712   18713   18713       0   18715   18716   18717
   18716   18717   18717       0   18719   18720   18721   18720   18721   18721
       0   18723   18724   18725   18724   18725   18725       0   18727   18728
   18729   18728   18729   18729       0   18731   18732   18733   18732   18733
   18733       0   18735   18736   18737   18736   18737   18737       0   18739
   18740   18741   18740   18741   18741       0   18743   18744   18745   18744
   18745   18745       0   18747   18748   18749   18748   18749   18749       0
   18751   18752   18753   18752   18753   18753       0   18755   18756   18757
   18756   18757   18757       0   18759   18760   18761   18760   18761   18761
       0   18763   18764   18765   18764   18765   18765       0   18767   18768
   18769   18768   18769   18769       0   18771   18772   18773   18772   18773
   18773       0   18775   18776   18777   18776   18777   18777       0   18779
   18780   18781   18780   18781   18781       0   18783   18784   18785   18784
   18785   18785       0   18787   18788   18789   18788   18789   18789       0
   18791   18792   18793   18792   18793   18793       0   18795   18796   18797
   18796   18797   18797       0   18799   18800   18801   18800   18801   18801
       0   18803   18804   18805   18804   18805   18805       0   18807   18808
   18809   18808   18809   18809       0   18811   18812   18813   18812   18813
   18813       0   18815   18816   18817   18816   18817   18817       0   18819
   18820   18821   18820   18821   18821       0   18823   18824   18825   18824
   18825   18825       0   18827   18828   18829   18828   18829   18829       0
   18831   18832   18833   18832   18833   18833       0   18835   18836   18837
   18836   18837   18837       0   18839   18840   18841   18840   18841   18841
       0   18843   18844   18845   18844   18845   18845       0   18847   18848
   18849   18848   18849   18849       0   18851   18852   18853   18852   18853
   18853       0   18855   18856   18857   18856   18857   18857       0   18859
   18860   18861   18860   18861   18861       0   18863   18864   18865   18864
   18865   18865       0   18867   18868   18869   18868   18869   18869       0
   18871   18872   18873   18872   18873   18873       0   18875   18876   18877
   18876   18877   18877       0   18879   18880   18881   18880   18881   18881
       0   18883   18884   18885   18884   18885   18885       0   18887   18888
   18889   18888   18889   18889       0   18891   18892   18893   18892   18893
   18893       0   18895   18896   18897   18896   18897   18897       0   18899
   18900   18901   18900   18901   18901       0   18903   18904   18905   18904
   18905   18905       0   18907   18908   18909   18908   18909   18909       0
   18911   18912   18913   18912   18913   18913       0   18915   18916   18917
   18916   18917   18917       0   18919   18920   18921   18920   18921   18921
       0   18923   18924   18925   18924   18925   18925       0   18927   18928
   18929   18928   18929   18929       0   18931   18932   18933   18932   18933
   18933       0   18935   18936   18937   18936   18937   18937       0   18939
   18940   18941   18940   18941   18941       0   18943   18944   18945   18944
   18945   18945       0   18947   18948   18949   18948   18949   18949       0
   18951   18952   18953   18952   18953   18953       0   18955   18956   18957
   18956   18957   18957       0   18959   18960   18961   18960   18961   18961
       0   18963   18964   18965   18964   18965   18965       0   18967   18968
   18969   18968   18969   18969       0   18971   18972   18973   18972   18973
   18973       0   18975   18976   18977   18976   18977   18977       0   18979
   18980   18981   18980   18981   18981       0   18983   18984   18985   18984
   18985   18985       0   18987   18988   18989   18988   18989   18989       0
   18991   18992   18993   18992   18993   18993       0   18995   18996   18997
   18996   18997   18997       0   18999   19000   19001   19000   19001   19001
       0   19003   19004   19005   19004   19005   19005       0   19007   19008
   19009   19008   19009   19009       0   19011   19012   19013   19012   19013
   19013       0   19015   19016   19017   19016   19017   19017       0   19019
   19020   19021   19020   19021   19021       0   19023   19024   19025   19024
   19025   19025       0   19027   19028   19029   19028   19029   19029       0
   19031   19032   19033   19032   19033   19033       0   19035   19036   19037
   19036   19037   19037       0   19039   19040   19041   19040   19041   19041
       0   19043   19044   19045   19044   19045   19045       0   19047   19048
   19049   19048   19049   19049       0   19051   19052   19053   19052   19053
   19053       0   19055   19056   19057   19056   19057   19057       0   19059
   19060   19061   19060   19061   19061       0   19063   19064   19065   19064
   19065   19065       0   19067   19068   19069   19068   19069   19069       0
   19071   19072   19073   19072   19073   19073       0   19075   19076   19077
   19076   19077   19077       0   19079   19080   19081   19080   19081   19081
       0   19083   19084   19085   19084   19085   19085       0   19087   19088
   19089   19088   19089   19089       0   19091   19092   19093   19092   19093
   19093       0   19095   19096   19097   19096   19097   19097       0   19099
   19100   19101   19100   19101   19101       0   19103   19104   19105   19104
   19105   19105       0   19107   19108   19109   19108   19109   19109       0
   19111   19112   19113   19112   19113   19113       0   19115   19116   19117
   19116   19117   19117       0   19119   19120   19121   19120   19121   19121
       0   19123   19124   19125   19124   19125   19125       0   19127   19128
   19129   19128   19129   19129       0   19131   19132   19133   19132   19133
   19133       0   19135   19136   19137   19136   19137   19137       0   19139
   19140   19141   19140   19141   19141       0   19143   19144   19145   19144
   19145   19145       0   19147   19148   19149   19148   19149   19149       0
   19151   19152   19153   19152   19153   19153       0   19155   19156   19157
   19156   19157   19157       0   19159   19160   19161   19160   19161   19161
       0   19163   19164   19165   19164   19165   19165       0   19167   19168
   19169   19168   19169   19169       0   19171   19172   19173   19172   19173
   19173       0   19175   19176   19177   19176   19177   19177       0   19179
   19180   19181   19180   19181   19181       0   19183   19184   19185   19184
   19185   19185       0   19187   19188   19189   19188   19189   19189       0
   19191   19192   19193   19192   19193   19193       0   19195   19196   19197
   19196   19197   19197       0   19199   19200   19201   19200   19201   19201
       0   19203   19204   19205   19204   19205   19205       0   19207   19208
   19209   19208   19209   19209       0   19211   19212   19213   19212   19213
   19213       0   19215   19216   19217   19216   19217   19217       0   19219
   19220   19221   19220   19221   19221       0   19223   19224   19225   19224
   19225   19225       0   19227   19228   19229   19228   19229   19229       0
   19231   19232   19233   19232   19233   19233       0   19235   19236   19237
   19236   19237   19237       0   19239   19240   19241   19240   19241   19241
       0   19243   19244   19245   19244   19245   19245       0   19247   19248
   19249   19248   19249   19249       0   19251   19252   19253   19252   19253
   19253       0   19255   19256   19257   19256   19257   19257       0   19259
   19260   19261   19260   19261   19261       0   19263   19264   19265   19264
   19265   19265       0   19267   19268   19269   19268   19269   19269       0
   19271   19272   19273   19272   19273   19273       0   19275   19276   19277
   19276   19277   19277       0   19279   19280   19281   19280   19281   19281
       0   19283   19284   19285   19284   19285   19285       0   19287   19288
   19289   19288   19289   19289       0   19291   19292   19293   19292   19293
   19293       0   19295   19296   19297   19296   19297   19297       0   19299
   19300   19301   19300   19301   19301       0   19303   19304   19305   19304
   19305   19305       0   19307   19308   19309   19308   19309   19309       0
   19311   19312   19313   19312   19313   19313       0   19315   19316   19317
   19316   19317   19317       0   19319   19320   19321   19320   19321   19321
       0   19323   19324   19325   19324   19325   19325       0   19327   19328
   19329   19328   19329   19329       0   19331   19332   19333   19332   19333
   19333       0   19335   19336   19337   19336   19337   19337       0   19339
   19340   19341   19340   19341   19341       0   19343   19344   19345   19344
   19345   19345       0   19347   19348   19349   19348   19349   19349       0
   19351   19352   19353   19352   19353   19353       0   19355   19356   19357
   19356   19357   19357       0   19359   19360   19361   19360   19361   19361
       0   19363   19364   19365   19364   19365   19365       0   19367   19368
   19369   19368   19369   19369       0   19371   19372   19373   19372   19373
   19373       0   19375   19376   19377   19376   19377   19377       0   19379
   19380   19381   19380   19381   19381       0   19383   19384   19385   19384
   19385   19385       0   19387   19388   19389   19388   19389   19389       0
   19391   19392   19393   19392   19393   19393       0   19395   19396   19397
   19396   19397   19397       0   19399   19400   19401   19400   19401   19401
       0   19403   19404   19405   19404   19405   19405       0   19407   19408
   19409   19408   19409   19409       0   19411   19412   19413   19412   19413
   19413       0   19415   19416   19417   19416   19417   19417       0   19419
   19420   19421   19420   19421   19421       0   19423   19424   19425   19424
   19425   19425       0   19427   19428   19429   19428   19429   19429       0
   19431   19432   19433   19432   19433   19433       0   19435   19436   19437
   19436   19437   19437       0   19439   19440   19441   19440   19441   19441
       0   19443   19444   19445   19444   19445   19445       0   19447   19448
   19449   19448   19449   19449       0   19451   19452   19453   19452   19453
   19453       0   19455   19456   19457   19456   19457   19457       0   19459
   19460   19461   19460   19461   19461       0   19463   19464   19465   19464
   19465   19465       0   19467   19468   19469   19468   19469   19469       0
   19471   19472   19473   19472   19473   19473       0   19475   19476   19477
   19476   19477   19477       0   19479   19480   19481   19480   19481   19481
       0   19483   19484   19485   19484   19485   19485       0   19487   19488
   19489   19488   19489   19489       0   19491   19492   19493   19492   19493
   19493       0   19495   19496   19497   19496   19497   19497       0   19499
   19500   19501   19500   19501   19501       0   19503   19504   19505   19504
   19505   19505       0   19507   19508   19509   19508   19509   19509       0
   19511   19512   19513   19512   19513   19513       0   19515   19516   19517
   19516   19517   19517       0   19519   19520   19521   19520   19521   19521
       0   19523   19524   19525   19524   19525   19525       0   19527   19528
   19529   19528   19529   19529       0   19531   19532   19533   19532   19533
   19533       0   19535   19536   19537   19536   19537   19537       0   19539
   19540   19541   19540   19541   19541       0   19543   19544   19545   19544
   19545   19545       0   19547   19548   19549   19548   19549   19549       0
   19551   19552   19553   19552   19553   19553       0   19555   19556   19557
   19556   19557   19557       0   19559   19560   19561   19560   19561   19561
       0   19563   19564   19565   19564   19565   19565       0   19567   19568
   19569   19568   19569   19569       0   19571   19572   19573   19572   19573
   19573       0   19575   19576   19577   19576   19577   19577       0   19579
   19580   19581   19580   19581   19581       0   19583   19584   19585   19584
   19585   19585       0   19587   19588   19589   19588   19589   19589       0
   19591   19592   19593   19592   19593   19593       0   19595   19596   19597
   19596   19597   19597       0   19599   19600   19601   19600   19601   19601
       0   19603   19604   19605   19604   19605   19605       0   19607   19608
   19609   19608   19609   19609       0   19611   19612   19613   19612   19613
   19613       0   19615   19616   19617   19616   19617   19617       0   19619
   19620   19621   19620   19621   19621       0   19623   19624   19625   19624
   19625   19625       0   19627   19628   19629   19628   19629   19629       0
   19631   19632   19633   19632   19633   19633       0   19635   19636   19637
   19636   19637   19637       0   19639   19640   19641   19640   19641   19641
       0   19643   19644   19645   19644   19645   19645       0   19647   19648
   19649   19648   19649   19649       0   19651   19652   19653   19652   19653
   19653       0   19655   19656   19657   19656   19657   19657       0   19659
   19660   19661   19660   19661   19661       0   19663   19664   19665   19664
   19665   19665       0   19667   19668   19669   19668   19669   19669       0
   19671   19672   19673   19672   19673   19673       0   19675   19676   19677
   19676   19677   19677       0   19679   19680   19681   19680   19681   19681
       0   19683   19684   19685   19684   19685   19685       0   19687   19688
   19689   19688   19689   19689       0   19691   19692   19693   19692   19693
   19693       0   19695   19696   19697   19696   19697   19697       0   19699
   19700   19701   19700   19701   19701       0   19703   19704   19705   19704
   19705   19705       0   19707   19708   19709   19708   19709   19709       0
   19711   19712   19713   19712   19713   19713       0   19715   19716   19717
   19716   19717   19717       0   19719   19720   19721   19720   19721   19721
       0   19723   19724   19725   19724   19725   19725       0   19727   19728
   19729   19728   19729   19729       0   19731   19732   19733   19732   19733
   19733       0   19735   19736   19737   19736   19737   19737       0   19739
   19740   19741   19740   19741   19741       0   19743   19744   19745   19744
   19745   19745       0   19747   19748   19749   19748   19749   19749       0
   19751   19752   19753   19752   19753   19753       0   19755   19756   19757
   19756   19757   19757       0   19759   19760   19761   19760   19761   19761
       0   19763   19764   19765   19764   19765   19765       0   19767   19768
   19769   19768   19769   19769       0   19771   19772   19773   19772   19773
   19773       0   19775   19776   19777   19776   19777   19777       0   19779
   19780   19781   19780   19781   19781       0   19783   19784   19785   19784
   19785   19785       0   19787   19788   19789   19788   19789   19789       0
   19791   19792   19793   19792   19793   19793       0   19795   19796   19797
   19796   19797   19797       0   19799   19800   19801   19800   19801   19801
       0   19803   19804   19805   19804   19805   19805       0   19807   19808
   19809   19808   19809   19809       0   19811   19812   19813   19812   19813
   19813       0   19815   19816   19817   19816   19817   19817       0   19819
   19820   19821   19820   19821   19821       0   19823   19824   19825   19824
   19825   19825       0   19827   19828   19829   19828   19829   19829       0
   19831   19832   19833   19832   19833   19833       0   19835   19836   19837
   19836   19837   19837       0   19839   19840   19841   19840   19841   19841
       0   19843   19844   19845   19844   19845   19845       0   19847   19848
   19849   19848   19849   19849       0   19851   19852   19853   19852   19853
   19853       0   19855   19856   19857   19856   19857   19857       0   19859
   19860   19861   19860   19861   19861       0   19863   19864   19865   19864
   19865   19865       0   19867   19868   19869   19868   19869   19869       0
   19871   19872   19873   19872   19873   19873       0   19875   19876   19877
   19876   19877   19877       0   19879   19880   19881   19880   19881   19881
       0   19883   19884   19885   19884   19885   19885       0   19887   19888
   19889   19888   19889   19889       0   19891   19892   19893   19892   19893
   19893       0   19895   19896   19897   19896   19897   19897       0   19899
   19900   19901   19900   19901   19901       0   19903   19904   19905   19904
   19905   19905       0   19907   19908   19909   19908   19909   19909       0
   19911   19912   19913   19912   19913   19913       0   19915   19916   19917
   19916   19917   19917       0   19919   19920   19921   19920   19921   19921
       0   19923   19924   19925   19924   19925   19925       0   19927   19928
   19929   19928   19929   19929       0   19931   19932   19933   19932   19933
   19933       0   19935   19936   19937   19936   19937   19937       0   19939
   19940   19941   19940   19941   19941       0   19943   19944   19945   19944
   19945   19945       0   19947   19948   19949   19948   19949   19949       0
   19951   19952   19953   19952   19953   19953       0   19955   19956   19957
   19956   19957   19957       0   19959   19960   19961   19960   19961   19961
       0   19963   19964   19965   19964   19965   19965       0   19967   19968
   19969   19968   19969   19969       0   19971   19972   19973   19972   19973
   19973       0   19975   19976   19977   19976   19977   19977       0   19979
   19980   19981   19980   19981   19981       0   19983   19984   19985   19984
   19985   19985       0   19987   19988   19989   19988   19989   19989       0
   19991   19992   19993   19992   19993   19993       0   19995   19996   19997
   19996   19997   19997       0   19999   20000   20001   20000   20001   20001
       0   20003   20004   20005   20004   20005   20005       0   20007   20008
   20009   20008   20009   20009       0   20011   20012   20013   20012   20013
   20013       0   20015   20016   20017   20016   20017   20017       0   20019
   20020   20021   20020   20021   20021       0   20023   20024   20025   20024
   20025   20025       0   20027   20028   20029   20028   20029   20029       0
   20031   20032   20033   20032   20033   20033       0   20035   20036   20037
   20036   20037   20037       0   20039   20040   20041   20040   20041   20041
       0   20043   20044   20045   20044   20045   20045       0   20047   20048
   20049   20048   20049   20049       0   20051   20052   20053   20052   20053
   20053       0   20055   20056   20057   20056   20057   20057       0   20059
   20060   20061   20060   20061   20061       0   20063   20064   20065   20064
   20065   20065       0   20067   20068   20069   20068   20069   20069       0
   20071   20072   20073   20072   20073   20073       0   20075   20076   20077
   20076   20077   20077       0   20079   20080   20081   20080   20081   20081
       0   20083   20084   20085   20084   20085   20085       0   20087   20088
   20089   20088   20089   20089       0   20091   20092   20093   20092   20093
   20093       0   20095   20096   20097   20096   20097   20097       0   20099
   20100   20101   20100   20101   20101       0   20103   20104   20105   20104
   20105   20105       0   20107   20108   20109   20108   20109   20109       0
   20111   20112   20113   20112   20113   20113       0   20115   20116   20117
   20116   20117   20117       0   20119   20120   20121   20120   20121   20121
       0   20123   20124   20125   20124   20125   20125       0   20127   20128
   20129   20128   20129   20129       0   20131   20132   20133   20132   20133
   20133       0   20135   20136   20137   20136   20137   20137       0   20139
   20140   20141   20140   20141   20141       0   20143   20144   20145   20144
   20145   20145       0   20147   20148   20149   20148   20149   20149       0
   20151   20152   20153   20152   20153   20153       0   20155   20156   20157
   20156   20157   20157       0   20159   20160   20161   20160   20161   20161
       0   20163   20164   20165   20164   20165   20165       0   20167   20168
   20169   20168   20169   20169       0   20171   20172   20173   20172   20173
   20173       0   20175   20176   20177   20176   20177   20177       0   20179
   20180   20181   20180   20181   20181       0   20183   20184   20185   20184
   20185   20185       0   20187   20188   20189   20188   20189   20189       0
   20191   20192   20193   20192   20193   20193       0   20195   20196   20197
   20196   20197   20197       0   20199   20200   20201   20200   20201   20201
       0   20203   20204   20205   20204   20205   20205       0   20207   20208
   20209   20208   20209   20209       0   20211   20212   20213   20212   20213
   20213       0   20215   20216   20217   20216   20217   20217       0   20219
   20220   20221   20220   20221   20221       0   20223   20224   20225   20224
   20225   20225       0   20227   20228   20229   20228   20229   20229       0
   20231   20232   20233   20232   20233   20233       0   20235   20236   20237
   20236   20237   20237       0   20239   20240   20241   20240   20241   20241
       0   20243   20244   20245   20244   20245   20245       0   20247   20248
   20249   20248   20249   20249       0   20251   20252   20253   20252   20253
   20253       0   20255   20256   20257   20256   20257   20257       0   20259
   20260   20261   20260   20261   20261       0   20263   20264   20265   20264
   20265   20265       0   20267   20268   20269   20268   20269   20269       0
   20271   20272   20273   20272   20273   20273       0   20275   20276   20277
   20276   20277   20277       0   20279   20280   20281   20280   20281   20281
       0   20283   20284   20285   20284   20285   20285       0   20287   20288
   20289   20288   20289   20289       0   20291   20292   20293   20292   20293
   20293       0   20295   20296   20297   20296   20297   20297       0   20299
   20300   20301   20300   20301   20301       0   20303   20304   20305   20304
   20305   20305       0   20307   20308   20309   20308   20309   20309       0
   20311   20312   20313   20312   20313   20313       0   20315   20316   20317
   20316   20317   20317       0   20319   20320   20321   20320   20321   20321
       0   20323   20324   20325   20324   20325   20325       0   20327   20328
   20329   20328   20329   20329       0   20331   20332   20333   20332   20333
   20333       0   20335   20336   20337   20336   20337   20337       0   20339
   20340   20341   20340   20341   20341       0   20343   20344   20345   20344
   20345   20345       0   20347   20348   20349   20348   20349   20349       0
   20351   20352   20353   20352   20353   20353       0   20355   20356   20357
   20356   20357   20357       0   20359   20360   20361   20360   20361   20361
       0   20363   20364   20365   20364   20365   20365       0   20367   20368
   20369   20368   20369   20369       0   20371   20372   20373   20372   20373
   20373       0   20375   20376   20377   20376   20377   20377       0   20379
   20380   20381   20380   20381   20381       0   20383   20384   20385   20384
   20385   20385       0   20387   20388   20389   20388   20389   20389       0
   20391   20392   20393   20392   20393   20393       0   20395   20396   20397
   20396   20397   20397       0   20399   20400   20401   20400   20401   20401
       0   20403   20404   20405   20404   20405   20405       0   20407   20408
   20409   20408   20409   20409       0   20411   20412   20413   20412   20413
   20413       0   20415   20416   20417   20416   20417   20417       0   20419
   20420   20421   20420   20421   20421       0   20423   20424   20425   20424
   20425   20425       0   20427   20428   20429   20428   20429   20429       0
   20431   20432   20433   20432   20433   20433       0   20435   20436   20437
   20436   20437   20437       0   20439   20440   20441   20440   20441   20441
       0   20443   20444   20445   20444   20445   20445       0   20447   20448
   20449   20448   20449   20449       0   20451   20452   20453   20452   20453
   20453       0   20455   20456   20457   20456   20457   20457       0   20459
   20460   20461   20460   20461   20461       0   20463   20464   20465   20464
   20465   20465       0   20467   20468   20469   20468   20469   20469       0
   20471   20472   20473   20472   20473   20473       0   20475   20476   20477
   20476   20477   20477       0   20479   20480   20481   20480   20481   20481
       0   20483   20484   20485   20484   20485   20485       0   20487   20488
   20489   20488   20489   20489       0   20491   20492   20493   20492   20493
   20493       0   20495   20496   20497   20496   20497   20497       0   20499
   20500   20501   20500   20501   20501       0   20503   20504   20505   20504
   20505   20505       0   20507   20508   20509   20508   20509   20509       0
   20511   20512   20513   20512   20513   20513       0   20515   20516   20517
   20516   20517   20517       0   20519   20520   20521   20520   20521   20521
       0   20523   20524   20525   20524   20525   20525       0   20527   20528
   20529   20528   20529   20529       0   20531   20532   20533   20532   20533
   20533       0   20535   20536   20537   20536   20537   20537       0   20539
   20540   20541   20540   20541   20541       0   20543   20544   20545   20544
   20545   20545       0   20547   20548   20549   20548   20549   20549       0
   20551   20552   20553   20552   20553   20553       0   20555   20556   20557
   20556   20557   20557       0   20559   20560   20561   20560   20561   20561
       0   20563   20564   20565   20564   20565   20565       0   20567   20568
   20569   20568   20569   20569       0   20571   20572   20573   20572   20573
   20573       0   20575   20576   20577   20576   20577   20577       0   20579
   20580   20581   20580   20581   20581       0   20583   20584   20585   20584
   20585   20585       0   20587   20588   20589   20588   20589   20589       0
   20591   20592   20593   20592   20593   20593       0   20595   20596   20597
   20596   20597   20597       0   20599   20600   20601   20600   20601   20601
       0   20603   20604   20605   20604   20605   20605       0   20607   20608
   20609   20608   20609   20609       0   20611   20612   20613   20612   20613
   20613       0   20615   20616   20617   20616   20617   20617       0   20619
   20620   20621   20620   20621   20621       0   20623   20624   20625   20624
   20625   20625       0   20627   20628   20629   20628   20629   20629       0
   20631   20632   20633   20632   20633   20633       0   20635   20636   20637
   20636   20637   20637       0   20639   20640   20641   20640   20641   20641
       0   20643   20644   20645   20644   20645   20645       0   20647   20648
   20649   20648   20649   20649       0   20651   20652   20653   20652   20653
   20653       0   20655   20656   20657   20656   20657   20657       0   20659
   20660   20661   20660   20661   20661       0   20663   20664   20665   20664
   20665   20665       0   20667   20668   20669   20668   20669   20669       0
   20671   20672   20673   20672   20673   20673       0   20675   20676   20677
   20676   20677   20677       0   20679   20680   20681   20680   20681   20681
       0   20683   20684   20685   20684   20685   20685       0   20687   20688
   20689   20688   20689   20689       0   20691   20692   20693   20692   20693
   20693       0   20695   20696   20697   20696   20697   20697       0   20699
   20700   20701   20700   20701   20701       0   20703   20704   20705   20704
   20705   20705       0   20707   20708   20709   20708   20709   20709       0
   20711   20712   20713   20712   20713   20713       0   20715   20716   20717
   20716   20717   20717       0   20719   20720   20721   20720   20721   20721
       0   20723   20724   20725   20724   20725   20725       0   20727   20728
   20729   20728   20729   20729       0   20731   20732   20733   20732   20733
   20733       0   20735   20736   20737   20736   20737   20737       0   20739
   20740   20741   20740   20741   20741       0   20743   20744   20745   20744
   20745   20745       0   20747   20748   20749   20748   20749   20749       0
   20751   20752   20753   20752   20753   20753       0   20755   20756   20757
   20756   20757   20757       0   20759   20760   20761   20760   20761   20761
       0   20763   20764   20765   20764   20765   20765       0   20767   20768
   20769   20768   20769   20769       0   20771   20772   20773   20772   20773
   20773       0   20775   20776   20777   20776   20777   20777       0   20779
   20780   20781   20780   20781   20781       0   20783   20784   20785   20784
   20785   20785       0   20787   20788   20789   20788   20789   20789       0
   20791   20792   20793   20792   20793   20793       0   20795   20796   20797
   20796   20797   20797       0   20799   20800   20801   20800   20801   20801
       0   20803   20804   20805   20804   20805   20805       0   20807   20808
   20809   20808   20809   20809       0   20811   20812   20813   20812   20813
   20813       0   20815   20816   20817   20816   20817   20817       0   20819
   20820   20821   20820   20821   20821       0   20823   20824   20825   20824
   20825   20825       0   20827   20828   20829   20828   20829   20829       0
   20831   20832   20833   20832   20833   20833       0   20835   20836   20837
   20836   20837   20837       0   20839   20840   20841   20840   20841   20841
       0   20843   20844   20845   20844   20845   20845       0   20847   20848
   20849   20848   20849   20849       0   20851   20852   20853   20852   20853
   20853       0   20855   20856   20857   20856   20857   20857       0   20859
   20860   20861   20860   20861   20861       0   20863   20864   20865   20864
   20865   20865       0   20867   20868   20869   20868   20869   20869       0
   20871   20872   20873   20872   20873   20873       0   20875   20876   20877
   20876   20877   20877       0   20879   20880   20881   20880   20881   20881
       0   20883   20884   20885   20884   20885   20885       0   20887   20888
   20889   20888   20889   20889       0   20891   20892   20893   20892   20893
   20893       0   20895   20896   20897   20896   20897   20897       0   20899
   20900   20901   20900   20901   20901       0   20903   20904   20905   20904
   20905   20905       0   20907   20908   20909   20908   20909   20909       0
   20911   20912   20913   20912   20913   20913       0   20915   20916   20917
   20916   20917   20917       0   20919   20920   20921   20920   20921   20921
       0   20923   20924   20925   20924   20925   20925       0   20927   20928
   20929   20928   20929   20929       0   20931   20932   20933   20932   20933
   20933       0   20935   20936   20937   20936   20937   20937       0   20939
   20940   20941   20940   20941   20941       0   20943   20944   20945   20944
   20945   20945       0   20947   20948   20949   20948   20949   20949       0
   20951   20952   20953   20952   20953   20953       0   20955   20956   20957
   20956   20957   20957       0   20959   20960   20961   20960   20961   20961
       0   20963   20964   20965   20964   20965   20965       0   20967   20968
   20969   20968   20969   20969       0   20971   20972   20973   20972   20973
   20973       0   20975   20976   20977   20976   20977   20977       0   20979
   20980   20981   20980   20981   20981       0   20983   20984   20985   20984
   20985   20985       0   20987   20988   20989   20988   20989   20989       0
   20991   20992   20993   20992   20993   20993       0   20995   20996   20997
   20996   20997   20997       0   20999   21000   21001   21000   21001   21001
       0   21003   21004   21005   21004   21005   21005       0   21007   21008
   21009   21008   21009   21009       0   21011   21012   21013   21012   21013
   21013       0   21015   21016   21017   21016   21017   21017       0   21019
   21020   21021   21020   21021   21021       0   21023   21024   21025   21024
   21025   21025       0   21027   21028   21029   21028   21029   21029       0
   21031   21032   21033   21032   21033   21033       0   21035   21036   21037
   21036   21037   21037       0   21039   21040   21041   21040   21041   21041
       0   21043   21044   21045   21044   21045   21045       0   21047   21048
   21049   21048   21049   21049       0   21051   21052   21053   21052   21053
   21053       0   21055   21056   21057   21056   21057   21057       0   21059
   21060   21061   21060   21061   21061       0   21063   21064   21065   21064
   21065   21065       0   21067   21068   21069   21068   21069   21069       0
   21071   21072   21073   21072   21073   21073       0   21075   21076   21077
   21076   21077   21077       0   21079   21080   21081   21080   21081   21081
       0   21083   21084   21085   21084   21085   21085       0   21087   21088
   21089   21088   21089   21089       0   21091   21092   21093   21092   21093
   21093       0   21095   21096   21097   21096   21097   21097       0   21099
   21100   21101   21100   21101   21101       0   21103   21104   21105   21104
   21105   21105       0   21107   21108   21109   21108   21109   21109       0
   21111   21112   21113   21112   21113   21113       0   21115   21116   21117
   21116   21117   21117       0   21119   21120   21121   21120   21121   21121
       0   21123   21124   21125   21124   21125   21125       0   21127   21128
   21129   21128   21129   21129       0   21131   21132   21133   21132   21133
   21133       0   21135   21136   21137   21136   21137   21137       0   21139
   21140   21141   21140   21141   21141       0   21143   21144   21145   21144
   21145   21145       0   21147   21148   21149   21148   21149   21149       0
   21151   21152   21153   21152   21153   21153       0   21155   21156   21157
   21156   21157   21157       0   21159   21160   21161   21160   21161   21161
       0   21163   21164   21165   21164   21165   21165       0   21167   21168
   21169   21168   21169   21169       0   21171   21172   21173   21172   21173
   21173       0   21175   21176   21177   21176   21177   21177       0   21179
   21180   21181   21180   21181   21181       0   21183   21184   21185   21184
   21185   21185       0   21187   21188   21189   21188   21189   21189       0
   21191   21192   21193   21192   21193   21193       0   21195   21196   21197
   21196   21197   21197       0   21199   21200   21201   21200   21201   21201
       0   21203   21204   21205   21204   21205   21205       0   21207   21208
   21209   21208   21209   21209       0   21211   21212   21213   21212   21213
   21213       0   21215   21216   21217   21216   21217   21217       0   21219
   21220   21221   21220   21221   21221       0   21223   21224   21225   21224
   21225   21225       0   21227   21228   21229   21228   21229   21229       0
   21231   21232   21233   21232   21233   21233       0   21235   21236   21237
   21236   21237   21237       0   21239   21240   21241   21240   21241   21241
       0   21243   21244   21245   21244   21245   21245       0   21247   21248
   21249   21248   21249   21249       0   21251   21252   21253   21252   21253
   21253       0   21255   21256   21257   21256   21257   21257       0   21259
   21260   21261   21260   21261   21261       0   21263   21264   21265   21264
   21265   21265       0   21267   21268   21269   21268   21269   21269       0
   21271   21272   21273   21272   21273   21273       0   21275   21276   21277
   21276   21277   21277       0   21279   21280   21281   21280   21281   21281
       0   21283   21284   21285   21284   21285   21285       0   21287   21288
   21289   21288   21289   21289       0   21291   21292   21293   21292   21293
   21293       0   21295   21296   21297   21296   21297   21297       0   21299
   21300   21301   21300   21301   21301       0   21303   21304   21305   21304
   21305   21305       0   21307   21308   21309   21308   21309   21309       0
   21311   21312   21313   21312   21313   21313       0   21315   21316   21317
   21316   21317   21317       0   21319   21320   21321   21320   21321   21321
       0   21323   21324   21325   21324   21325   21325       0   21327   21328
   21329   21328   21329   21329       0   21331   21332   21333   21332   21333
   21333       0   21335   21336   21337   21336   21337   21337       0   21339
   21340   21341   21340   21341   21341       0   21343   21344   21345   21344
   21345   21345       0   21347   21348   21349   21348   21349   21349       0
   21351   21352   21353   21352   21353   21353       0   21355   21356   21357
   21356   21357   21357       0   21359   21360   21361   21360   21361   21361
       0   21363   21364   21365   21364   21365   21365       0   21367   21368
   21369   21368   21369   21369       0   21371   21372   21373   21372   21373
   21373       0   21375   21376   21377   21376   21377   21377       0   21379
   21380   21381   21380   21381   21381       0   21383   21384   21385   21384
   21385   21385       0   21387   21388   21389   21388   21389   21389       0
   21391   21392   21393   21392   21393   21393       0   21395   21396   21397
   21396   21397   21397       0   21399   21400   21401   21400   21401   21401
       0   21403   21404   21405   21404   21405   21405       0   21407   21408
   21409   21408   21409   21409       0   21411   21412   21413   21412   21413
   21413       0   21415   21416   21417   21416   21417   21417       0   21419
   21420   21421   21420   21421   21421       0   21423   21424   21425   21424
   21425   21425       0   21427   21428   21429   21428   21429   21429       0
   21431   21432   21433   21432   21433   21433       0   21435   21436   21437
   21436   21437   21437       0   21439   21440   21441   21440   21441   21441
       0   21443   21444   21445   21444   21445   21445       0   21447   21448
   21449   21448   21449   21449       0   21451   21452   21453   21452   21453
   21453       0   21455   21456   21457   21456   21457   21457       0   21459
   21460   21461   21460   21461   21461       0   21463   21464   21465   21464
   21465   21465       0   21467   21468   21469   21468   21469   21469       0
   21471   21472   21473   21472   21473   21473       0   21475   21476   21477
   21476   21477   21477       0   21479   21480   21481   21480   21481   21481
       0   21483   21484   21485   21484   21485   21485       0   21487   21488
   21489   21488   21489   21489       0   21491   21492   21493   21492   21493
   21493       0   21495   21496   21497   21496   21497   21497       0   21499
   21500   21501   21500   21501   21501       0   21503   21504   21505   21504
   21505   21505       0   21507   21508   21509   21508   21509   21509       0
   21511   21512   21513   21512   21513   21513       0   21515   21516   21517
   21516   21517   21517       0   21519   21520   21521   21520   21521   21521
       0   21523   21524   21525   21524   21525   21525       0   21527   21528
   21529   21528   21529   21529       0   21531   21532   21533   21532   21533
   21533       0   21535   21536   21537   21536   21537   21537       0   21539
   21540   21541   21540   21541   21541       0   21543   21544   21545   21544
   21545   21545       0   21547   21548   21549   21548   21549   21549       0
   21551   21552   21553   21552   21553   21553       0   21555   21556   21557
   21556   21557   21557       0   21559   21560   21561   21560   21561   21561
       0   21563   21564   21565   21564   21565   21565       0   21567   21568
   21569   21568   21569   21569       0   21571   21572   21573   21572   21573
   21573       0   21575   21576   21577   21576   21577   21577       0   21579
   21580   21581   21580   21581   21581       0   21583   21584   21585   21584
   21585   21585       0   21587   21588   21589   21588   21589   21589       0
   21591   21592   21593   21592   21593   21593       0   21595   21596   21597
   21596   21597   21597       0   21599   21600   21601   21600   21601   21601
       0   21603   21604   21605   21604   21605   21605       0   21607   21608
   21609   21608   21609   21609       0   21611   21612   21613   21612   21613
   21613       0   21615   21616   21617   21616   21617   21617       0   21619
   21620   21621   21620   21621   21621       0   21623   21624   21625   21624
   21625   21625       0   21627   21628   21629   21628   21629   21629       0
   21631   21632   21633   21632   21633   21633       0   21635   21636   21637
   21636   21637   21637       0   21639   21640   21641   21640   21641   21641
       0   21643   21644   21645   21644   21645   21645       0   21647   21648
   21649   21648   21649   21649       0   21651   21652   21653   21652   21653
   21653       0   21655   21656   21657   21656   21657   21657       0   21659
   21660   21661   21660   21661   21661       0   21663   21664   21665   21664
   21665   21665       0   21667   21668   21669   21668   21669   21669       0
   21671   21672   21673   21672   21673   21673       0   21675   21676   21677
   21676   21677   21677       0   21679   21680   21681   21680   21681   21681
       0   21683   21684   21685   21684   21685   21685       0   21687   21688
   21689   21688   21689   21689       0   21691   21692   21693   21692   21693
   21693       0   21695   21696   21697   21696   21697   21697       0   21699
   21700   21701   21700   21701   21701       0   21703   21704   21705   21704
   21705   21705       0   21707   21708   21709   21708   21709   21709       0
   21711   21712   21713   21712   21713   21713       0   21715   21716   21717
   21716   21717   21717       0   21719   21720   21721   21720   21721   21721
       0   21723   21724   21725   21724   21725   21725       0   21727   21728
   21729   21728   21729   21729       0   21731   21732   21733   21732   21733
   21733       0   21735   21736   21737   21736   21737   21737       0   21739
   21740   21741   21740   21741   21741       0   21743   21744   21745   21744
   21745   21745       0   21747   21748   21749   21748   21749   21749       0
   21751   21752   21753   21752   21753   21753       0   21755   21756   21757
   21756   21757   21757       0   21759   21760   21761   21760   21761   21761
       0   21763   21764   21765   21764   21765   21765       0   21767   21768
   21769   21768   21769   21769       0   21771   21772   21773   21772   21773
   21773       0   21775   21776   21777   21776   21777   21777       0   21779
   21780   21781   21780   21781   21781       0   21783   21784   21785   21784
   21785   21785       0   21787   21788   21789   21788   21789   21789       0
   21791   21792   21793   21792   21793   21793       0   21795   21796   21797
   21796   21797   21797       0   21799   21800   21801   21800   21801   21801
       0   21803   21804   21805   21804   21805   21805       0   21807   21808
   21809   21808   21809   21809       0   21811   21812   21813   21812   21813
   21813       0   21815   21816   21817   21816   21817   21817       0   21819
   21820   21821   21820   21821   21821       0   21823   21824   21825   21824
   21825   21825       0   21827   21828   21829   21828   21829   21829       0
   21831   21832   21833   21832   21833   21833       0   21835   21836   21837
   21836   21837   21837       0   21839   21840   21841   21840   21841   21841
       0   21843   21844   21845   21844   21845   21845       0   21847   21848
   21849   21848   21849   21849       0   21851   21852   21853   21852   21853
   21853       0   21855   21856   21857   21856   21857   21857       0   21859
   21860   21861   21860   21861   21861       0   21863   21864   21865   21864
   21865   21865       0   21867   21868   21869   21868   21869   21869       0
   21871   21872   21873   21872   21873   21873       0   21875   21876   21877
   21876   21877   21877       0   21879   21880   21881   21880   21881   21881
       0   21883   21884   21885   21884   21885   21885       0   21887   21888
   21889   21888   21889   21889       0   21891   21892   21893   21892   21893
   21893       0   21895   21896   21897   21896   21897   21897       0   21899
   21900   21901   21900   21901   21901       0   21903   21904   21905   21904
   21905   21905       0   21907   21908   21909   21908   21909   21909       0
   21911   21912   21913   21912   21913   21913       0   21915   21916   21917
   21916   21917   21917       0   21919   21920   21921   21920   21921   21921
       0   21923   21924   21925   21924   21925   21925       0   21927   21928
   21929   21928   21929   21929       0   21931   21932   21933   21932   21933
   21933       0   21935   21936   21937   21936   21937   21937       0   21939
   21940   21941   21940   21941   21941       0   21943   21944   21945   21944
   21945   21945       0   21947   21948   21949   21948   21949   21949       0
   21951   21952   21953   21952   21953   21953       0   21955   21956   21957
   21956   21957   21957       0   21959   21960   21961   21960   21961   21961
       0   21963   21964   21965   21964   21965   21965       0   21967   21968
   21969   21968   21969   21969       0   21971   21972   21973   21972   21973
   21973       0   21975   21976   21977   21976   21977   21977       0   21979
   21980   21981   21980   21981   21981       0   21983   21984   21985   21984
   21985   21985       0   21987   21988   21989   21988   21989   21989       0
   21991   21992   21993   21992   21993   21993       0   21995   21996   21997
   21996   21997   21997       0   21999   22000   22001   22000   22001   22001
       0   22003   22004   22005   22004   22005   22005       0   22007   22008
   22009   22008   22009   22009       0   22011   22012   22013   22012   22013
   22013       0   22015   22016   22017   22016   22017   22017       0   22019
   22020   22021   22020   22021   22021       0   22023   22024   22025   22024
   22025   22025       0   22027   22028   22029   22028   22029   22029       0
   22031   22032   22033   22032   22033   22033       0   22035   22036   22037
   22036   22037   22037       0   22039   22040   22041   22040   22041   22041
       0   22043   22044   22045   22044   22045   22045       0   22047   22048
   22049   22048   22049   22049       0   22051   22052   22053   22052   22053
   22053       0   22055   22056   22057   22056   22057   22057       0   22059
   22060   22061   22060   22061   22061       0   22063   22064   22065   22064
   22065   22065       0   22067   22068   22069   22068   22069   22069       0
   22071   22072   22073   22072   22073   22073       0   22075   22076   22077
   22076   22077   22077       0   22079   22080   22081   22080   22081   22081
       0   22083   22084   22085   22084   22085   22085       0   22087   22088
   22089   22088   22089   22089       0   22091   22092   22093   22092   22093
   22093       0   22095   22096   22097   22096   22097   22097       0   22099
   22100   22101   22100   22101   22101       0   22103   22104   22105   22104
   22105   22105       0   22107   22108   22109   22108   22109   22109       0
   22111   22112   22113   22112   22113   22113       0   22115   22116   22117
   22116   22117   22117       0   22119   22120   22121   22120   22121   22121
       0   22123   22124   22125   22124   22125   22125       0   22127   22128
   22129   22128   22129   22129       0   22131   22132   22133   22132   22133
   22133       0   22135   22136   22137   22136   22137   22137       0   22139
   22140   22141   22140   22141   22141       0   22143   22144   22145   22144
   22145   22145       0   22147   22148   22149   22148   22149   22149       0
   22151   22152   22153   22152   22153   22153       0   22155   22156   22157
   22156   22157   22157       0   22159   22160   22161   22160   22161   22161
       0   22163   22164   22165   22164   22165   22165       0   22167   22168
   22169   22168   22169   22169       0   22171   22172   22173   22172   22173
   22173       0   22175   22176   22177   22176   22177   22177       0   22179
   22180   22181   22180   22181   22181       0   22183   22184   22185   22184
   22185   22185       0   22187   22188   22189   22188   22189   22189       0
   22191   22192   22193   22192   22193   22193       0   22195   22196   22197
   22196   22197   22197       0   22199   22200   22201   22200   22201   22201
       0   22203   22204   22205   22204   22205   22205       0   22207   22208
   22209   22208   22209   22209       0   22211   22212   22213   22212   22213
   22213       0   22215   22216   22217   22216   22217   22217       0   22219
   22220   22221   22220   22221   22221       0   22223   22224   22225   22224
   22225   22225       0   22227   22228   22229   22228   22229   22229       0
   22231   22232   22233   22232   22233   22233       0   22235   22236   22237
   22236   22237   22237       0   22239   22240   22241   22240   22241   22241
       0   22243   22244   22245   22244   22245   22245       0   22247   22248
   22249   22248   22249   22249       0   22251   22252   22253   22252   22253
   22253       0   22255   22256   22257   22256   22257   22257       0   22259
   22260   22261   22260   22261   22261       0   22263   22264   22265   22264
   22265   22265       0   22267   22268   22269   22268   22269   22269       0
   22271   22272   22273   22272   22273   22273       0   22275   22276   22277
   22276   22277   22277       0   22279   22280   22281   22280   22281   22281
       0   22283   22284   22285   22284   22285   22285       0   22287   22288
   22289   22288   22289   22289       0   22291   22292   22293   22292   22293
   22293       0   22295   22296   22297   22296   22297   22297       0   22299
   22300   22301   22300   22301   22301       0   22303   22304   22305   22304
   22305   22305       0   22307   22308   22309   22308   22309   22309       0
   22311   22312   22313   22312   22313   22313       0   22315   22316   22317
   22316   22317   22317       0   22319   22320   22321   22320   22321   22321
       0   22323   22324   22325   22324   22325   22325       0   22327   22328
   22329   22328   22329   22329       0   22331   22332   22333   22332   22333
   22333       0   22335   22336   22337   22336   22337   22337       0   22339
   22340   22341   22340   22341   22341       0   22343   22344   22345   22344
   22345   22345       0   22347   22348   22349   22348   22349   22349       0
   22351   22352   22353   22352   22353   22353       0   22355   22356   22357
   22356   22357   22357       0   22359   22360   22361   22360   22361   22361
       0   22363   22364   22365   22364   22365   22365       0   22367   22368
   22369   22368   22369   22369       0   22371   22372   22373   22372   22373
   22373       0   22375   22376   22377   22376   22377   22377       0   22379
   22380   22381   22380   22381   22381       0   22383   22384   22385   22384
   22385   22385       0   22387   22388   22389   22388   22389   22389       0
   22391   22392   22393   22392   22393   22393       0   22395   22396   22397
   22396   22397   22397       0   22399   22400   22401   22400   22401   22401
       0   22403   22404   22405   22404   22405   22405       0   22407   22408
   22409   22408   22409   22409       0   22411   22412   22413   22412   22413
   22413       0   22415   22416   22417   22416   22417   22417       0   22419
   22420   22421   22420   22421   22421       0   22423   22424   22425   22424
   22425   22425       0   22427   22428   22429   22428   22429   22429       0
   22431   22432   22433   22432   22433   22433       0   22435   22436   22437
   22436   22437   22437       0   22439   22440   22441   22440   22441   22441
       0   22443   22444   22445   22444   22445   22445       0   22447   22448
   22449   22448   22449   22449       0   22451   22452   22453   22452   22453
   22453       0   22455   22456   22457   22456   22457   22457       0   22459
   22460   22461   22460   22461   22461       0   22463   22464   22465   22464
   22465   22465       0   22467   22468   22469   22468   22469   22469       0
   22471   22472   22473   22472   22473   22473       0   22475   22476   22477
   22476   22477   22477       0   22479   22480   22481   22480   22481   22481
       0   22483   22484   22485   22484   22485   22485       0   22487   22488
   22489   22488   22489   22489       0   22491   22492   22493   22492   22493
   22493       0   22495   22496   22497   22496   22497   22497       0   22499
   22500   22501   22500   22501   22501       0   22503   22504   22505   22504
   22505   22505       0   22507   22508   22509   22508   22509   22509       0
   22511   22512   22513   22512   22513   22513       0   22515   22516   22517
   22516   22517   22517       0   22519   22520   22521   22520   22521   22521
       0   22523   22524   22525   22524   22525   22525       0   22527   22528
   22529   22528   22529   22529       0   22531   22532   22533   22532   22533
   22533       0   22535   22536   22537   22536   22537   22537       0   22539
   22540   22541   22540   22541   22541       0   22543   22544   22545   22544
   22545   22545       0   22547   22548   22549   22548   22549   22549       0
   22551   22552   22553   22552   22553   22553       0   22555   22556   22557
   22556   22557   22557       0   22559   22560   22561   22560   22561   22561
       0   22563   22564   22565   22564   22565   22565       0   22567   22568
   22569   22568   22569   22569       0   22571   22572   22573   22572   22573
   22573       0   22575   22576   22577   22576   22577   22577       0   22579
   22580   22581   22580   22581   22581       0   22583   22584   22585   22584
   22585   22585       0   22587   22588   22589   22588   22589   22589       0
   22591   22592   22593   22592   22593   22593       0   22595   22596   22597
   22596   22597   22597       0   22599   22600   22601   22600   22601   22601
       0   22603   22604   22605   22604   22605   22605       0   22607   22608
   22609   22608   22609   22609       0   22611   22612   22613   22612   22613
   22613       0   22615   22616   22617   22616   22617   22617       0   22619
   22620   22621   22620   22621   22621       0   22623   22624   22625   22624
   22625   22625       0   22627   22628   22629   22628   22629   22629       0
   22631   22632   22633   22632   22633   22633       0   22635   22636   22637
   22636   22637   22637       0   22639   22640   22641   22640   22641   22641
       0   22643   22644   22645   22644   22645   22645       0   22647   22648
   22649   22648   22649   22649       0   22651   22652   22653   22652   22653
   22653       0   22655   22656   22657   22656   22657   22657       0   22659
   22660   22661   22660   22661   22661       0   22663   22664   22665   22664
   22665   22665       0   22667   22668   22669   22668   22669   22669       0
   22671   22672   22673   22672   22673   22673       0   22675   22676   22677
   22676   22677   22677       0   22679   22680   22681   22680   22681   22681
       0   22683   22684   22685   22684   22685   22685       0   22687   22688
   22689   22688   22689   22689       0   22691   22692   22693   22692   22693
   22693       0   22695   22696   22697   22696   22697   22697       0   22699
   22700   22701   22700   22701   22701       0   22703   22704   22705   22704
   22705   22705       0   22707   22708   22709   22708   22709   22709       0
   22711   22712   22713   22712   22713   22713       0   22715   22716   22717
   22716   22717   22717       0   22719   22720   22721   22720   22721   22721
       0   22723   22724   22725   22724   22725   22725       0   22727   22728
   22729   22728   22729   22729       0   22731   22732   22733   22732   22733
   22733       0   22735   22736   22737   22736   22737   22737       0   22739
   22740   22741   22740   22741   22741       0   22743   22744   22745   22744
   22745   22745       0   22747   22748   22749   22748   22749   22749       0
   22751   22752   22753   22752   22753   22753       0   22755   22756   22757
   22756   22757   22757       0   22759   22760   22761   22760   22761   22761
       0   22763   22764   22765   22764   22765   22765       0   22767   22768
   22769   22768   22769   22769       0   22771   22772   22773   22772   22773
   22773       0   22775   22776   22777   22776   22777   22777       0   22779
   22780   22781   22780   22781   22781       0   22783   22784   22785   22784
   22785   22785       0   22787   22788   22789   22788   22789   22789       0
   22791   22792   22793   22792   22793   22793       0   22795   22796   22797
   22796   22797   22797       0   22799   22800   22801   22800   22801   22801
       0   22803   22804   22805   22804   22805   22805       0   22807   22808
   22809   22808   22809   22809       0   22811   22812   22813   22812   22813
   22813       0   22815   22816   22817   22816   22817   22817       0   22819
   22820   22821   22820   22821   22821       0   22823   22824   22825   22824
   22825   22825       0   22827   22828   22829   22828   22829   22829       0
   22831   22832   22833   22832   22833   22833       0   22835   22836   22837
   22836   22837   22837       0   22839   22840   22841   22840   22841   22841
       0   22843   22844   22845   22844   22845   22845       0   22847   22848
   22849   22848   22849   22849       0   22851   22852   22853   22852   22853
   22853       0   22855   22856   22857   22856   22857   22857       0   22859
   22860   22861   22860   22861   22861       0   22863   22864   22865   22864
   22865   22865       0   22867   22868   22869   22868   22869   22869       0
   22871   22872   22873   22872   22873   22873       0   22875   22876   22877
   22876   22877   22877       0   22879   22880   22881   22880   22881   22881
       0   22883   22884   22885   22884   22885   22885       0   22887   22888
   22889   22888   22889   22889       0   22891   22892   22893   22892   22893
   22893       0   22895   22896   22897   22896   22897   22897       0   22899
   22900   22901   22900   22901   22901       0   22903   22904   22905   22904
   22905   22905       0   22907   22908   22909   22908   22909   22909       0
   22911   22912   22913   22912   22913   22913       0   22915   22916   22917
   22916   22917   22917       0   22919   22920   22921   22920   22921   22921
       0   22923   22924   22925   22924   22925   22925       0   22927   22928
   22929   22928   22929   22929       0   22931   22932   22933   22932   22933
   22933       0   22935   22936   22937   22936   22937   22937       0   22939
   22940   22941   22940   22941   22941       0   22943   22944   22945   22944
   22945   22945       0   22947   22948   22949   22948   22949   22949       0
   22951   22952   22953   22952   22953   22953       0   22955   22956   22957
   22956   22957   22957       0   22959   22960   22961   22960   22961   22961
       0   22963   22964   22965   22964   22965   22965       0   22967   22968
   22969   22968   22969   22969       0   22971   22972   22973   22972   22973
   22973       0   22975   22976   22977   22976   22977   22977       0   22979
   22980   22981   22980   22981   22981       0   22983   22984   22985   22984
   22985   22985       0   22987   22988   22989   22988   22989   22989       0
   22991   22992   22993   22992   22993   22993       0   22995   22996   22997
   22996   22997   22997       0   22999   23000   23001   23000   23001   23001
       0   23003   23004   23005   23004   23005   23005       0   23007   23008
   23009   23008   23009   23009       0   23011   23012   23013   23012   23013
   23013       0   23015   23016   23017   23016   23017   23017       0   23019
   23020   23021   23020   23021   23021       0   23023   23024   23025   23024
   23025   23025       0   23027   23028   23029   23028   23029   23029       0
   23031   23032   23033   23032   23033   23033       0   23035   23036   23037
   23036   23037   23037       0   23039   23040   23041   23040   23041   23041
       0   23043   23044   23045   23044   23045   23045       0   23047   23048
   23049   23048   23049   23049       0   23051   23052   23053   23052   23053
   23053       0   23055   23056   23057   23056   23057   23057       0   23059
   23060   23061   23060   23061   23061       0   23063   23064   23065   23064
   23065   23065       0   23067   23068   23069   23068   23069   23069       0
   23071   23072   23073   23072   23073   23073       0   23075   23076   23077
   23076   23077   23077       0   23079   23080   23081   23080   23081   23081
       0   23083   23084   23085   23084   23085   23085       0   23087   23088
   23089   23088   23089   23089       0   23091   23092   23093   23092   23093
   23093       0   23095   23096   23097   23096   23097   23097       0   23099
   23100   23101   23100   23101   23101       0   23103   23104   23105   23104
   23105   23105       0   23107   23108   23109   23108   23109   23109       0
   23111   23112   23113   23112   23113   23113       0   23115   23116   23117
   23116   23117   23117       0   23119   23120   23121   23120   23121   23121
       0   23123   23124   23125   23124   23125   23125       0   23127   23128
   23129   23128   23129   23129       0   23131   23132   23133   23132   23133
   23133       0   23135   23136   23137   23136   23137   23137       0   23139
   23140   23141   23140   23141   23141       0   23143   23144   23145   23144
   23145   23145       0   23147   23148   23149   23148   23149   23149       0
   23151   23152   23153   23152   23153   23153       0   23155   23156   23157
   23156   23157   23157       0   23159   23160   23161   23160   23161   23161
       0   23163   23164   23165   23164   23165   23165       0   23167   23168
   23169   23168   23169   23169       0   23171   23172   23173   23172   23173
   23173       0   23175   23176   23177   23176   23177   23177       0   23179
   23180   23181   23180   23181   23181       0   23183   23184   23185   23184
   23185   23185       0   23187   23188   23189   23188   23189   23189       0
   23191   23192   23193   23192   23193   23193       0   23195   23196   23197
   23196   23197   23197       0   23199   23200   23201   23200   23201   23201
       0   23203   23204   23205   23204   23205   23205       0   23207   23208
   23209   23208   23209   23209       0   23211   23212   23213   23212   23213
   23213       0   23215   23216   23217   23216   23217   23217       0   23219
   23220   23221   23220   23221   23221       0   23223   23224   23225   23224
   23225   23225       0   23227   23228   23229   23228   23229   23229       0
   23231   23232   23233   23232   23233   23233       0   23235   23236   23237
   23236   23237   23237       0   23239   23240   23241   23240   23241   23241
       0   23243   23244   23245   23244   23245   23245       0   23247   23248
   23249   23248   23249   23249       0   23251   23252   23253   23252   23253
   23253       0   23255   23256   23257   23256   23257   23257       0   23259
   23260   23261   23260   23261   23261       0   23263   23264   23265   23264
   23265   23265       0   23267   23268   23269   23268   23269   23269       0
   23271   23272   23273   23272   23273   23273       0   23275   23276   23277
   23276   23277   23277       0   23279   23280   23281   23280   23281   23281
       0   23283   23284   23285   23284   23285   23285       0   23287   23288
   23289   23288   23289   23289       0   23291   23292   23293   23292   23293
   23293       0   23295   23296   23297   23296   23297   23297       0   23299
   23300   23301   23300   23301   23301       0   23303   23304   23305   23304
   23305   23305       0   23307   23308   23309   23308   23309   23309       0
   23311   23312   23313   23312   23313   23313       0   23315   23316   23317
   23316   23317   23317       0   23319   23320   23321   23320   23321   23321
       0   23323   23324   23325   23324   23325   23325       0   23327   23328
   23329   23328   23329   23329       0   23331   23332   23333   23332   23333
   23333       0   23335   23336   23337   23336   23337   23337       0   23339
   23340   23341   23340   23341   23341       0   23343   23344   23345   23344
   23345   23345       0   23347   23348   23349   23348   23349   23349       0
   23351   23352   23353   23352   23353   23353       0   23355   23356   23357
   23356   23357   23357       0   23359   23360   23361   23360   23361   23361
       0   23363   23364   23365   23364   23365   23365       0   23367   23368
   23369   23368   23369   23369       0   23371   23372   23373   23372   23373
   23373       0   23375   23376   23377   23376   23377   23377       0   23379
   23380   23381   23380   23381   23381       0   23383   23384   23385   23384
   23385   23385       0   23387   23388   23389   23388   23389   23389       0
   23391   23392   23393   23392   23393   23393       0   23395   23396   23397
   23396   23397   23397       0   23399   23400   23401   23400   23401   23401
       0   23403   23404   23405   23404   23405   23405       0   23407   23408
   23409   23408   23409   23409       0   23411   23412   23413   23412   23413
   23413       0   23415   23416   23417   23416   23417   23417       0   23419
   23420   23421   23420   23421   23421       0   23423   23424   23425   23424
   23425   23425       0   23427   23428   23429   23428   23429   23429       0
   23431   23432   23433   23432   23433   23433       0   23435   23436   23437
   23436   23437   23437       0   23439   23440   23441   23440   23441   23441
       0   23443   23444   23445   23444   23445   23445       0   23447   23448
   23449   23448   23449   23449       0   23451   23452   23453   23452   23453
   23453       0   23455   23456   23457   23456   23457   23457       0   23459
   23460   23461   23460   23461   23461       0   23463   23464   23465   23464
   23465   23465       0   23467   23468   23469   23468   23469   23469       0
   23471   23472   23473   23472   23473   23473       0   23475   23476   23477
   23476   23477   23477       0   23479   23480   23481   23480   23481   23481
       0   23483   23484   23485   23484   23485   23485       0   23487   23488
   23489   23488   23489   23489       0   23491   23492   23493   23492   23493
   23493       0   23495   23496   23497   23496   23497   23497       0   23499
   23500   23501   23500   23501   23501       0   23503   23504   23505   23504
   23505   23505       0   23507   23508   23509   23508   23509   23509       0
   23511   23512   23513   23512   23513   23513       0   23515   23516   23517
   23516   23517   23517       0   23519   23520   23521   23520   23521   23521
       0   23523   23524   23525   23524   23525   23525       0   23527   23528
   23529   23528   23529   23529       0   23531   23532   23533   23532   23533
   23533       0   23535   23536   23537   23536   23537   23537       0   23539
   23540   23541   23540   23541   23541       0   23543   23544   23545   23544
   23545   23545       0   23547   23548   23549   23548   23549   23549       0
   23551   23552   23553   23552   23553   23553       0   23555   23556   23557
   23556   23557   23557       0   23559   23560   23561   23560   23561   23561
       0   23563   23564   23565   23564   23565   23565       0   23567   23568
   23569   23568   23569   23569       0   23571   23572   23573   23572   23573
   23573       0   23575   23576   23577   23576   23577   23577       0   23579
   23580   23581   23580   23581   23581       0   23583   23584   23585   23584
   23585   23585       0   23587   23588   23589   23588   23589   23589       0
   23591   23592   23593   23592   23593   23593       0   23595   23596   23597
   23596   23597   23597       0   23599   23600   23601   23600   23601   23601
       0   23603   23604   23605   23604   23605   23605       0   23607   23608
   23609   23608   23609   23609       0   23611   23612   23613   23612   23613
   23613       0   23615   23616   23617   23616   23617   23617       0   23619
   23620   23621   23620   23621   23621       0   23623   23624   23625   23624
   23625   23625       0   23627   23628   23629   23628   23629   23629       0
   23631   23632   23633   23632   23633   23633       0   23635   23636   23637
   23636   23637   23637       0   23639   23640   23641   23640   23641   23641
       0   23643   23644   23645   23644   23645   23645       0   23647   23648
   23649   23648   23649   23649       0   23651   23652   23653   23652   23653
   23653       0   23655   23656   23657   23656   23657   23657       0   23659
   23660   23661   23660   23661   23661       0   23663   23664   23665   23664
   23665   23665       0   23667   23668   23669   23668   23669   23669       0
   23671   23672   23673   23672   23673   23673       0   23675   23676   23677
   23676   23677   23677       0   23679   23680   23681   23680   23681   23681
       0   23683   23684   23685   23684   23685   23685       0   23687   23688
   23689   23688   23689   23689       0   23691   23692   23693   23692   23693
   23693       0   23695   23696   23697   23696   23697   23697       0   23699
   23700   23701   23700   23701   23701       0   23703   23704   23705   23704
   23705   23705       0   23707   23708   23709   23708   23709   23709       0
   23711   23712   23713   23712   23713   23713       0   23715   23716   23717
   23716   23717   23717       0   23719   23720   23721   23720   23721   23721
       0   23723   23724   23725   23724   23725   23725       0   23727   23728
   23729   23728   23729   23729       0   23731   23732   23733   23732   23733
   23733       0   23735   23736   23737   23736   23737   23737       0   23739
   23740   23741   23740   23741   23741       0   23743   23744   23745   23744
   23745   23745       0   23747   23748   23749   23748   23749   23749       0
   23751   23752   23753   23752   23753   23753       0   23755   23756   23757
   23756   23757   23757       0   23759   23760   23761   23760   23761   23761
       0   23763   23764   23765   23764   23765   23765       0   23767   23768
   23769   23768   23769   23769       0   23771   23772   23773   23772   23773
   23773       0   23775   23776   23777   23776   23777   23777       0   23779
   23780   23781   23780   23781   23781       0   23783   23784   23785   23784
   23785   23785       0   23787   23788   23789   23788   23789   23789       0
   23791   23792   23793   23792   23793   23793       0   23795   23796   23797
   23796   23797   23797       0   23799   23800   23801   23800   23801   23801
       0   23803   23804   23805   23804   23805   23805       0   23807   23808
   23809   23808   23809   23809       0   23811   23812   23813   23812   23813
   23813       0   23815   23816   23817   23816   23817   23817       0   23819
   23820   23821   23820   23821   23821       0   23823   23824   23825   23824
   23825   23825       0   23827   23828   23829   23828   23829   23829       0
   23831   23832   23833   23832   23833   23833       0   23835   23836   23837
   23836   23837   23837       0   23839   23840   23841   23840   23841   23841
       0   23843   23844   23845   23844   23845   23845       0   23847   23848
   23849   23848   23849   23849       0   23851   23852   23853   23852   23853
   23853       0   23855   23856   23857   23856   23857   23857       0   23859
   23860   23861   23860   23861   23861       0   23863   23864   23865   23864
   23865   23865       0   23867   23868   23869   23868   23869   23869       0
   23871   23872   23873   23872   23873   23873       0   23875   23876   23877
   23876   23877   23877       0   23879   23880   23881   23880   23881   23881
       0   23883   23884   23885   23884   23885   23885       0   23887   23888
   23889   23888   23889   23889       0   23891   23892   23893   23892   23893
   23893       0   23895   23896   23897   23896   23897   23897       0   23899
   23900   23901   23900   23901   23901       0   23903   23904   23905   23904
   23905   23905       0   23907   23908   23909   23908   23909   23909       0
   23911   23912   23913   23912   23913   23913       0   23915   23916   23917
   23916   23917   23917       0   23919   23920   23921   23920   23921   23921
       0   23923   23924   23925   23924   23925   23925       0   23927   23928
   23929   23928   23929   23929       0   23931   23932   23933   23932   23933
   23933       0   23935   23936   23937   23936   23937   23937       0   23939
   23940   23941   23940   23941   23941       0   23943   23944   23945   23944
   23945   23945       0   23947   23948   23949   23948   23949   23949       0
   23951   23952   23953   23952   23953   23953       0   23955   23956   23957
   23956   23957   23957       0   23959   23960   23961   23960   23961   23961
       0   23963   23964   23965   23964   23965   23965       0   23967   23968
   23969   23968   23969   23969       0   23971   23972   23973   23972   23973
   23973       0   23975   23976   23977   23976   23977   23977       0   23979
   23980   23981   23980   23981   23981       0   23983   23984   23985   23984
   23985   23985       0   23987   23988   23989   23988   23989   23989       0
   23991   23992   23993   23992   23993   23993       0   23995   23996   23997
   23996   23997   23997       0   23999   24000   24001   24000   24001   24001
       0   24003   24004   24005   24004   24005   24005       0   24007   24008
   24009   24008   24009   24009       0   24011   24012   24013   24012   24013
   24013       0   24015   24016   24017   24016   24017   24017       0   24019
   24020   24021   24020   24021   24021       0   24023   24024   24025   24024
   24025   24025       0   24027   24028   24029   24028   24029   24029       0
   24031   24032   24033   24032   24033   24033       0   24035   24036   24037
   24036   24037   24037       0   24039   24040   24041   24040   24041   24041
       0   24043   24044   24045   24044   24045   24045       0   24047   24048
   24049   24048   24049   24049       0   24051   24052   24053   24052   24053
   24053       0   24055   24056   24057   24056   24057   24057       0   24059
   24060   24061   24060   24061   24061       0   24063   24064   24065   24064
   24065   24065       0   24067   24068   24069   24068   24069   24069       0
   24071   24072   24073   24072   24073   24073       0   24075   24076   24077
   24076   24077   24077       0   24079   24080   24081   24080   24081   24081
       0   24083   24084   24085   24084   24085   24085       0   24087   24088
   24089   24088   24089   24089       0   24091   24092   24093   24092   24093
   24093       0   24095   24096   24097   24096   24097   24097       0   24099
   24100   24101   24100   24101   24101       0   24103   24104   24105   24104
   24105   24105       0   24107   24108   24109   24108   24109   24109       0
   24111   24112   24113   24112   24113   24113       0   24115   24116   24117
   24116   24117   24117       0   24119   24120   24121   24120   24121   24121
       0   24123   24124   24125   24124   24125   24125       0   24127   24128
   24129   24128   24129   24129       0   24131   24132   24133   24132   24133
   24133       0   24135   24136   24137   24136   24137   24137       0   24139
   24140   24141   24140   24141   24141       0   24143   24144   24145   24144
   24145   24145       0   24147   24148   24149   24148   24149   24149       0
   24151   24152   24153   24152   24153   24153       0   24155   24156   24157
   24156   24157   24157       0   24159   24160   24161   24160   24161   24161
       0   24163   24164   24165   24164   24165   24165       0   24167   24168
   24169   24168   24169   24169       0   24171   24172   24173   24172   24173
   24173       0   24175   24176   24177   24176   24177   24177       0   24179
   24180   24181   24180   24181   24181       0   24183   24184   24185   24184
   24185   24185       0   24187   24188   24189   24188   24189   24189       0
   24191   24192   24193   24192   24193   24193       0   24195   24196   24197
   24196   24197   24197       0   24199   24200   24201   24200   24201   24201
       0   24203   24204   24205   24204   24205   24205       0   24207   24208
   24209   24208   24209   24209       0   24211   24212   24213   24212   24213
   24213       0   24215   24216   24217   24216   24217   24217       0   24219
   24220   24221   24220   24221   24221       0   24223   24224   24225   24224
   24225   24225       0   24227   24228   24229   24228   24229   24229       0
   24231   24232   24233   24232   24233   24233       0   24235   24236   24237
   24236   24237   24237       0   24239   24240   24241   24240   24241   24241
       0   24243   24244   24245   24244   24245   24245       0   24247   24248
   24249   24248   24249   24249       0   24251   24252   24253   24252   24253
   24253       0   24255   24256   24257   24256   24257   24257       0   24259
   24260   24261   24260   24261   24261       0   24263   24264   24265   24264
   24265   24265       0   24267   24268   24269   24268   24269   24269       0
   24271   24272   24273   24272   24273   24273       0   24275   24276   24277
   24276   24277   24277       0   24279   24280   24281   24280   24281   24281
       0   24283   24284   24285   24284   24285   24285       0   24287   24288
   24289   24288   24289   24289       0   24291   24292   24293   24292   24293
   24293       0   24295   24296   24297   24296   24297   24297       0   24299
   24300   24301   24300   24301   24301       0   24303   24304   24305   24304
   24305   24305       0   24307   24308   24309   24308   24309   24309       0
   24311   24312   24313   24312   24313   24313       0   24315   24316   24317
   24316   24317   24317       0   24319   24320   24321   24320   24321   24321
       0   24323   24324   24325   24324   24325   24325       0   24327   24328
   24329   24328   24329   24329       0   24331   24332   24333   24332   24333
   24333       0   24335   24336   24337   24336   24337   24337       0   24339
   24340   24341   24340   24341   24341       0   24343   24344   24345   24344
   24345   24345       0   24347   24348   24349   24348   24349   24349       0
   24351   24352   24353   24352   24353   24353       0   24355   24356   24357
   24356   24357   24357       0   24359   24360   24361   24360   24361   24361
       0   24363   24364   24365   24364   24365   24365       0   24367   24368
   24369   24368   24369   24369       0   24371   24372   24373   24372   24373
   24373       0   24375   24376   24377   24376   24377   24377       0   24379
   24380   24381   24380   24381   24381       0   24383   24384   24385   24384
   24385   24385       0   24387   24388   24389   24388   24389   24389       0
   24391   24392   24393   24392   24393   24393       0   24395   24396   24397
   24396   24397   24397       0   24399   24400   24401   24400   24401   24401
       0   24403   24404   24405   24404   24405   24405       0   24407   24408
   24409   24408   24409   24409       0   24411   24412   24413   24412   24413
   24413       0   24415   24416   24417   24416   24417   24417       0   24419
   24420   24421   24420   24421   24421       0   24423   24424   24425   24424
   24425   24425       0   24427   24428   24429   24428   24429   24429       0
   24431   24432   24433   24432   24433   24433       0   24435   24436   24437
   24436   24437   24437       0   24439   24440   24441   24440   24441   24441
       0   24443   24444   24445   24444   24445   24445       0   24447   24448
   24449   24448   24449   24449       0   24451   24452   24453   24452   24453
   24453       0   24455   24456   24457   24456   24457   24457       0   24459
   24460   24461   24460   24461   24461       0   24463   24464   24465   24464
   24465   24465       0   24467   24468   24469   24468   24469   24469       0
   24471   24472   24473   24472   24473   24473       0   24475   24476   24477
   24476   24477   24477       0   24479   24480   24481   24480   24481   24481
       0   24483   24484   24485   24484   24485   24485       0   24487   24488
   24489   24488   24489   24489       0   24491   24492   24493   24492   24493
   24493       0   24495   24496   24497   24496   24497   24497       0   24499
   24500   24501   24500   24501   24501       0   24503   24504   24505   24504
   24505   24505       0   24507   24508   24509   24508   24509   24509       0
   24511   24512   24513   24512   24513   24513       0   24515   24516   24517
   24516   24517   24517       0   24519   24520   24521   24520   24521   24521
       0   24523   24524   24525   24524   24525   24525       0   24527   24528
   24529   24528   24529   24529       0   24531   24532   24533   24532   24533
   24533       0   24535   24536   24537   24536   24537   24537       0   24539
   24540   24541   24540   24541   24541       0   24543   24544   24545   24544
   24545   24545       0   24547   24548   24549   24548   24549   24549       0
   24551   24552   24553   24552   24553   24553       0   24555   24556   24557
   24556   24557   24557       0   24559   24560   24561   24560   24561   24561
       0   24563   24564   24565   24564   24565   24565       0   24567   24568
   24569   24568   24569   24569       0   24571   24572   24573   24572   24573
   24573       0   24575   24576   24577   24576   24577   24577       0   24579
   24580   24581   24580   24581   24581       0   24583   24584   24585   24584
   24585   24585       0   24587   24588   24589   24588   24589   24589       0
   24591   24592   24593   24592   24593   24593       0   24595   24596   24597
   24596   24597   24597       0   24599   24600   24601   24600   24601   24601
       0   24603   24604   24605   24604   24605   24605       0   24607   24608
   24609   24608   24609   24609       0   24611   24612   24613   24612   24613
   24613       0   24615   24616   24617   24616   24617   24617       0   24619
   24620   24621   24620   24621   24621       0   24623   24624   24625   24624
   24625   24625       0   24627   24628   24629   24628   24629   24629       0
   24631   24632   24633   24632   24633   24633       0   24635   24636   24637
   24636   24637   24637       0   24639   24640   24641   24640   24641   24641
       0   24643   24644   24645   24644   24645   24645       0   24647   24648
   24649   24648   24649   24649       0   24651   24652   24653   24652   24653
   24653       0   24655   24656   24657   24656   24657   24657       0   24659
   24660   24661   24660   24661   24661       0   24663   24664   24665   24664
   24665   24665       0   24667   24668   24669   24668   24669   24669       0
   24671   24672   24673   24672   24673   24673       0   24675   24676   24677
   24676   24677   24677       0   24679   24680   24681   24680   24681   24681
       0   24683   24684   24685   24684   24685   24685       0   24687   24688
   24689   24688   24689   24689       0   24691   24692   24693   24692   24693
   24693       0   24695   24696   24697   24696   24697   24697       0   24699
   24700   24701   24700   24701   24701       0   24703   24704   24705   24704
   24705   24705       0   24707   24708   24709   24708   24709   24709       0
   24711   24712   24713   24712   24713   24713       0   24715   24716   24717
   24716   24717   24717       0   24719   24720   24721   24720   24721   24721
       0   24723   24724   24725   24724   24725   24725       0   24727   24728
   24729   24728   24729   24729       0   24731   24732   24733   24732   24733
   24733       0   24735   24736   24737   24736   24737   24737       0   24739
   24740   24741   24740   24741   24741       0   24743   24744   24745   24744
   24745   24745       0   24747   24748   24749   24748   24749   24749       0
   24751   24752   24753   24752   24753   24753       0   24755   24756   24757
   24756   24757   24757       0   24759   24760   24761   24760   24761   24761
       0   24763   24764   24765   24764   24765   24765       0   24767   24768
   24769   24768   24769   24769       0   24771   24772   24773   24772   24773
   24773       0   24775   24776   24777   24776   24777   24777       0   24779
   24780   24781   24780   24781   24781       0   24783   24784   24785   24784
   24785   24785       0   24787   24788   24789   24788   24789   24789       0
   24791   24792   24793   24792   24793   24793       0   24795   24796   24797
   24796   24797   24797       0   24799   24800   24801   24800   24801   24801
       0   24803   24804   24805   24804   24805   24805       0   24807   24808
   24809   24808   24809   24809       0   24811   24812   24813   24812   24813
   24813       0   24815   24816   24817   24816   24817   24817       0   24819
   24820   24821   24820   24821   24821       0   24823   24824   24825   24824
   24825   24825       0   24827   24828   24829   24828   24829   24829       0
   24831   24832   24833   24832   24833   24833       0   24835   24836   24837
   24836   24837   24837       0   24839   24840   24841   24840   24841   24841
       0   24843   24844   24845   24844   24845   24845       0   24847   24848
   24849   24848   24849   24849       0   24851   24852   24853   24852   24853
   24853       0   24855   24856   24857   24856   24857   24857       0   24859
   24860   24861   24860   24861   24861       0   24863   24864   24865   24864
   24865   24865       0   24867   24868   24869   24868   24869   24869       0
   24871   24872   24873   24872   24873   24873       0   24875   24876   24877
   24876   24877   24877       0   24879   24880   24881   24880   24881   24881
       0   24883   24884   24885   24884   24885   24885       0   24887   24888
   24889   24888   24889   24889       0   24891   24892   24893   24892   24893
   24893       0   24895   24896   24897   24896   24897   24897       0   24899
   24900   24901   24900   24901   24901       0   24903   24904   24905   24904
   24905   24905       0   24907   24908   24909   24908   24909   24909       0
   24911   24912   24913   24912   24913   24913       0   24915   24916   24917
   24916   24917   24917       0   24919   24920   24921   24920   24921   24921
       0   24923   24924   24925   24924   24925   24925       0   24927   24928
   24929   24928   24929   24929       0   24931   24932   24933   24932   24933
   24933       0   24935   24936   24937   24936   24937   24937       0   24939
   24940   24941   24940   24941   24941       0   24943   24944   24945   24944
   24945   24945       0   24947   24948   24949   24948   24949   24949       0
   24951   24952   24953   24952   24953   24953       0   24955   24956   24957
   24956   24957   24957       0   24959   24960   24961   24960   24961   24961
       0   24963   24964   24965   24964   24965   24965       0   24967   24968
   24969   24968   24969   24969       0   24971   24972   24973   24972   24973
   24973       0   24975   24976   24977   24976   24977   24977       0   24979
   24980   24981   24980   24981   24981       0   24983   24984   24985   24984
   24985   24985       0   24987   24988   24989   24988   24989   24989       0
   24991   24992   24993   24992   24993   24993       0   24995   24996   24997
   24996   24997   24997       0   24999   25000   25001   25000   25001   25001
       0   25003   25004   25005   25004   25005   25005       0   25007   25008
   25009   25008   25009   25009       0   25011   25012   25013   25012   25013
   25013       0   25015   25016   25017   25016   25017   25017       0   25019
   25020   25021   25020   25021   25021       0   25023   25024   25025   25024
   25025   25025       0   25027   25028   25029   25028   25029   25029       0
   25031   25032   25033   25032   25033   25033       0   25035   25036   25037
   25036   25037   25037       0   25039   25040   25041   25040   25041   25041
       0   25043   25044   25045   25044   25045   25045       0   25047   25048
   25049   25048   25049   25049       0   25051   25052   25053   25052   25053
   25053       0   25055   25056   25057   25056   25057   25057       0   25059
   25060   25061   25060   25061   25061       0   25063   25064   25065   25064
   25065   25065       0   25067   25068   25069   25068   25069   25069       0
   25071   25072   25073   25072   25073   25073       0   25075   25076   25077
   25076   25077   25077       0   25079   25080   25081   25080   25081   25081
       0   25083   25084   25085   25084   25085   25085       0   25087   25088
   25089   25088   25089   25089       0   25091   25092   25093   25092   25093
   25093       0   25095   25096   25097   25096   25097   25097       0   25099
   25100   25101   25100   25101   25101       0   25103   25104   25105   25104
   25105   25105       0   25107   25108   25109   25108   25109   25109       0
   25111   25112   25113   25112   25113   25113       0   25115   25116   25117
   25116   25117   25117       0   25119   25120   25121   25120   25121   25121
       0   25123   25124   25125   25124   25125   25125       0   25127   25128
   25129   25128   25129   25129       0   25131   25132   25133   25132   25133
   25133       0   25135   25136   25137   25136   25137   25137       0   25139
   25140   25141   25140   25141   25141       0   25143   25144   25145   25144
   25145   25145       0   25147   25148   25149   25148   25149   25149       0
   25151   25152   25153   25152   25153   25153       0   25155   25156   25157
   25156   25157   25157       0   25159   25160   25161   25160   25161   25161
       0   25163   25164   25165   25164   25165   25165       0   25167   25168
   25169   25168   25169   25169       0   25171   25172   25173   25172   25173
   25173       0   25175   25176   25177   25176   25177   25177       0   25179
   25180   25181   25180   25181   25181       0   25183   25184   25185   25184
   25185   25185       0   25187   25188   25189   25188   25189   25189       0
   25191   25192   25193   25192   25193   25193       0   25195   25196   25197
   25196   25197   25197       0   25199   25200   25201   25200   25201   25201
       0   25203   25204   25205   25204   25205   25205       0   25207   25208
   25209   25208   25209   25209       0   25211   25212   25213   25212   25213
   25213       0   25215   25216   25217   25216   25217   25217       0   25219
   25220   25221   25220   25221   25221       0   25223   25224   25225   25224
   25225   25225       0   25227   25228   25229   25228   25229   25229       0
   25231   25232   25233   25232   25233   25233       0   25235   25236   25237
   25236   25237   25237       0   25239   25240   25241   25240   25241   25241
       0   25243   25244   25245   25244   25245   25245       0   25247   25248
   25249   25248   25249   25249       0   25251   25252   25253   25252   25253
   25253       0   25255   25256   25257   25256   25257   25257       0   25259
   25260   25261   25260   25261   25261       0   25263   25264   25265   25264
   25265   25265       0   25267   25268   25269   25268   25269   25269       0
   25271   25272   25273   25272   25273   25273       0   25275   25276   25277
   25276   25277   25277       0   25279   25280   25281   25280   25281   25281
       0   25283   25284   25285   25284   25285   25285       0   25287   25288
   25289   25288   25289   25289       0   25291   25292   25293   25292   25293
   25293       0   25295   25296   25297   25296   25297   25297       0   25299
   25300   25301   25300   25301   25301       0   25303   25304   25305   25304
   25305   25305       0   25307   25308   25309   25308   25309   25309       0
   25311   25312   25313   25312   25313   25313       0   25315   25316   25317
   25316   25317   25317       0   25319   25320   25321   25320   25321   25321
       0   25323   25324   25325   25324   25325   25325       0   25327   25328
   25329   25328   25329   25329       0   25331   25332   25333   25332   25333
   25333       0   25335   25336   25337   25336   25337   25337       0   25339
   25340   25341   25340   25341   25341       0   25343   25344   25345   25344
   25345   25345       0   25347   25348   25349   25348   25349   25349       0
   25351   25352   25353   25352   25353   25353       0   25355   25356   25357
   25356   25357   25357       0   25359   25360   25361   25360   25361   25361
       0   25363   25364   25365   25364   25365   25365       0   25367   25368
   25369   25368   25369   25369       0   25371   25372   25373   25372   25373
   25373       0   25375   25376   25377   25376   25377   25377       0   25379
   25380   25381   25380   25381   25381       0   25383   25384   25385   25384
   25385   25385       0   25387   25388   25389   25388   25389   25389       0
   25391   25392   25393   25392   25393   25393       0   25395   25396   25397
   25396   25397   25397       0   25399   25400   25401   25400   25401   25401
       0   25403   25404   25405   25404   25405   25405       0   25407   25408
   25409   25408   25409   25409       0   25411   25412   25413   25412   25413
   25413       0   25415   25416   25417   25416   25417   25417       0   25419
   25420   25421   25420   25421   25421       0   25423   25424   25425   25424
   25425   25425       0   25427   25428   25429   25428   25429   25429       0
   25431   25432   25433   25432   25433   25433       0   25435   25436   25437
   25436   25437   25437       0   25439   25440   25441   25440   25441   25441
       0   25443   25444   25445   25444   25445   25445       0   25447   25448
   25449   25448   25449   25449       0   25451   25452   25453   25452   25453
   25453       0   25455   25456   25457   25456   25457   25457       0   25459
   25460   25461   25460   25461   25461       0   25463   25464   25465   25464
   25465   25465       0   25467   25468   25469   25468   25469   25469       0
   25471   25472   25473   25472   25473   25473       0   25475   25476   25477
   25476   25477   25477       0   25479   25480   25481   25480   25481   25481
       0   25483   25484   25485   25484   25485   25485       0   25487   25488
   25489   25488   25489   25489       0   25491   25492   25493   25492   25493
   25493       0   25495   25496   25497   25496   25497   25497       0   25499
   25500   25501   25500   25501   25501       0   25503   25504   25505   25504
   25505   25505       0   25507   25508   25509   25508   25509   25509       0
   25511   25512   25513   25512   25513   25513       0   25515   25516   25517
   25516   25517   25517       0   25519   25520   25521   25520   25521   25521
       0   25523   25524   25525   25524   25525   25525       0   25527   25528
   25529   25528   25529   25529       0   25531   25532   25533   25532   25533
   25533       0   25535   25536   25537   25536   25537   25537       0   25539
   25540   25541   25540   25541   25541       0   25543   25544   25545   25544
   25545   25545       0   25547   25548   25549   25548   25549   25549       0
   25551   25552   25553   25552   25553   25553       0   25555   25556   25557
   25556   25557   25557       0   25559   25560   25561   25560   25561   25561
       0   25563   25564   25565   25564   25565   25565       0   25567   25568
   25569   25568   25569   25569       0   25571   25572   25573   25572   25573
   25573       0   25575   25576   25577   25576   25577   25577       0   25579
   25580   25581   25580   25581   25581       0   25583   25584   25585   25584
   25585   25585       0   25587   25588   25589   25588   25589   25589       0
   25591   25592   25593   25592   25593   25593       0   25595   25596   25597
   25596   25597   25597       0   25599   25600   25601   25600   25601   25601
       0   25603   25604   25605   25604   25605   25605       0   25607   25608
   25609   25608   25609   25609       0   25611   25612   25613   25612   25613
   25613       0   25615   25616   25617   25616   25617   25617       0   25619
   25620   25621   25620   25621   25621       0   25623   25624   25625   25624
   25625   25625       0   25627   25628   25629   25628   25629   25629       0
   25631   25632   25633   25632   25633   25633       0   25635   25636   25637
   25636   25637   25637       0   25639   25640   25641   25640   25641   25641
       0   25643   25644   25645   25644   25645   25645       0   25647   25648
   25649   25648   25649   25649       0   25651   25652   25653   25652   25653
   25653       0   25655   25656   25657   25656   25657   25657       0   25659
   25660   25661   25660   25661   25661       0   25663   25664   25665   25664
   25665   25665       0   25667   25668   25669   25668   25669   25669       0
   25671   25672   25673   25672   25673   25673       0   25675   25676   25677
   25676   25677   25677       0   25679   25680   25681   25680   25681   25681
       0   25683   25684   25685   25684   25685   25685       0   25687   25688
   25689   25688   25689   25689       0   25691   25692   25693   25692   25693
   25693       0   25695   25696   25697   25696   25697   25697       0   25699
   25700   25701   25700   25701   25701       0   25703   25704   25705   25704
   25705   25705       0   25707   25708   25709   25708   25709   25709       0
   25711   25712   25713   25712   25713   25713       0   25715   25716   25717
   25716   25717   25717       0   25719   25720   25721   25720   25721   25721
       0   25723   25724   25725   25724   25725   25725       0   25727   25728
   25729   25728   25729   25729       0   25731   25732   25733   25732   25733
   25733       0   25735   25736   25737   25736   25737   25737       0   25739
   25740   25741   25740   25741   25741       0   25743   25744   25745   25744
   25745   25745       0   25747   25748   25749   25748   25749   25749       0
   25751   25752   25753   25752   25753   25753       0   25755   25756   25757
   25756   25757   25757       0   25759   25760   25761   25760   25761   25761
       0   25763   25764   25765   25764   25765   25765       0   25767   25768
   25769   25768   25769   25769       0   25771   25772   25773   25772   25773
   25773       0   25775   25776   25777   25776   25777   25777       0   25779
   25780   25781   25780   25781   25781       0   25783   25784   25785   25784
   25785   25785       0   25787   25788   25789   25788   25789   25789       0
   25791   25792   25793   25792   25793   25793       0   25795   25796   25797
   25796   25797   25797       0   25799   25800   25801   25800   25801   25801
       0   25803   25804   25805   25804   25805   25805       0   25807   25808
   25809   25808   25809   25809       0   25811   25812   25813   25812   25813
   25813       0   25815   25816   25817   25816   25817   25817       0   25819
   25820   25821   25820   25821   25821       0   25823   25824   25825   25824
   25825   25825       0   25827   25828   25829   25828   25829   25829       0
   25831   25832   25833   25832   25833   25833       0   25835   25836   25837
   25836   25837   25837       0   25839   25840   25841   25840   25841   25841
       0   25843   25844   25845   25844   25845   25845       0   25847   25848
   25849   25848   25849   25849       0   25851   25852   25853   25852   25853
   25853       0   25855   25856   25857   25856   25857   25857       0   25859
   25860   25861   25860   25861   25861       0   25863   25864   25865   25864
   25865   25865       0   25867   25868   25869   25868   25869   25869       0
   25871   25872   25873   25872   25873   25873       0   25875   25876   25877
   25876   25877   25877       0   25879   25880   25881   25880   25881   25881
       0   25883   25884   25885   25884   25885   25885       0   25887   25888
   25889   25888   25889   25889       0   25891   25892   25893   25892   25893
   25893       0   25895   25896   25897   25896   25897   25897       0   25899
   25900   25901   25900   25901   25901       0   25903   25904   25905   25904
   25905   25905       0   25907   25908   25909   25908   25909   25909       0
   25911   25912   25913   25912   25913   25913       0   25915   25916   25917
   25916   25917   25917       0   25919   25920   25921   25920   25921   25921
       0   25923   25924   25925   25924   25925   25925       0   25927   25928
   25929   25928   25929   25929       0   25931   25932   25933   25932   25933
   25933       0   25935   25936   25937   25936   25937   25937       0   25939
   25940   25941   25940   25941   25941       0   25943   25944   25945   25944
   25945   25945       0   25947   25948   25949   25948   25949   25949       0
   25951   25952   25953   25952   25953   25953       0   25955   25956   25957
   25956   25957   25957       0   25959   25960   25961   25960   25961   25961
       0   25963   25964   25965   25964   25965   25965       0   25967   25968
   25969   25968   25969   25969       0   25971   25972   25973   25972   25973
   25973       0   25975   25976   25977   25976   25977   25977       0   25979
   25980   25981   25980   25981   25981       0   25983   25984   25985   25984
   25985   25985       0   25987   25988   25989   25988   25989   25989       0
   25991   25992   25993   25992   25993   25993       0   25995   25996   25997
   25996   25997   25997       0   25999   26000   26001   26000   26001   26001
       0   26003   26004   26005   26004   26005   26005       0   26007   26008
   26009   26008   26009   26009       0   26011   26012   26013   26012   26013
   26013       0   26015   26016   26017   26016   26017   26017       0   26019
   26020   26021   26020   26021   26021       0   26023   26024   26025   26024
   26025   26025       0   26027   26028   26029   26028   26029   26029       0
   26031   26032   26033   26032   26033   26033       0   26035   26036   26037
   26036   26037   26037       0   26039   26040   26041   26040   26041   26041
       0   26043   26044   26045   26044   26045   26045       0   26047   26048
   26049   26048   26049   26049       0   26051   26052   26053   26052   26053
   26053       0   26055   26056   26057   26056   26057   26057       0   26059
   26060   26061   26060   26061   26061       0   26063   26064   26065   26064
   26065   26065       0   26067   26068   26069   26068   26069   26069       0
   26071   26072   26073   26072   26073   26073       0   26075   26076   26077
   26076   26077   26077       0   26079   26080   26081   26080   26081   26081
       0   26083   26084   26085   26084   26085   26085       0   26087   26088
   26089   26088   26089   26089       0   26091   26092   26093   26092   26093
   26093       0   26095   26096   26097   26096   26097   26097       0   26099
   26100   26101   26100   26101   26101       0   26103   26104   26105   26104
   26105   26105       0   26107   26108   26109   26108   26109   26109       0
   26111   26112   26113   26112   26113   26113       0   26115   26116   26117
   26116   26117   26117       0   26119   26120   26121   26120   26121   26121
       0   26123   26124   26125   26124   26125   26125       0   26127   26128
   26129   26128   26129   26129       0   26131   26132   26133   26132   26133
   26133       0   26135   26136   26137   26136   26137   26137       0   26139
   26140   26141   26140   26141   26141       0   26143   26144   26145   26144
   26145   26145       0   26147   26148   26149   26148   26149   26149       0
   26151   26152   26153   26152   26153   26153       0   26155   26156   26157
   26156   26157   26157       0   26159   26160   26161   26160   26161   26161
       0   26163   26164   26165   26164   26165   26165       0   26167   26168
   26169   26168   26169   26169       0   26171   26172   26173   26172   26173
   26173       0   26175   26176   26177   26176   26177   26177       0   26179
   26180   26181   26180   26181   26181       0   26183   26184   26185   26184
   26185   26185       0   26187   26188   26189   26188   26189   26189       0
   26191   26192   26193   26192   26193   26193       0   26195   26196   26197
   26196   26197   26197       0   26199   26200   26201   26200   26201   26201
       0   26203   26204   26205   26204   26205   26205       0   26207   26208
   26209   26208   26209   26209       0   26211   26212   26213   26212   26213
   26213       0   26215   26216   26217   26216   26217   26217       0   26219
   26220   26221   26220   26221   26221       0   26223   26224   26225   26224
   26225   26225       0   26227   26228   26229   26228   26229   26229       0
   26231   26232   26233   26232   26233   26233       0   26235   26236   26237
   26236   26237   26237       0   26239   26240   26241   26240   26241   26241
       0   26243   26244   26245   26244   26245   26245       0   26247   26248
   26249   26248   26249   26249       0   26251   26252   26253   26252   26253
   26253       0   26255   26256   26257   26256   26257   26257       0   26259
   26260   26261   26260   26261   26261       0   26263   26264   26265   26264
   26265   26265       0   26267   26268   26269   26268   26269   26269       0
   26271   26272   26273   26272   26273   26273       0   26275   26276   26277
   26276   26277   26277       0   26279   26280   26281   26280   26281   26281
       0   26283   26284   26285   26284   26285   26285       0   26287   26288
   26289   26288   26289   26289       0   26291   26292   26293   26292   26293
   26293       0   26295   26296   26297   26296   26297   26297       0   26299
   26300   26301   26300   26301   26301       0   26303   26304   26305   26304
   26305   26305       0   26307   26308   26309   26308   26309   26309       0
   26311   26312   26313   26312   26313   26313       0   26315   26316   26317
   26316   26317   26317       0   26319   26320   26321   26320   26321   26321
       0   26323   26324   26325   26324   26325   26325       0   26327   26328
   26329   26328   26329   26329       0   26331   26332   26333   26332   26333
   26333       0   26335   26336   26337   26336   26337   26337       0   26339
   26340   26341   26340   26341   26341       0   26343   26344   26345   26344
   26345   26345       0   26347   26348   26349   26348   26349   26349       0
   26351   26352   26353   26352   26353   26353       0   26355   26356   26357
   26356   26357   26357       0   26359   26360   26361   26360   26361   26361
       0   26363   26364   26365   26364   26365   26365       0   26367   26368
   26369   26368   26369   26369       0   26371   26372   26373   26372   26373
   26373       0   26375   26376   26377   26376   26377   26377       0   26379
   26380   26381   26380   26381   26381       0   26383   26384   26385   26384
   26385   26385       0   26387   26388   26389   26388   26389   26389       0
   26391   26392   26393   26392   26393   26393       0   26395   26396   26397
   26396   26397   26397       0   26399   26400   26401   26400   26401   26401
       0   26403   26404   26405   26404   26405   26405       0   26407   26408
   26409   26408   26409   26409       0   26411   26412   26413   26412   26413
   26413       0   26415   26416   26417   26416   26417   26417       0   26419
   26420   26421   26420   26421   26421       0   26423   26424   26425   26424
   26425   26425       0   26427   26428   26429   26428   26429   26429       0
   26431   26432   26433   26432   26433   26433       0   26435   26436   26437
   26436   26437   26437       0   26439   26440   26441   26440   26441   26441
       0   26443   26444   26445   26444   26445   26445       0   26447   26448
   26449   26448   26449   26449       0   26451   26452   26453   26452   26453
   26453       0   26455   26456   26457   26456   26457   26457       0   26459
   26460   26461   26460   26461   26461       0   26463   26464   26465   26464
   26465   26465       0   26467   26468   26469   26468   26469   26469       0
   26471   26472   26473   26472   26473   26473       0   26475   26476   26477
   26476   26477   26477       0   26479   26480   26481   26480   26481   26481
       0   26483   26484   26485   26484   26485   26485       0   26487   26488
   26489   26488   26489   26489       0   26491   26492   26493   26492   26493
   26493       0   26495   26496   26497   26496   26497   26497       0   26499
   26500   26501   26500   26501   26501       0   26503   26504   26505   26504
   26505   26505       0   26507   26508   26509   26508   26509   26509       0
   26511   26512   26513   26512   26513   26513       0   26515   26516   26517
   26516   26517   26517       0   26519   26520   26521   26520   26521   26521
       0   26523   26524   26525   26524   26525   26525       0   26527   26528
   26529   26528   26529   26529       0   26531   26532   26533   26532   26533
   26533       0   26535   26536   26537   26536   26537   26537       0   26539
   26540   26541   26540   26541   26541       0   26543   26544   26545   26544
   26545   26545       0   26547   26548   26549   26548   26549   26549       0
   26551   26552   26553   26552   26553   26553       0   26555   26556   26557
   26556   26557   26557       0   26559   26560   26561   26560   26561   26561
       0   26563   26564   26565   26564   26565   26565       0   26567   26568
   26569   26568   26569   26569       0   26571   26572   26573   26572   26573
   26573       0   26575   26576   26577   26576   26577   26577       0   26579
   26580   26581   26580   26581   26581       0   26583   26584   26585   26584
   26585   26585       0   26587   26588   26589   26588   26589   26589       0
   26591   26592   26593   26592   26593   26593       0   26595   26596   26597
   26596   26597   26597       0   26599   26600   26601   26600   26601   26601
       0   26603   26604   26605   26604   26605   26605       0   26607   26608
   26609   26608   26609   26609       0   26611   26612   26613   26612   26613
   26613       0   26615   26616   26617   26616   26617   26617       0   26619
   26620   26621   26620   26621   26621       0   26623   26624   26625   26624
   26625   26625       0   26627   26628   26629   26628   26629   26629       0
   26631   26632   26633   26632   26633   26633       0   26635   26636   26637
   26636   26637   26637       0   26639   26640   26641   26640   26641   26641
       0   26643   26644   26645   26644   26645   26645       0   26647   26648
   26649   26648   26649   26649       0   26651   26652   26653   26652   26653
   26653       0   26655   26656   26657   26656   26657   26657       0   26659
   26660   26661   26660   26661   26661       0   26663   26664   26665   26664
   26665   26665       0   26667   26668   26669   26668   26669   26669       0
   26671   26672   26673   26672   26673   26673       0   26675   26676   26677
   26676   26677   26677       0   26679   26680   26681   26680   26681   26681
       0   26683   26684   26685   26684   26685   26685       0   26687   26688
   26689   26688   26689   26689       0   26691   26692   26693   26692   26693
   26693       0   26695   26696   26697   26696   26697   26697       0   26699
   26700   26701   26700   26701   26701       0   26703   26704   26705   26704
   26705   26705       0   26707   26708   26709   26708   26709   26709       0
   26711   26712   26713   26712   26713   26713       0   26715   26716   26717
   26716   26717   26717       0   26719   26720   26721   26720   26721   26721
       0   26723   26724   26725   26724   26725   26725       0   26727   26728
   26729   26728   26729   26729       0   26731   26732   26733   26732   26733
   26733       0   26735   26736   26737   26736   26737   26737       0   26739
   26740   26741   26740   26741   26741       0   26743   26744   26745   26744
   26745   26745       0   26747   26748   26749   26748   26749   26749       0
   26751   26752   26753   26752   26753   26753       0   26755   26756   26757
   26756   26757   26757       0   26759   26760   26761   26760   26761   26761
       0   26763   26764   26765   26764   26765   26765       0   26767   26768
   26769   26768   26769   26769       0   26771   26772   26773   26772   26773
   26773       0   26775   26776   26777   26776   26777   26777       0   26779
   26780   26781   26780   26781   26781       0   26783   26784   26785   26784
   26785   26785       0   26787   26788   26789   26788   26789   26789       0
   26791   26792   26793   26792   26793   26793       0   26795   26796   26797
   26796   26797   26797       0   26799   26800   26801   26800   26801   26801
       0   26803   26804   26805   26804   26805   26805       0   26807   26808
   26809   26808   26809   26809       0   26811   26812   26813   26812   26813
   26813       0   26815   26816   26817   26816   26817   26817       0   26819
   26820   26821   26820   26821   26821       0   26823   26824   26825   26824
   26825   26825       0   26827   26828   26829   26828   26829   26829       0
   26831   26832   26833   26832   26833   26833       0   26835   26836   26837
   26836   26837   26837       0   26839   26840   26841   26840   26841   26841
       0   26843   26844   26845   26844   26845   26845       0   26847   26848
   26849   26848   26849   26849       0   26851   26852   26853   26852   26853
   26853       0   26855   26856   26857   26856   26857   26857       0   26859
   26860   26861   26860   26861   26861       0   26863   26864   26865   26864
   26865   26865       0   26867   26868   26869   26868   26869   26869       0
   26871   26872   26873   26872   26873   26873       0   26875   26876   26877
   26876   26877   26877       0   26879   26880   26881   26880   26881   26881
       0   26883   26884   26885   26884   26885   26885       0   26887   26888
   26889   26888   26889   26889       0   26891   26892   26893   26892   26893
   26893       0   26895   26896   26897   26896   26897   26897       0   26899
   26900   26901   26900   26901   26901       0   26903   26904   26905   26904
   26905   26905       0   26907   26908   26909   26908   26909   26909       0
   26911   26912   26913   26912   26913   26913       0   26915   26916   26917
   26916   26917   26917       0   26919   26920   26921   26920   26921   26921
       0   26923   26924   26925   26924   26925   26925       0   26927   26928
   26929   26928   26929   26929       0   26931   26932   26933   26932   26933
   26933       0   26935   26936   26937   26936   26937   26937       0   26939
   26940   26941   26940   26941   26941       0   26943   26944   26945   26944
   26945   26945       0   26947   26948   26949   26948   26949   26949       0
   26951   26952   26953   26952   26953   26953       0   26955   26956   26957
   26956   26957   26957       0   26959   26960   26961   26960   26961   26961
       0   26963   26964   26965   26964   26965   26965       0   26967   26968
   26969   26968   26969   26969       0   26971   26972   26973   26972   26973
   26973       0   26975   26976   26977   26976   26977   26977       0   26979
   26980   26981   26980   26981   26981       0   26983   26984   26985   26984
   26985   26985       0   26987   26988   26989   26988   26989   26989       0
   26991   26992   26993   26992   26993   26993       0   26995   26996   26997
   26996   26997   26997       0   26999   27000   27001   27000   27001   27001
       0   27003   27004   27005   27004   27005   27005       0   27007   27008
   27009   27008   27009   27009       0   27011   27012   27013   27012   27013
   27013       0   27015   27016   27017   27016   27017   27017       0   27019
   27020   27021   27020   27021   27021       0   27023   27024   27025   27024
   27025   27025       0   27027   27028   27029   27028   27029   27029       0
   27031   27032   27033   27032   27033   27033       0   27035   27036   27037
   27036   27037   27037       0   27039   27040   27041   27040   27041   27041
       0   27043   27044   27045   27044   27045   27045       0   27047   27048
   27049   27048   27049   27049       0   27051   27052   27053   27052   27053
   27053       0   27055   27056   27057   27056   27057   27057       0   27059
   27060   27061   27060   27061   27061       0   27063   27064   27065   27064
   27065   27065       0   27067   27068   27069   27068   27069   27069       0
   27071   27072   27073   27072   27073   27073       0   27075   27076   27077
   27076   27077   27077       0   27079   27080   27081   27080   27081   27081
       0   27083   27084   27085   27084   27085   27085       0   27087   27088
   27089   27088   27089   27089       0   27091   27092   27093   27092   27093
   27093       0   27095   27096   27097   27096   27097   27097       0   27099
   27100   27101   27100   27101   27101       0   27103   27104   27105   27104
   27105   27105       0   27107   27108   27109   27108   27109   27109       0
   27111   27112   27113   27112   27113   27113       0   27115   27116   27117
   27116   27117   27117       0   27119   27120   27121   27120   27121   27121
       0   27123   27124   27125   27124   27125   27125       0   27127   27128
   27129   27128   27129   27129       0   27131   27132   27133   27132   27133
   27133       0   27135   27136   27137   27136   27137   27137       0   27139
   27140   27141   27140   27141   27141       0   27143   27144   27145   27144
   27145   27145       0   27147   27148   27149   27148   27149   27149       0
   27151   27152   27153   27152   27153   27153       0   27155   27156   27157
   27156   27157   27157       0   27159   27160   27161   27160   27161   27161
       0   27163   27164   27165   27164   27165   27165       0   27167   27168
   27169   27168   27169   27169       0   27171   27172   27173   27172   27173
   27173       0   27175   27176   27177   27176   27177   27177       0   27179
   27180   27181   27180   27181   27181       0   27183   27184   27185   27184
   27185   27185       0   27187   27188   27189   27188   27189   27189       0
   27191   27192   27193   27192   27193   27193       0   27195   27196   27197
   27196   27197   27197       0   27199   27200   27201   27200   27201   27201
       0   27203   27204   27205   27204   27205   27205       0   27207   27208
   27209   27208   27209   27209       0   27211   27212   27213   27212   27213
   27213       0   27215   27216   27217   27216   27217   27217       0   27219
   27220   27221   27220   27221   27221       0   27223   27224   27225   27224
   27225   27225       0   27227   27228   27229   27228   27229   27229       0
   27231   27232   27233   27232   27233   27233       0   27235   27236   27237
   27236   27237   27237       0   27239   27240   27241   27240   27241   27241
       0   27243   27244   27245   27244   27245   27245       0   27247   27248
   27249   27248   27249   27249       0   27251   27252   27253   27252   27253
   27253       0   27255   27256   27257   27256   27257   27257       0   27259
   27260   27261   27260   27261   27261       0   27263   27264   27265   27264
   27265   27265       0   27267   27268   27269   27268   27269   27269       0
   27271   27272   27273   27272   27273   27273       0   27275   27276   27277
   27276   27277   27277       0   27279   27280   27281   27280   27281   27281
       0   27283   27284   27285   27284   27285   27285       0   27287   27288
   27289   27288   27289   27289       0   27291   27292   27293   27292   27293
   27293       0   27295   27296   27297   27296   27297   27297       0   27299
   27300   27301   27300   27301   27301       0   27303   27304   27305   27304
   27305   27305       0   27307   27308   27309   27308   27309   27309       0
   27311   27312   27313   27312   27313   27313       0   27315   27316   27317
   27316   27317   27317       0   27319   27320   27321   27320   27321   27321
       0   27323   27324   27325   27324   27325   27325       0   27327   27328
   27329   27328   27329   27329       0   27331   27332   27333   27332   27333
   27333       0   27335   27336   27337   27336   27337   27337       0   27339
   27340   27341   27340   27341   27341       0   27343   27344   27345   27344
   27345   27345       0   27347   27348   27349   27348   27349   27349       0
   27351   27352   27353   27352   27353   27353       0   27355   27356   27357
   27356   27357   27357       0   27359   27360   27361   27360   27361   27361
       0   27363   27364   27365   27364   27365   27365       0   27367   27368
   27369   27368   27369   27369       0   27371   27372   27373   27372   27373
   27373       0   27375   27376   27377   27376   27377   27377       0   27379
   27380   27381   27380   27381   27381       0   27383   27384   27385   27384
   27385   27385       0   27387   27388   27389   27388   27389   27389       0
   27391   27392   27393   27392   27393   27393       0   27395   27396   27397
   27396   27397   27397       0   27399   27400   27401   27400   27401   27401
       0   27403   27404   27405   27404   27405   27405       0   27407   27408
   27409   27408   27409   27409       0   27411   27412   27413   27412   27413
   27413       0   27415   27416   27417   27416   27417   27417       0   27419
   27420   27421   27420   27421   27421       0   27423   27424   27425   27424
   27425   27425       0   27427   27428   27429   27428   27429   27429       0
   27431   27432   27433   27432   27433   27433       0   27435   27436   27437
   27436   27437   27437       0   27439   27440   27441   27440   27441   27441
       0   27443   27444   27445   27444   27445   27445       0   27447   27448
   27449   27448   27449   27449       0   27451   27452   27453   27452   27453
   27453       0   27455   27456   27457   27456   27457   27457       0   27459
   27460   27461   27460   27461   27461       0   27463   27464   27465   27464
   27465   27465       0   27467   27468   27469   27468   27469   27469       0
   27471   27472   27473   27472   27473   27473       0   27475   27476   27477
   27476   27477   27477       0   27479   27480   27481   27480   27481   27481
       0   27483   27484   27485   27484   27485   27485       0   27487   27488
   27489   27488   27489   27489       0   27491   27492   27493   27492   27493
   27493       0   27495   27496   27497   27496   27497   27497       0   27499
   27500   27501   27500   27501   27501       0   27503   27504   27505   27504
   27505   27505       0   27507   27508   27509   27508   27509   27509       0
   27511   27512   27513   27512   27513   27513       0   27515   27516   27517
   27516   27517   27517       0   27519   27520   27521   27520   27521   27521
       0   27523   27524   27525   27524   27525   27525       0   27527   27528
   27529   27528   27529   27529       0   27531   27532   27533   27532   27533
   27533       0   27535   27536   27537   27536   27537   27537       0   27539
   27540   27541   27540   27541   27541       0   27543   27544   27545   27544
   27545   27545       0   27547   27548   27549   27548   27549   27549       0
   27551   27552   27553   27552   27553   27553       0   27555   27556   27557
   27556   27557   27557       0   27559   27560   27561   27560   27561   27561
       0   27563   27564   27565   27564   27565   27565       0   27567   27568
   27569   27568   27569   27569       0   27571   27572   27573   27572   27573
   27573       0   27575   27576   27577   27576   27577   27577       0   27579
   27580   27581   27580   27581   27581       0   27583   27584   27585   27584
   27585   27585       0   27587   27588   27589   27588   27589   27589       0
   27591   27592   27593   27592   27593   27593       0   27595   27596   27597
   27596   27597   27597       0   27599   27600   27601   27600   27601   27601
       0   27603   27604   27605   27604   27605   27605       0   27607   27608
   27609   27608   27609   27609       0   27611   27612   27613   27612   27613
   27613       0   27615   27616   27617   27616   27617   27617       0   27619
   27620   27621   27620   27621   27621       0   27623   27624   27625   27624
   27625   27625       0   27627   27628   27629   27628   27629   27629       0
   27631   27632   27633   27632   27633   27633       0   27635   27636   27637
   27636   27637   27637       0   27639   27640   27641   27640   27641   27641
       0   27643   27644   27645   27644   27645   27645       0   27647   27648
   27649   27648   27649   27649       0   27651   27652   27653   27652   27653
   27653       0   27655   27656   27657   27656   27657   27657       0   27659
   27660   27661   27660   27661   27661       0   27663   27664   27665   27664
   27665   27665       0   27667   27668   27669   27668   27669   27669       0
   27671   27672   27673   27672   27673   27673       0   27675   27676   27677
   27676   27677   27677       0   27679   27680   27681   27680   27681   27681
       0   27683   27684   27685   27684   27685   27685       0   27687   27688
   27689   27688   27689   27689       0   27691   27692   27693   27692   27693
   27693       0   27695   27696   27697   27696   27697   27697       0   27699
   27700   27701   27700   27701   27701       0   27703   27704   27705   27704
   27705   27705       0   27707   27708   27709   27708   27709   27709       0
   27711   27712   27713   27712   27713   27713       0   27715   27716   27717
   27716   27717   27717       0   27719   27720   27721   27720   27721   27721
       0   27723   27724   27725   27724   27725   27725       0   27727   27728
   27729   27728   27729   27729       0   27731   27732   27733   27732   27733
   27733       0   27735   27736   27737   27736   27737   27737       0   27739
   27740   27741   27740   27741   27741       0   27743   27744   27745   27744
   27745   27745       0   27747   27748   27749   27748   27749   27749       0
   27751   27752   27753   27752   27753   27753       0   27755   27756   27757
   27756   27757   27757       0   27759   27760   27761   27760   27761   27761
       0   27763   27764   27765   27764   27765   27765       0   27767   27768
   27769   27768   27769   27769       0   27771   27772   27773   27772   27773
   27773       0   27775   27776   27777   27776   27777   27777       0   27779
   27780   27781   27780   27781   27781       0   27783   27784   27785   27784
   27785   27785       0   27787   27788   27789   27788   27789   27789       0
   27791   27792   27793   27792   27793   27793       0   27795   27796   27797
   27796   27797   27797       0   27799   27800   27801   27800   27801   27801
       0   27803   27804   27805   27804   27805   27805       0   27807   27808
   27809   27808   27809   27809       0   27811   27812   27813   27812   27813
   27813       0   27815   27816   27817   27816   27817   27817       0   27819
   27820   27821   27820   27821   27821       0   27823   27824   27825   27824
   27825   27825       0   27827   27828   27829   27828   27829   27829       0
   27831   27832   27833   27832   27833   27833       0   27835   27836   27837
   27836   27837   27837       0   27839   27840   27841   27840   27841   27841
       0   27843   27844   27845   27844   27845   27845       0   27847   27848
   27849   27848   27849   27849       0   27851   27852   27853   27852   27853
   27853       0   27855   27856   27857   27856   27857   27857       0   27859
   27860   27861   27860   27861   27861       0   27863   27864   27865   27864
   27865   27865       0   27867   27868   27869   27868   27869   27869       0
   27871   27872   27873   27872   27873   27873       0   27875   27876   27877
   27876   27877   27877       0   27879   27880   27881   27880   27881   27881
       0   27883   27884   27885   27884   27885   27885       0   27887   27888
   27889   27888   27889   27889       0   27891   27892   27893   27892   27893
   27893       0   27895   27896   27897   27896   27897   27897       0   27899
   27900   27901   27900   27901   27901       0   27903   27904   27905   27904
   27905   27905       0   27907   27908   27909   27908   27909   27909       0
   27911   27912   27913   27912   27913   27913       0   27915   27916   27917
   27916   27917   27917       0   27919   27920   27921   27920   27921   27921
       0   27923   27924   27925   27924   27925   27925       0   27927   27928
   27929   27928   27929   27929       0   27931   27932   27933   27932   27933
   27933       0   27935   27936   27937   27936   27937   27937       0   27939
   27940   27941   27940   27941   27941       0   27943   27944   27945   27944
   27945   27945       0   27947   27948   27949   27948   27949   27949       0
   27951   27952   27953   27952   27953   27953       0   27955   27956   27957
   27956   27957   27957       0   27959   27960   27961   27960   27961   27961
       0   27963   27964   27965   27964   27965   27965       0   27967   27968
   27969   27968   27969   27969       0   27971   27972   27973   27972   27973
   27973       0   27975   27976   27977   27976   27977   27977       0   27979
   27980   27981   27980   27981   27981       0   27983   27984   27985   27984
   27985   27985       0   27987   27988   27989   27988   27989   27989       0
   27991   27992   27993   27992   27993   27993       0   27995   27996   27997
   27996   27997   27997       0   27999   28000   28001   28000   28001   28001
       0   28003   28004   28005   28004   28005   28005       0   28007   28008
   28009   28008   28009   28009       0   28011   28012   28013   28012   28013
   28013       0   28015   28016   28017   28016   28017   28017       0   28019
   28020   28021   28020   28021   28021       0   28023   28024   28025   28024
   28025   28025       0   28027   28028   28029   28028   28029   28029       0
   28031   28032   28033   28032   28033   28033       0   28035   28036   28037
   28036   28037   28037       0   28039   28040   28041   28040   28041   28041
       0   28043   28044   28045   28044   28045   28045       0   28047   28048
   28049   28048   28049   28049       0   28051   28052   28053   28052   28053
   28053       0   28055   28056   28057   28056   28057   28057       0   28059
   28060   28061   28060   28061   28061       0   28063   28064   28065   28064
   28065   28065       0   28067   28068   28069   28068   28069   28069       0
   28071   28072   28073   28072   28073   28073       0   28075   28076   28077
   28076   28077   28077       0   28079   28080   28081   28080   28081   28081
       0   28083   28084   28085   28084   28085   28085       0   28087   28088
   28089   28088   28089   28089       0   28091   28092   28093   28092   28093
   28093       0   28095   28096   28097   28096   28097   28097       0   28099
   28100   28101   28100   28101   28101       0   28103   28104   28105   28104
   28105   28105       0   28107   28108   28109   28108   28109   28109       0
   28111   28112   28113   28112   28113   28113       0   28115   28116   28117
   28116   28117   28117       0   28119   28120   28121   28120   28121   28121
       0   28123   28124   28125   28124   28125   28125       0   28127   28128
   28129   28128   28129   28129       0   28131   28132   28133   28132   28133
   28133       0   28135   28136   28137   28136   28137   28137       0   28139
   28140   28141   28140   28141   28141       0   28143   28144   28145   28144
   28145   28145       0   28147   28148   28149   28148   28149   28149       0
   28151   28152   28153   28152   28153   28153       0   28155   28156   28157
   28156   28157   28157       0   28159   28160   28161   28160   28161   28161
       0   28163   28164   28165   28164   28165   28165       0   28167   28168
   28169   28168   28169   28169       0   28171   28172   28173   28172   28173
   28173       0   28175   28176   28177   28176   28177   28177       0   28179
   28180   28181   28180   28181   28181       0   28183   28184   28185   28184
   28185   28185       0   28187   28188   28189   28188   28189   28189       0
   28191   28192   28193   28192   28193   28193       0   28195   28196   28197
   28196   28197   28197       0   28199   28200   28201   28200   28201   28201
       0   28203   28204   28205   28204   28205   28205       0   28207   28208
   28209   28208   28209   28209       0   28211   28212   28213   28212   28213
   28213       0   28215   28216   28217   28216   28217   28217       0   28219
   28220   28221   28220   28221   28221       0   28223   28224   28225   28224
   28225   28225       0   28227   28228   28229   28228   28229   28229       0
   28231   28232   28233   28232   28233   28233       0   28235   28236   28237
   28236   28237   28237       0   28239   28240   28241   28240   28241   28241
       0   28243   28244   28245   28244   28245   28245       0   28247   28248
   28249   28248   28249   28249       0   28251   28252   28253   28252   28253
   28253       0   28255   28256   28257   28256   28257   28257       0   28259
   28260   28261   28260   28261   28261       0   28263   28264   28265   28264
   28265   28265       0   28267   28268   28269   28268   28269   28269       0
   28271   28272   28273   28272   28273   28273       0   28275   28276   28277
   28276   28277   28277       0   28279   28280   28281   28280   28281   28281
       0   28283   28284   28285   28284   28285   28285       0   28287   28288
   28289   28288   28289   28289       0   28291   28292   28293   28292   28293
   28293       0   28295   28296   28297   28296   28297   28297       0   28299
   28300   28301   28300   28301   28301       0   28303   28304   28305   28304
   28305   28305       0   28307   28308   28309   28308   28309   28309       0
   28311   28312   28313   28312   28313   28313       0   28315   28316   28317
   28316   28317   28317       0   28319   28320   28321   28320   28321   28321
       0   28323   28324   28325   28324   28325   28325       0   28327   28328
   28329   28328   28329   28329       0   28331   28332   28333   28332   28333
   28333       0   28335   28336   28337   28336   28337   28337       0   28339
   28340   28341   28340   28341   28341       0   28343   28344   28345   28344
   28345   28345       0   28347   28348   28349   28348   28349   28349       0
   28351   28352   28353   28352   28353   28353       0   28355   28356   28357
   28356   28357   28357       0   28359   28360   28361   28360   28361   28361
       0   28363   28364   28365   28364   28365   28365       0   28367   28368
   28369   28368   28369   28369       0   28371   28372   28373   28372   28373
   28373       0   28375   28376   28377   28376   28377   28377       0   28379
   28380   28381   28380   28381   28381       0   28383   28384   28385   28384
   28385   28385       0   28387   28388   28389   28388   28389   28389       0
   28391   28392   28393   28392   28393   28393       0   28395   28396   28397
   28396   28397   28397       0   28399   28400   28401   28400   28401   28401
       0   28403   28404   28405   28404   28405   28405       0   28407   28408
   28409   28408   28409   28409       0   28411   28412   28413   28412   28413
   28413       0   28415   28416   28417   28416   28417   28417       0   28419
   28420   28421   28420   28421   28421       0   28423   28424   28425   28424
   28425   28425       0   28427   28428   28429   28428   28429   28429       0
   28431   28432   28433   28432   28433   28433       0   28435   28436   28437
   28436   28437   28437       0   28439   28440   28441   28440   28441   28441
       0   28443   28444   28445   28444   28445   28445       0   28447   28448
   28449   28448   28449   28449       0   28451   28452   28453   28452   28453
   28453       0   28455   28456   28457   28456   28457   28457       0   28459
   28460   28461   28460   28461   28461       0   28463   28464   28465   28464
   28465   28465       0   28467   28468   28469   28468   28469   28469       0
   28471   28472   28473   28472   28473   28473       0   28475   28476   28477
   28476   28477   28477       0   28479   28480   28481   28480   28481   28481
       0   28483   28484   28485   28484   28485   28485       0   28487   28488
   28489   28488   28489   28489       0   28491   28492   28493   28492   28493
   28493       0   28495   28496   28497   28496   28497   28497       0   28499
   28500   28501   28500   28501   28501       0   28503   28504   28505   28504
   28505   28505       0   28507   28508   28509   28508   28509   28509       0
   28511   28512   28513   28512   28513   28513       0   28515   28516   28517
   28516   28517   28517       0   28519   28520   28521   28520   28521   28521
       0   28523   28524   28525   28524   28525   28525       0   28527   28528
   28529   28528   28529   28529       0   28531   28532   28533   28532   28533
   28533       0   28535   28536   28537   28536   28537   28537       0   28539
   28540   28541   28540   28541   28541       0   28543   28544   28545   28544
   28545   28545       0   28547   28548   28549   28548   28549   28549       0
   28551   28552   28553   28552   28553   28553       0   28555   28556   28557
   28556   28557   28557       0   28559   28560   28561   28560   28561   28561
       0   28563   28564   28565   28564   28565   28565       0   28567   28568
   28569   28568   28569   28569       0   28571   28572   28573   28572   28573
   28573       0   28575   28576   28577   28576   28577   28577       0   28579
   28580   28581   28580   28581   28581       0   28583   28584   28585   28584
   28585   28585       0   28587   28588   28589   28588   28589   28589       0
   28591   28592   28593   28592   28593   28593       0   28595   28596   28597
   28596   28597   28597       0   28599   28600   28601   28600   28601   28601
       0   28603   28604   28605   28604   28605   28605       0   28607   28608
   28609   28608   28609   28609       0   28611   28612   28613   28612   28613
   28613       0   28615   28616   28617   28616   28617   28617       0   28619
   28620   28621   28620   28621   28621       0   28623   28624   28625   28624
   28625   28625       0   28627   28628   28629   28628   28629   28629       0
   28631   28632   28633   28632   28633   28633       0   28635   28636   28637
   28636   28637   28637       0   28639   28640   28641   28640   28641   28641
       0   28643   28644   28645   28644   28645   28645       0   28647   28648
   28649   28648   28649   28649       0   28651   28652   28653   28652   28653
   28653       0   28655   28656   28657   28656   28657   28657       0   28659
   28660   28661   28660   28661   28661       0   28663   28664   28665   28664
   28665   28665       0   28667   28668   28669   28668   28669   28669       0
   28671   28672   28673   28672   28673   28673       0   28675   28676   28677
   28676   28677   28677       0   28679   28680   28681   28680   28681   28681
       0   28683   28684   28685   28684   28685   28685       0   28687   28688
   28689   28688   28689   28689       0   28691   28692   28693   28692   28693
   28693       0   28695   28696   28697   28696   28697   28697       0   28699
   28700   28701   28700   28701   28701       0   28703   28704   28705   28704
   28705   28705       0   28707   28708   28709   28708   28709   28709       0
   28711   28712   28713   28712   28713   28713       0   28715   28716   28717
   28716   28717   28717       0   28719   28720   28721   28720   28721   28721
       0   28723   28724   28725   28724   28725   28725       0   28727   28728
   28729   28728   28729   28729       0   28731   28732   28733   28732   28733
   28733       0   28735   28736   28737   28736   28737   28737       0   28739
   28740   28741   28740   28741   28741       0   28743   28744   28745   28744
   28745   28745       0   28747   28748   28749   28748   28749   28749       0
   28751   28752   28753   28752   28753   28753       0   28755   28756   28757
   28756   28757   28757       0   28759   28760   28761   28760   28761   28761
       0   28763   28764   28765   28764   28765   28765       0   28767   28768
   28769   28768   28769   28769       0   28771   28772   28773   28772   28773
   28773       0   28775   28776   28777   28776   28777   28777       0   28779
   28780   28781   28780   28781   28781       0   28783   28784   28785   28784
   28785   28785       0   28787   28788   28789   28788   28789   28789       0
   28791   28792   28793   28792   28793   28793       0   28795   28796   28797
   28796   28797   28797       0   28799   28800   28801   28800   28801   28801
       0   28803   28804   28805   28804   28805   28805       0   28807   28808
   28809   28808   28809   28809       0   28811   28812   28813   28812   28813
   28813       0   28815   28816   28817   28816   28817   28817       0   28819
   28820   28821   28820   28821   28821       0   28823   28824   28825   28824
   28825   28825       0   28827   28828   28829   28828   28829   28829       0
   28831   28832   28833   28832   28833   28833       0   28835   28836   28837
   28836   28837   28837       0   28839   28840   28841   28840   28841   28841
       0   28843   28844   28845   28844   28845   28845       0   28847   28848
   28849   28848   28849   28849       0   28851   28852   28853   28852   28853
   28853       0   28855   28856   28857   28856   28857   28857       0   28859
   28860   28861   28860   28861   28861       0   28863   28864   28865   28864
   28865   28865       0   28867   28868   28869   28868   28869   28869       0
   28871   28872   28873   28872   28873   28873       0   28875   28876   28877
   28876   28877   28877       0   28879   28880   28881   28880   28881   28881
       0   28883   28884   28885   28884   28885   28885       0   28887   28888
   28889   28888   28889   28889       0   28891   28892   28893   28892   28893
   28893       0   28895   28896   28897   28896   28897   28897       0   28899
   28900   28901   28900   28901   28901       0   28903   28904   28905   28904
   28905   28905       0   28907   28908   28909   28908   28909   28909       0
   28911   28912   28913   28912   28913   28913       0   28915   28916   28917
   28916   28917   28917       0   28919   28920   28921   28920   28921   28921
       0   28923   28924   28925   28924   28925   28925       0   28927   28928
   28929   28928   28929   28929       0   28931   28932   28933   28932   28933
   28933       0   28935   28936   28937   28936   28937   28937       0   28939
   28940   28941   28940   28941   28941       0   28943   28944   28945   28944
   28945   28945       0   28947   28948   28949   28948   28949   28949       0
   28951   28952   28953   28952   28953   28953       0   28955   28956   28957
   28956   28957   28957       0   28959   28960   28961   28960   28961   28961
       0   28963   28964   28965   28964   28965   28965       0   28967   28968
   28969   28968   28969   28969       0   28971   28972   28973   28972   28973
   28973       0   28975   28976   28977   28976   28977   28977       0   28979
   28980   28981   28980   28981   28981       0   28983   28984   28985   28984
   28985   28985       0   28987   28988   28989   28988   28989   28989       0
   28991   28992   28993   28992   28993   28993       0   28995   28996   28997
   28996   28997   28997       0   28999   29000   29001   29000   29001   29001
       0   29003   29004   29005   29004   29005   29005       0   29007   29008
   29009   29008   29009   29009       0   29011   29012   29013   29012   29013
   29013       0   29015   29016   29017   29016   29017   29017       0   29019
   29020   29021   29020   29021   29021       0   29023   29024   29025   29024
   29025   29025       0   29027   29028   29029   29028   29029   29029       0
   29031   29032   29033   29032   29033   29033       0   29035   29036   29037
   29036   29037   29037       0   29039   29040   29041   29040   29041   29041
       0   29043   29044   29045   29044   29045   29045       0   29047   29048
   29049   29048   29049   29049       0   29051   29052   29053   29052   29053
   29053       0   29055   29056   29057   29056   29057   29057       0   29059
   29060   29061   29060   29061   29061       0   29063   29064   29065   29064
   29065   29065       0   29067   29068   29069   29068   29069   29069       0
   29071   29072   29073   29072   29073   29073       0   29075   29076   29077
   29076   29077   29077       0   29079   29080   29081   29080   29081   29081
       0   29083   29084   29085   29084   29085   29085       0   29087   29088
   29089   29088   29089   29089       0   29091   29092   29093   29092   29093
   29093       0   29095   29096   29097   29096   29097   29097       0   29099
   29100   29101   29100   29101   29101       0   29103   29104   29105   29104
   29105   29105       0   29107   29108   29109   29108   29109   29109       0
   29111   29112   29113   29112   29113   29113       0   29115   29116   29117
   29116   29117   29117       0   29119   29120   29121   29120   29121   29121
       0   29123   29124   29125   29124   29125   29125       0   29127   29128
   29129   29128   29129   29129       0   29131   29132   29133   29132   29133
   29133       0   29135   29136   29137   29136   29137   29137       0   29139
   29140   29141   29140   29141   29141       0   29143   29144   29145   29144
   29145   29145       0   29147   29148   29149   29148   29149   29149       0
   29151   29152   29153   29152   29153   29153       0   29155   29156   29157
   29156   29157   29157       0   29159   29160   29161   29160   29161   29161
       0   29163   29164   29165   29164   29165   29165       0   29167   29168
   29169   29168   29169   29169       0   29171   29172   29173   29172   29173
   29173       0   29175   29176   29177   29176   29177   29177       0   29179
   29180   29181   29180   29181   29181       0   29183   29184   29185   29184
   29185   29185       0   29187   29188   29189   29188   29189   29189       0
   29191   29192   29193   29192   29193   29193       0   29195   29196   29197
   29196   29197   29197       0   29199   29200   29201   29200   29201   29201
       0   29203   29204   29205   29204   29205   29205       0   29207   29208
   29209   29208   29209   29209       0   29211   29212   29213   29212   29213
   29213       0   29215   29216   29217   29216   29217   29217       0   29219
   29220   29221   29220   29221   29221       0   29223   29224   29225   29224
   29225   29225       0   29227   29228   29229   29228   29229   29229       0
   29231   29232   29233   29232   29233   29233       0   29235   29236   29237
   29236   29237   29237       0   29239   29240   29241   29240   29241   29241
       0   29243   29244   29245   29244   29245   29245       0   29247   29248
   29249   29248   29249   29249       0   29251   29252   29253   29252   29253
   29253       0   29255   29256   29257   29256   29257   29257       0   29259
   29260   29261   29260   29261   29261       0   29263   29264   29265   29264
   29265   29265       0   29267   29268   29269   29268   29269   29269       0
   29271   29272   29273   29272   29273   29273       0   29275   29276   29277
   29276   29277   29277       0   29279   29280   29281   29280   29281   29281
       0   29283   29284   29285   29284   29285   29285       0   29287   29288
   29289   29288   29289   29289       0   29291   29292   29293   29292   29293
   29293       0   29295   29296   29297   29296   29297   29297       0   29299
   29300   29301   29300   29301   29301       0   29303   29304   29305   29304
   29305   29305       0   29307   29308   29309   29308   29309   29309       0
   29311   29312   29313   29312   29313   29313       0   29315   29316   29317
   29316   29317   29317       0   29319   29320   29321   29320   29321   29321
       0   29323   29324   29325   29324   29325   29325       0   29327   29328
   29329   29328   29329   29329       0   29331   29332   29333   29332   29333
   29333       0   29335   29336   29337   29336   29337   29337       0   29339
   29340   29341   29340   29341   29341       0   29343   29344   29345   29344
   29345   29345       0   29347   29348   29349   29348   29349   29349       0
   29351   29352   29353   29352   29353   29353       0   29355   29356   29357
   29356   29357   29357       0   29359   29360   29361   29360   29361   29361
       0   29363   29364   29365   29364   29365   29365       0   29367   29368
   29369   29368   29369   29369       0   29371   29372   29373   29372   29373
   29373       0   29375   29376   29377   29376   29377   29377       0   29379
   29380   29381   29380   29381   29381       0   29383   29384   29385   29384
   29385   29385       0   29387   29388   29389   29388   29389   29389       0
   29391   29392   29393   29392   29393   29393       0   29395   29396   29397
   29396   29397   29397       0   29399   29400   29401   29400   29401   29401
       0   29403   29404   29405   29404   29405   29405       0   29407   29408
   29409   29408   29409   29409       0   29411   29412   29413   29412   29413
   29413       0   29415   29416   29417   29416   29417   29417       0   29419
   29420   29421   29420   29421   29421       0   29423   29424   29425   29424
   29425   29425       0   29427   29428   29429   29428   29429   29429       0
   29431   29432   29433   29432   29433   29433       0   29435   29436   29437
   29436   29437   29437       0   29439   29440   29441   29440   29441   29441
       0   29443   29444   29445   29444   29445   29445       0   29447   29448
   29449   29448   29449   29449       0   29451   29452   29453   29452   29453
   29453       0   29455   29456   29457   29456   29457   29457       0   29459
   29460   29461   29460   29461   29461       0   29463   29464   29465   29464
   29465   29465       0   29467   29468   29469   29468   29469   29469       0
   29471   29472   29473   29472   29473   29473       0   29475   29476   29477
   29476   29477   29477       0   29479   29480   29481   29480   29481   29481
       0   29483   29484   29485   29484   29485   29485       0   29487   29488
   29489   29488   29489   29489       0   29491   29492   29493   29492   29493
   29493       0   29495   29496   29497   29496   29497   29497       0   29499
   29500   29501   29500   29501   29501       0   29503   29504   29505   29504
   29505   29505       0   29507   29508   29509   29508   29509   29509       0
   29511   29512   29513   29512   29513   29513       0   29515   29516   29517
   29516   29517   29517       0   29519   29520   29521   29520   29521   29521
       0   29523   29524   29525   29524   29525   29525       0   29527   29528
   29529   29528   29529   29529       0   29531   29532   29533   29532   29533
   29533       0   29535   29536   29537   29536   29537   29537       0   29539
   29540   29541   29540   29541   29541       0   29543   29544   29545   29544
   29545   29545       0   29547   29548   29549   29548   29549   29549       0
   29551   29552   29553   29552   29553   29553       0   29555   29556   29557
   29556   29557   29557       0   29559   29560   29561   29560   29561   29561
       0   29563   29564   29565   29564   29565   29565       0   29567   29568
   29569   29568   29569   29569       0   29571   29572   29573   29572   29573
   29573       0   29575   29576   29577   29576   29577   29577       0   29579
   29580   29581   29580   29581   29581       0   29583   29584   29585   29584
   29585   29585       0   29587   29588   29589   29588   29589   29589       0
   29591   29592   29593   29592   29593   29593       0   29595   29596   29597
   29596   29597   29597       0   29599   29600   29601   29600   29601   29601
       0   29603   29604   29605   29604   29605   29605       0   29607   29608
   29609   29608   29609   29609       0   29611   29612   29613   29612   29613
   29613       0   29615   29616   29617   29616   29617   29617       0   29619
   29620   29621   29620   29621   29621       0   29623   29624   29625   29624
   29625   29625       0   29627   29628   29629   29628   29629   29629       0
   29631   29632   29633   29632   29633   29633       0   29635   29636   29637
   29636   29637   29637       0   29639   29640   29641   29640   29641   29641
       0   29643   29644   29645   29644   29645   29645       0   29647   29648
   29649   29648   29649   29649       0   29651   29652   29653   29652   29653
   29653       0   29655   29656   29657   29656   29657   29657       0   29659
   29660   29661   29660   29661   29661       0   29663   29664   29665   29664
   29665   29665       0   29667   29668   29669   29668   29669   29669       0
   29671   29672   29673   29672   29673   29673       0   29675   29676   29677
   29676   29677   29677       0   29679   29680   29681   29680   29681   29681
       0   29683   29684   29685   29684   29685   29685       0   29687   29688
   29689   29688   29689   29689       0   29691   29692   29693   29692   29693
   29693       0   29695   29696   29697   29696   29697   29697       0   29699
   29700   29701   29700   29701   29701       0   29703   29704   29705   29704
   29705   29705       0   29707   29708   29709   29708   29709   29709       0
   29711   29712   29713   29712   29713   29713       0   29715   29716   29717
   29716   29717   29717       0   29719   29720   29721   29720   29721   29721
       0   29723   29724   29725   29724   29725   29725       0   29727   29728
   29729   29728   29729   29729       0   29731   29732   29733   29732   29733
   29733       0   29735   29736   29737   29736   29737   29737       0   29739
   29740   29741   29740   29741   29741       0   29743   29744   29745   29744
   29745   29745       0   29747   29748   29749   29748   29749   29749       0
   29751   29752   29753   29752   29753   29753       0   29755   29756   29757
   29756   29757   29757       0   29759   29760   29761   29760   29761   29761
       0   29763   29764   29765   29764   29765   29765       0   29767   29768
   29769   29768   29769   29769       0   29771   29772   29773   29772   29773
   29773       0   29775   29776   29777   29776   29777   29777       0   29779
   29780   29781   29780   29781   29781       0   29783   29784   29785   29784
   29785   29785       0   29787   29788   29789   29788   29789   29789       0
   29791   29792   29793   29792   29793   29793       0   29795   29796   29797
   29796   29797   29797       0   29799   29800   29801   29800   29801   29801
       0   29803   29804   29805   29804   29805   29805       0   29807   29808
   29809   29808   29809   29809       0   29811   29812   29813   29812   29813
   29813       0   29815   29816   29817   29816   29817   29817       0   29819
   29820   29821   29820   29821   29821       0   29823   29824   29825   29824
   29825   29825       0   29827   29828   29829   29828   29829   29829       0
   29831   29832   29833   29832   29833   29833       0   29835   29836   29837
   29836   29837   29837       0   29839   29840   29841   29840   29841   29841
       0   29843   29844   29845   29844   29845   29845       0   29847   29848
   29849   29848   29849   29849       0   29851   29852   29853   29852   29853
   29853       0   29855   29856   29857   29856   29857   29857       0   29859
   29860   29861   29860   29861   29861       0   29863   29864   29865   29864
   29865   29865       0   29867   29868   29869   29868   29869   29869       0
   29871   29872   29873   29872   29873   29873       0   29875   29876   29877
   29876   29877   29877       0   29879   29880   29881   29880   29881   29881
       0   29883   29884   29885   29884   29885   29885       0   29887   29888
   29889   29888   29889   29889       0   29891   29892   29893   29892   29893
   29893       0   29895   29896   29897   29896   29897   29897       0   29899
   29900   29901   29900   29901   29901       0   29903   29904   29905   29904
   29905   29905       0   29907   29908   29909   29908   29909   29909       0
   29911   29912   29913   29912   29913   29913       0   29915   29916   29917
   29916   29917   29917       0   29919   29920   29921   29920   29921   29921
       0   29923   29924   29925   29924   29925   29925       0   29927   29928
   29929   29928   29929   29929       0   29931   29932   29933   29932   29933
   29933       0   29935   29936   29937   29936   29937   29937       0   29939
   29940   29941   29940   29941   29941       0   29943   29944   29945   29944
   29945   29945       0   29947   29948   29949   29948   29949   29949       0
   29951   29952   29953   29952   29953   29953       0   29955   29956   29957
   29956   29957   29957       0   29959   29960   29961   29960   29961   29961
       0   29963   29964   29965   29964   29965   29965       0   29967   29968
   29969   29968   29969   29969       0   29971   29972   29973   29972   29973
   29973       0   29975   29976   29977   29976   29977   29977       0   29979
   29980   29981   29980   29981   29981       0   29983   29984   29985   29984
   29985   29985       0   29987   29988   29989   29988   29989   29989       0
   29991   29992   29993   29992   29993   29993       0   29995   29996   29997
   29996   29997   29997       0   29999   30000   30001   30000   30001   30001
       0   30003   30004   30005   30004   30005   30005       0   30007   30008
   30009   30008   30009   30009       0   30011   30012   30013   30012   30013
   30013       0   30015   30016   30017   30016   30017   30017       0   30019
   30020   30021   30020   30021   30021       0   30023   30024   30025   30024
   30025   30025       0   30027   30028   30029   30028   30029   30029       0
   30031   30032   30033   30032   30033   30033       0   30035   30036   30037
   30036   30037   30037       0   30039   30040   30041   30040   30041   30041
       0   30043   30044   30045   30044   30045   30045       0   30047   30048
   30049   30048   30049   30049       0   30051   30052   30053   30052   30053
   30053       0   30055   30056   30057   30056   30057   30057       0   30059
   30060   30061   30060   30061   30061       0   30063   30064   30065   30064
   30065   30065       0   30067   30068   30069   30068   30069   30069       0
   30071   30072   30073   30072   30073   30073       0   30075   30076   30077
   30076   30077   30077       0   30079   30080   30081   30080   30081   30081
       0   30083   30084   30085   30084   30085   30085       0   30087   30088
   30089   30088   30089   30089       0   30091   30092   30093   30092   30093
   30093       0   30095   30096   30097   30096   30097   30097       0   30099
   30100   30101   30100   30101   30101       0   30103   30104   30105   30104
   30105   30105       0   30107   30108   30109   30108   30109   30109       0
   30111   30112   30113   30112   30113   30113       0   30115   30116   30117
   30116   30117   30117       0   30119   30120   30121   30120   30121   30121
       0   30123   30124   30125   30124   30125   30125       0   30127   30128
   30129   30128   30129   30129       0   30131   30132   30133   30132   30133
   30133       0   30135   30136   30137   30136   30137   30137       0   30139
   30140   30141   30140   30141   30141       0   30143   30144   30145   30144
   30145   30145       0   30147   30148   30149   30148   30149   30149       0
   30151   30152   30153   30152   30153   30153       0   30155   30156   30157
   30156   30157   30157       0   30159   30160   30161   30160   30161   30161
       0   30163   30164   30165   30164   30165   30165       0   30167   30168
   30169   30168   30169   30169       0   30171   30172   30173   30172   30173
   30173       0   30175   30176   30177   30176   30177   30177       0   30179
   30180   30181   30180   30181   30181       0   30183   30184   30185   30184
   30185   30185       0   30187   30188   30189   30188   30189   30189       0
   30191   30192   30193   30192   30193   30193       0   30195   30196   30197
   30196   30197   30197       0   30199   30200   30201   30200   30201   30201
       0   30203   30204   30205   30204   30205   30205       0   30207   30208
   30209   30208   30209   30209       0   30211   30212   30213   30212   30213
   30213       0   30215   30216   30217   30216   30217   30217       0   30219
   30220   30221   30220   30221   30221       0   30223   30224   30225   30224
   30225   30225       0   30227   30228   30229   30228   30229   30229       0
   30231   30232   30233   30232   30233   30233       0   30235   30236   30237
   30236   30237   30237       0   30239   30240   30241   30240   30241   30241
       0   30243   30244   30245   30244   30245   30245       0   30247   30248
   30249   30248   30249   30249       0   30251   30252   30253   30252   30253
   30253       0   30255   30256   30257   30256   30257   30257       0   30259
   30260   30261   30260   30261   30261       0   30263   30264   30265   30264
   30265   30265       0   30267   30268   30269   30268   30269   30269       0
   30271   30272   30273   30272   30273   30273       0   30275   30276   30277
   30276   30277   30277       0   30279   30280   30281   30280   30281   30281
       0   30283   30284   30285   30284   30285   30285       0   30287   30288
   30289   30288   30289   30289       0   30291   30292   30293   30292   30293
   30293       0   30295   30296   30297   30296   30297   30297       0   30299
   30300   30301   30300   30301   30301       0   30303   30304   30305   30304
   30305   30305       0   30307   30308   30309   30308   30309   30309       0
   30311   30312   30313   30312   30313   30313       0   30315   30316   30317
   30316   30317   30317       0   30319   30320   30321   30320   30321   30321
       0   30323   30324   30325   30324   30325   30325       0   30327   30328
   30329   30328   30329   30329       0   30331   30332   30333   30332   30333
   30333       0   30335   30336   30337   30336   30337   30337       0   30339
   30340   30341   30340   30341   30341       0   30343   30344   30345   30344
   30345   30345       0   30347   30348   30349   30348   30349   30349       0
   30351   30352   30353   30352   30353   30353       0   30355   30356   30357
   30356   30357   30357       0   30359   30360   30361   30360   30361   30361
       0   30363   30364   30365   30364   30365   30365       0   30367   30368
   30369   30368   30369   30369       0   30371   30372   30373   30372   30373
   30373       0   30375   30376   30377   30376   30377   30377       0   30379
   30380   30381   30380   30381   30381       0   30383   30384   30385   30384
   30385   30385       0   30387   30388   30389   30388   30389   30389       0
   30391   30392   30393   30392   30393   30393       0   30395   30396   30397
   30396   30397   30397       0   30399   30400   30401   30400   30401   30401
       0   30403   30404   30405   30404   30405   30405       0   30407   30408
   30409   30408   30409   30409       0   30411   30412   30413   30412   30413
   30413       0   30415   30416   30417   30416   30417   30417       0   30419
   30420   30421   30420   30421   30421       0   30423   30424   30425   30424
   30425   30425       0   30427   30428   30429   30428   30429   30429       0
   30431   30432   30433   30432   30433   30433       0   30435   30436   30437
   30436   30437   30437       0   30439   30440   30441   30440   30441   30441
       0   30443   30444   30445   30444   30445   30445       0   30447   30448
   30449   30448   30449   30449       0   30451   30452   30453   30452   30453
   30453       0   30455   30456   30457   30456   30457   30457       0   30459
   30460   30461   30460   30461   30461       0   30463   30464   30465   30464
   30465   30465       0   30467   30468   30469   30468   30469   30469       0
   30471   30472   30473   30472   30473   30473       0   30475   30476   30477
   30476   30477   30477       0   30479   30480   30481   30480   30481   30481
       0   30483   30484   30485   30484   30485   30485       0   30487   30488
   30489   30488   30489   30489       0   30491   30492   30493   30492   30493
   30493       0   30495   30496   30497   30496   30497   30497       0   30499
   30500   30501   30500   30501   30501       0   30503   30504   30505   30504
   30505   30505       0   30507   30508   30509   30508   30509   30509       0
   30511   30512   30513   30512   30513   30513       0   30515   30516   30517
   30516   30517   30517       0   30519   30520   30521   30520   30521   30521
       0   30523   30524   30525   30524   30525   30525       0   30527   30528
   30529   30528   30529   30529       0   30531   30532   30533   30532   30533
   30533       0   30535   30536   30537   30536   30537   30537       0   30539
   30540   30541   30540   30541   30541       0   30543   30544   30545   30544
   30545   30545       0   30547   30548   30549   30548   30549   30549       0
   30551   30552   30553   30552   30553   30553       0   30555   30556   30557
   30556   30557   30557       0   30559   30560   30561   30560   30561   30561
       0   30563   30564   30565   30564   30565   30565       0   30567   30568
   30569   30568   30569   30569       0   30571   30572   30573   30572   30573
   30573       0   30575   30576   30577   30576   30577   30577       0   30579
   30580   30581   30580   30581   30581       0   30583   30584   30585   30584
   30585   30585       0   30587   30588   30589   30588   30589   30589       0
   30591   30592   30593   30592   30593   30593       0   30595   30596   30597
   30596   30597   30597       0   30599   30600   30601   30600   30601   30601
       0   30603   30604   30605   30604   30605   30605       0   30607   30608
   30609   30608   30609   30609       0   30611   30612   30613   30612   30613
   30613       0   30615   30616   30617   30616   30617   30617       0   30619
   30620   30621   30620   30621   30621       0   30623   30624   30625   30624
   30625   30625       0   30627   30628   30629   30628   30629   30629       0
   30631   30632   30633   30632   30633   30633       0   30635   30636   30637
   30636   30637   30637       0   30639   30640   30641   30640   30641   30641
       0   30643   30644   30645   30644   30645   30645       0   30647   30648
   30649   30648   30649   30649       0   30651   30652   30653   30652   30653
   30653       0   30655   30656   30657   30656   30657   30657       0   30659
   30660   30661   30660   30661   30661       0   30663   30664   30665   30664
   30665   30665       0   30667   30668   30669   30668   30669   30669       0
   30671   30672   30673   30672   30673   30673       0   30675   30676   30677
   30676   30677   30677       0   30679   30680   30681   30680   30681   30681
       0   30683   30684   30685   30684   30685   30685       0   30687   30688
   30689   30688   30689   30689       0   30691   30692   30693   30692   30693
   30693       0   30695   30696   30697   30696   30697   30697       0   30699
   30700   30701   30700   30701   30701       0   30703   30704   30705   30704
   30705   30705       0   30707   30708   30709   30708   30709   30709       0
   30711   30712   30713   30712   30713   30713       0   30715   30716   30717
   30716   30717   30717       0   30719   30720   30721   30720   30721   30721
       0   30723   30724   30725   30724   30725   30725       0   30727   30728
   30729   30728   30729   30729       0   30731   30732   30733   30732   30733
   30733       0   30735   30736   30737   30736   30737   30737       0   30739
   30740   30741   30740   30741   30741       0   30743   30744   30745   30744
   30745   30745       0   30747   30748   30749   30748   30749   30749       0
   30751   30752   30753   30752   30753   30753       0   30755   30756   30757
   30756   30757   30757       0   30759   30760   30761   30760   30761   30761
       0   30763   30764   30765   30764   30765   30765       0   30767   30768
   30769   30768   30769   30769       0   30771   30772   30773   30772   30773
   30773       0   30775   30776   30777   30776   30777   30777       0   30779
   30780   30781   30780   30781   30781       0   30783   30784   30785   30784
   30785   30785       0   30787   30788   30789   30788   30789   30789       0
   30791   30792   30793   30792   30793   30793       0   30795   30796   30797
   30796   30797   30797       0   30799   30800   30801   30800   30801   30801
       0   30803   30804   30805   30804   30805   30805       0   30807   30808
   30809   30808   30809   30809       0   30811   30812   30813   30812   30813
   30813       0   30815   30816   30817   30816   30817   30817       0   30819
   30820   30821   30820   30821   30821       0   30823   30824   30825   30824
   30825   30825       0   30827   30828   30829   30828   30829   30829       0
   30831   30832   30833   30832   30833   30833       0   30835   30836   30837
   30836   30837   30837       0   30839   30840   30841   30840   30841   30841
       0   30843   30844   30845   30844   30845   30845       0   30847   30848
   30849   30848   30849   30849       0   30851   30852   30853   30852   30853
   30853       0   30855   30856   30857   30856   30857   30857       0   30859
   30860   30861   30860   30861   30861       0   30863   30864   30865   30864
   30865   30865       0   30867   30868   30869   30868   30869   30869       0
   30871   30872   30873   30872   30873   30873       0   30875   30876   30877
   30876   30877   30877       0   30879   30880   30881   30880   30881   30881
       0   30883   30884   30885   30884   30885   30885       0   30887   30888
   30889   30888   30889   30889       0   30891   30892   30893   30892   30893
   30893       0   30895   30896   30897   30896   30897   30897       0   30899
   30900   30901   30900   30901   30901       0   30903   30904   30905   30904
   30905   30905       0   30907   30908   30909   30908   30909   30909       0
   30911   30912   30913   30912   30913   30913       0   30915   30916   30917
   30916   30917   30917       0   30919   30920   30921   30920   30921   30921
       0   30923   30924   30925   30924   30925   30925       0   30927   30928
   30929   30928   30929   30929       0   30931   30932   30933   30932   30933
   30933       0   30935   30936   30937   30936   30937   30937       0   30939
   30940   30941   30940   30941   30941       0   30943   30944   30945   30944
   30945   30945       0   30947   30948   30949   30948   30949   30949       0
   30951   30952   30953   30952   30953   30953       0   30955   30956   30957
   30956   30957   30957       0   30959   30960   30961   30960   30961   30961
       0   30963   30964   30965   30964   30965   30965       0   30967   30968
   30969   30968   30969   30969       0   30971   30972   30973   30972   30973
   30973       0   30975   30976   30977   30976   30977   30977       0   30979
   30980   30981   30980   30981   30981       0   30983   30984   30985   30984
   30985   30985       0   30987   30988   30989   30988   30989   30989       0
   30991   30992   30993   30992   30993   30993       0   30995   30996   30997
   30996   30997   30997       0   30999   31000   31001   31000   31001   31001
       0   31003   31004   31005   31004   31005   31005       0   31007   31008
   31009   31008   31009   31009       0   31011   31012   31013   31012   31013
   31013       0   31015   31016   31017   31016   31017   31017       0   31019
   31020   31021   31020   31021   31021       0   31023   31024   31025   31024
   31025   31025       0   31027   31028   31029   31028   31029   31029       0
   31031   31032   31033   31032   31033   31033       0   31035   31036   31037
   31036   31037   31037       0   31039   31040   31041   31040   31041   31041
       0   31043   31044   31045   31044   31045   31045       0   31047   31048
   31049   31048   31049   31049       0   31051   31052   31053   31052   31053
   31053       0   31055   31056   31057   31056   31057   31057       0   31059
   31060   31061   31060   31061   31061       0   31063   31064   31065   31064
   31065   31065       0   31067   31068   31069   31068   31069   31069       0
   31071   31072   31073   31072   31073   31073       0   31075   31076   31077
   31076   31077   31077       0   31079   31080   31081   31080   31081   31081
       0   31083   31084   31085   31084   31085   31085       0   31087   31088
   31089   31088   31089   31089       0   31091   31092   31093   31092   31093
   31093       0   31095   31096   31097   31096   31097   31097       0   31099
   31100   31101   31100   31101   31101       0   31103   31104   31105   31104
   31105   31105       0   31107   31108   31109   31108   31109   31109       0
   31111   31112   31113   31112   31113   31113       0   31115   31116   31117
   31116   31117   31117       0   31119   31120   31121   31120   31121   31121
       0   31123   31124   31125   31124   31125   31125       0   31127   31128
   31129   31128   31129   31129       0   31131   31132   31133   31132   31133
   31133       0   31135   31136   31137   31136   31137   31137       0   31139
   31140   31141   31140   31141   31141       0   31143   31144   31145   31144
   31145   31145       0   31147   31148   31149   31148   31149   31149       0
   31151   31152   31153   31152   31153   31153       0   31155   31156   31157
   31156   31157   31157       0   31159   31160   31161   31160   31161   31161
       0   31163   31164   31165   31164   31165   31165       0   31167   31168
   31169   31168   31169   31169       0   31171   31172   31173   31172   31173
   31173       0   31175   31176   31177   31176   31177   31177       0   31179
   31180   31181   31180   31181   31181       0   31183   31184   31185   31184
   31185   31185       0   31187   31188   31189   31188   31189   31189       0
   31191   31192   31193   31192   31193   31193       0   31195   31196   31197
   31196   31197   31197       0   31199   31200   31201   31200   31201   31201
       0   31203   31204   31205   31204   31205   31205       0   31207   31208
   31209   31208   31209   31209       0   31211   31212   31213   31212   31213
   31213       0   31215   31216   31217   31216   31217   31217       0   31219
   31220   31221   31220   31221   31221       0   31223   31224   31225   31224
   31225   31225       0   31227   31228   31229   31228   31229   31229       0
   31231   31232   31233   31232   31233   31233       0   31235   31236   31237
   31236   31237   31237       0   31239   31240   31241   31240   31241   31241
       0   31243   31244   31245   31244   31245   31245       0   31247   31248
   31249   31248   31249   31249       0   31251   31252   31253   31252   31253
   31253       0   31255   31256   31257   31256   31257   31257       0   31259
   31260   31261   31260   31261   31261       0   31263   31264   31265   31264
   31265   31265       0   31267   31268   31269   31268   31269   31269       0
   31271   31272   31273   31272   31273   31273       0   31275   31276   31277
   31276   31277   31277       0   31279   31280   31281   31280   31281   31281
       0   31283   31284   31285   31284   31285   31285       0   31287   31288
   31289   31288   31289   31289       0   31291   31292   31293   31292   31293
   31293       0   31295   31296   31297   31296   31297   31297       0   31299
   31300   31301   31300   31301   31301       0   31303   31304   31305   31304
   31305   31305       0   31307   31308   31309   31308   31309   31309       0
   31311   31312   31313   31312   31313   31313       0   31315   31316   31317
   31316   31317   31317       0   31319   31320   31321   31320   31321   31321
       0   31323   31324   31325   31324   31325   31325       0   31327   31328
   31329   31328   31329   31329       0   31331   31332   31333   31332   31333
   31333       0   31335   31336   31337   31336   31337   31337       0   31339
   31340   31341   31340   31341   31341       0   31343   31344   31345   31344
   31345   31345       0   31347   31348   31349   31348   31349   31349       0
   31351   31352   31353   31352   31353   31353       0   31355   31356   31357
   31356   31357   31357       0   31359   31360   31361   31360   31361   31361
       0   31363   31364   31365   31364   31365   31365       0   31367   31368
   31369   31368   31369   31369       0   31371   31372   31373   31372   31373
   31373       0   31375   31376   31377   31376   31377   31377       0   31379
   31380   31381   31380   31381   31381       0   31383   31384   31385   31384
   31385   31385       0   31387   31388   31389   31388   31389   31389       0
   31391   31392   31393   31392   31393   31393       0   31395   31396   31397
   31396   31397   31397       0   31399   31400   31401   31400   31401   31401
       0   31403   31404   31405   31404   31405   31405       0   31407   31408
   31409   31408   31409   31409       0   31411   31412   31413   31412   31413
   31413       0   31415   31416   31417   31416   31417   31417       0   31419
   31420   31421   31420   31421   31421       0   31423   31424   31425   31424
   31425   31425       0   31427   31428   31429   31428   31429   31429       0
   31431   31432   31433   31432   31433   31433       0   31435   31436   31437
   31436   31437   31437       0   31439   31440   31441   31440   31441   31441
       0   31443   31444   31445   31444   31445   31445       0   31447   31448
   31449   31448   31449   31449       0   31451   31452   31453   31452   31453
   31453       0   31455   31456   31457   31456   31457   31457       0   31459
   31460   31461   31460   31461   31461       0   31463   31464   31465   31464
   31465   31465       0   31467   31468   31469   31468   31469   31469       0
   31471   31472   31473   31472   31473   31473       0   31475   31476   31477
   31476   31477   31477       0   31479   31480   31481   31480   31481   31481
       0   31483   31484   31485   31484   31485   31485       0   31487   31488
   31489   31488   31489   31489       0   31491   31492   31493   31492   31493
   31493       0   31495   31496   31497   31496   31497   31497       0   31499
   31500   31501   31500   31501   31501       0   31503   31504   31505   31504
   31505   31505       0   31507   31508   31509   31508   31509   31509       0
   31511   31512   31513   31512   31513   31513       0   31515   31516   31517
   31516   31517   31517       0   31519   31520   31521   31520   31521   31521
       0   31523   31524   31525   31524   31525   31525       0   31527   31528
   31529   31528   31529   31529       0   31531   31532   31533   31532   31533
   31533       0   31535   31536   31537   31536   31537   31537       0   31539
   31540   31541   31540   31541   31541       0   31543   31544   31545   31544
   31545   31545       0   31547   31548   31549   31548   31549   31549       0
   31551   31552   31553   31552   31553   31553       0   31555   31556   31557
   31556   31557   31557       0   31559   31560   31561   31560   31561   31561
       0   31563   31564   31565   31564   31565   31565       0   31567   31568
   31569   31568   31569   31569       0   31571   31572   31573   31572   31573
   31573       0   31575   31576   31577   31576   31577   31577       0   31579
   31580   31581   31580   31581   31581       0   31583   31584   31585   31584
   31585   31585       0   31587   31588   31589   31588   31589   31589       0
   31591   31592   31593   31592   31593   31593       0   31595   31596   31597
   31596   31597   31597       0   31599   31600   31601   31600   31601   31601
       0   31603   31604   31605   31604   31605   31605       0   31607   31608
   31609   31608   31609   31609       0   31611   31612   31613   31612   31613
   31613       0   31615   31616   31617   31616   31617   31617       0   31619
   31620   31621   31620   31621   31621       0   31623   31624   31625   31624
   31625   31625       0   31627   31628   31629   31628   31629   31629       0
   31631   31632   31633   31632   31633   31633       0   31635   31636   31637
   31636   31637   31637       0   31639   31640   31641   31640   31641   31641
       0   31643   31644   31645   31644   31645   31645       0   31647   31648
   31649   31648   31649   31649       0   31651   31652   31653   31652   31653
   31653       0   31655   31656   31657   31656   31657   31657       0   31659
   31660   31661   31660   31661   31661       0   31663   31664   31665   31664
   31665   31665       0   31667   31668   31669   31668   31669   31669       0
   31671   31672   31673   31672   31673   31673       0   31675   31676   31677
   31676   31677   31677       0   31679   31680   31681   31680   31681   31681
       0   31683   31684   31685   31684   31685   31685       0   31687   31688
   31689   31688   31689   31689       0   31691   31692   31693   31692   31693
   31693       0   31695   31696   31697   31696   31697   31697       0   31699
   31700   31701   31700   31701   31701       0   31703   31704   31705   31704
   31705   31705       0   31707   31708   31709   31708   31709   31709       0
   31711   31712   31713   31712   31713   31713       0   31715   31716   31717
   31716   31717   31717       0   31719   31720   31721   31720   31721   31721
       0   31723   31724   31725   31724   31725   31725       0   31727   31728
   31729   31728   31729   31729       0   31731   31732   31733   31732   31733
   31733       0   31735   31736   31737   31736   31737   31737       0   31739
   31740   31741   31740   31741   31741       0   31743   31744   31745   31744
   31745   31745       0   31747   31748   31749   31748   31749   31749       0
   31751   31752   31753   31752   31753   31753       0   31755   31756   31757
   31756   31757   31757       0   31759   31760   31761   31760   31761   31761
       0   31763   31764   31765   31764   31765   31765       0   31767   31768
   31769   31768   31769   31769       0   31771   31772   31773   31772   31773
   31773       0   31775   31776   31777   31776   31777   31777       0   31779
   31780   31781   31780   31781   31781       0   31783   31784   31785   31784
   31785   31785       0   31787   31788   31789   31788   31789   31789       0
   31791   31792   31793   31792   31793   31793       0   31795   31796   31797
   31796   31797   31797       0   31799   31800   31801   31800   31801   31801
       0   31803   31804   31805   31804   31805   31805       0   31807   31808
   31809   31808   31809   31809       0   31811   31812   31813   31812   31813
   31813       0   31815   31816   31817   31816   31817   31817       0   31819
   31820   31821   31820   31821   31821       0   31823   31824   31825   31824
   31825   31825       0   31827   31828   31829   31828   31829   31829       0
   31831   31832   31833   31832   31833   31833       0   31835   31836   31837
   31836   31837   31837       0   31839   31840   31841   31840   31841   31841
       0   31843   31844   31845   31844   31845   31845       0   31847   31848
   31849   31848   31849   31849       0   31851   31852   31853   31852   31853
   31853       0   31855   31856   31857   31856   31857   31857       0   31859
   31860   31861   31860   31861   31861       0   31863   31864   31865   31864
   31865   31865       0   31867   31868   31869   31868   31869   31869       0
   31871   31872   31873   31872   31873   31873       0   31875   31876   31877
   31876   31877   31877       0   31879   31880   31881   31880   31881   31881
       0   31883   31884   31885   31884   31885   31885       0   31887   31888
   31889   31888   31889   31889       0   31891   31892   31893   31892   31893
   31893       0   31895   31896   31897   31896   31897   31897       0   31899
   31900   31901   31900   31901   31901       0   31903   31904   31905   31904
   31905   31905       0   31907   31908   31909   31908   31909   31909       0
   31911   31912   31913   31912   31913   31913       0   31915   31916   31917
   31916   31917   31917       0   31919   31920   31921   31920   31921   31921
       0   31923   31924   31925   31924   31925   31925       0   31927   31928
   31929   31928   31929   31929       0   31931   31932   31933   31932   31933
   31933       0   31935   31936   31937   31936   31937   31937       0   31939
   31940   31941   31940   31941   31941       0   31943   31944   31945   31944
   31945   31945       0   31947   31948   31949   31948   31949   31949       0
   31951   31952   31953   31952   31953   31953       0   31955   31956   31957
   31956   31957   31957       0   31959   31960   31961   31960   31961   31961
       0   31963   31964   31965   31964   31965   31965       0   31967   31968
   31969   31968   31969   31969       0   31971   31972   31973   31972   31973
   31973       0   31975   31976   31977   31976   31977   31977       0   31979
   31980   31981   31980   31981   31981       0   31983   31984   31985   31984
   31985   31985       0   31987   31988   31989   31988   31989   31989       0
   31991   31992   31993   31992   31993   31993       0   31995   31996   31997
   31996   31997   31997       0   31999   32000   32001   32000   32001   32001
       0   32003   32004   32005   32004   32005   32005       0   32007   32008
   32009   32008   32009   32009       0   32011   32012   32013   32012   32013
   32013       0   32015   32016   32017   32016   32017   32017       0   32019
   32020   32021   32020   32021   32021       0   32023   32024   32025   32024
   32025   32025       0   32027   32028   32029   32028   32029   32029       0
   32031   32032   32033   32032   32033   32033       0   32035   32036   32037
   32036   32037   32037       0   32039   32040   32041   32040   32041   32041
       0   32043   32044   32045   32044   32045   32045       0   32047   32048
   32049   32048   32049   32049       0   32051   32052   32053   32052   32053
   32053       0   32055   32056   32057   32056   32057   32057       0   32059
   32060   32061   32060   32061   32061       0   32063   32064   32065   32064
   32065   32065       0   32067   32068   32069   32068   32069   32069       0
   32071   32072   32073   32072   32073   32073       0   32075   32076   32077
   32076   32077   32077       0   32079   32080   32081   32080   32081   32081
       0   32083   32084   32085   32084   32085   32085       0   32087   32088
   32089   32088   32089   32089       0   32091   32092   32093   32092   32093
   32093       0   32095   32096   32097   32096   32097   32097       0   32099
   32100   32101   32100   32101   32101       0   32103   32104   32105   32104
   32105   32105       0   32107   32108   32109   32108   32109   32109       0
   32111   32112   32113   32112   32113   32113       0   32115   32116   32117
   32116   32117   32117       0   32119   32120   32121   32120   32121   32121
       0   32123   32124   32125   32124   32125   32125       0   32127   32128
   32129   32128   32129   32129       0   32131   32132   32133   32132   32133
   32133       0   32135   32136   32137   32136   32137   32137       0   32139
   32140   32141   32140   32141   32141       0   32143   32144   32145   32144
   32145   32145       0   32147   32148   32149   32148   32149   32149       0
   32151   32152   32153   32152   32153   32153       0   32155   32156   32157
   32156   32157   32157       0   32159   32160   32161   32160   32161   32161
       0   32163   32164   32165   32164   32165   32165       0   32167   32168
   32169   32168   32169   32169       0   32171   32172   32173   32172   32173
   32173       0   32175   32176   32177   32176   32177   32177       0   32179
   32180   32181   32180   32181   32181       0   32183   32184   32185   32184
   32185   32185       0   32187   32188   32189   32188   32189   32189       0
   32191   32192   32193   32192   32193   32193       0   32195   32196   32197
   32196   32197   32197       0   32199   32200   32201   32200   32201   32201
       0   32203   32204   32205   32204   32205   32205       0   32207   32208
   32209   32208   32209   32209       0   32211   32212   32213   32212   32213
   32213       0   32215   32216   32217   32216   32217   32217       0   32219
   32220   32221   32220   32221   32221       0   32223   32224   32225   32224
   32225   32225       0   32227   32228   32229   32228   32229   32229       0
   32231   32232   32233   32232   32233   32233       0   32235   32236   32237
   32236   32237   32237       0   32239   32240   32241   32240   32241   32241
       0   32243   32244   32245   32244   32245   32245       0   32247   32248
   32249   32248   32249   32249       0   32251   32252   32253   32252   32253
   32253       0   32255   32256   32257   32256   32257   32257       0   32259
   32260   32261   32260   32261   32261       0   32263   32264   32265   32264
   32265   32265       0   32267   32268   32269   32268   32269   32269       0
   32271   32272   32273   32272   32273   32273       0   32275   32276   32277
   32276   32277   32277       0   32279   32280   32281   32280   32281   32281
       0   32283   32284   32285   32284   32285   32285       0   32287   32288
   32289   32288   32289   32289       0   32291   32292   32293   32292   32293
   32293       0   32295   32296   32297   32296   32297   32297       0   32299
   32300   32301   32300   32301   32301       0   32303   32304   32305   32304
   32305   32305       0   32307   32308   32309   32308   32309   32309       0
   32311   32312   32313   32312   32313   32313       0   32315   32316   32317
   32316   32317   32317       0   32319   32320   32321   32320   32321   32321
       0   32323   32324   32325   32324   32325   32325       0   32327   32328
   32329   32328   32329   32329       0   32331   32332   32333   32332   32333
   32333       0   32335   32336   32337   32336   32337   32337       0   32339
   32340   32341   32340   32341   32341       0   32343   32344   32345   32344
   32345   32345       0   32347   32348   32349   32348   32349   32349       0
   32351   32352   32353   32352   32353   32353       0   32355   32356   32357
   32356   32357   32357       0   32359   32360   32361   32360   32361   32361
       0   32363   32364   32365   32364   32365   32365       0   32367   32368
   32369   32368   32369   32369       0   32371   32372   32373   32372   32373
   32373       0   32375   32376   32377   32376   32377   32377       0   32379
   32380   32381   32380   32381   32381       0   32383   32384   32385   32384
   32385   32385       0   32387   32388   32389   32388   32389   32389       0
   32391   32392   32393   32392   32393   32393       0   32395   32396   32397
   32396   32397   32397       0   32399   32400   32401   32400   32401   32401
       0   32403   32404   32405   32404   32405   32405       0   32407   32408
   32409   32408   32409   32409       0   32411   32412   32413   32412   32413
   32413       0   32415   32416   32417   32416   32417   32417       0   32419
   32420   32421   32420   32421   32421       0   32423   32424   32425   32424
   32425   32425       0   32427   32428   32429   32428   32429   32429       0
   32431   32432   32433   32432   32433   32433       0   32435   32436   32437
   32436   32437   32437       0   32439   32440   32441   32440   32441   32441
       0   32443   32444   32445   32444   32445   32445       0   32447   32448
   32449   32448   32449   32449       0   32451   32452   32453   32452   32453
   32453       0   32455   32456   32457   32456   32457   32457       0   32459
   32460   32461   32460   32461   32461       0   32463   32464   32465   32464
   32465   32465       0   32467   32468   32469   32468   32469   32469       0
   32471   32472   32473   32472   32473   32473       0   32475   32476   32477
   32476   32477   32477       0   32479   32480   32481   32480   32481   32481
       0   32483   32484   32485   32484   32485   32485       0   32487   32488
   32489   32488   32489   32489       0   32491   32492   32493   32492   32493
   32493       0   32495   32496   32497   32496   32497   32497       0   32499
   32500   32501   32500   32501   32501       0   32503   32504   32505   32504
   32505   32505       0   32507   32508   32509   32508   32509   32509       0
   32511   32512   32513   32512   32513   32513       0   32515   32516   32517
   32516   32517   32517       0   32519   32520   32521   32520   32521   32521
       0   32523   32524   32525   32524   32525   32525       0   32527   32528
   32529   32528   32529   32529       0   32531   32532   32533   32532   32533
   32533       0   32535   32536   32537   32536   32537   32537       0   32539
   32540   32541   32540   32541   32541       0   32543   32544   32545   32544
   32545   32545       0   32547   32548   32549   32548   32549   32549       0
   32551   32552   32553   32552   32553   32553       0   32555   32556   32557
   32556   32557   32557       0   32559   32560   32561   32560   32561   32561
       0   32563   32564   32565   32564   32565   32565       0   32567   32568
   32569   32568   32569   32569       0   32571   32572   32573   32572   32573
   32573       0   32575   32576   32577   32576   32577   32577       0   32579
   32580   32581   32580   32581   32581       0   32583   32584   32585   32584
   32585   32585       0   32587   32588   32589   32588   32589   32589       0
   32591   32592   32593   32592   32593   32593       0   32595   32596   32597
   32596   32597   32597       0   32599   32600   32601   32600   32601   32601
       0   32603   32604   32605   32604   32605   32605       0   32607   32608
   32609   32608   32609   32609       0   32611   32612   32613   32612   32613
   32613       0   32615   32616   32617   32616   32617   32617       0   32619
   32620   32621   32620   32621   32621       0   32623   32624   32625   32624
   32625   32625       0   32627   32628   32629   32628   32629   32629       0
   32631   32632   32633   32632   32633   32633       0   32635   32636   32637
   32636   32637   32637       0   32639   32640   32641   32640   32641   32641
       0   32643   32644   32645   32644   32645   32645       0   32647   32648
   32649   32648   32649   32649       0   32651   32652   32653   32652   32653
   32653       0   32655   32656   32657   32656   32657   32657       0   32659
   32660   32661   32660   32661   32661       0   32663   32664   32665   32664
   32665   32665       0   32667   32668   32669   32668   32669   32669       0
   32671   32672   32673   32672   32673   32673       0   32675   32676   32677
   32676   32677   32677       0   32679   32680   32681   32680   32681   32681
       0   32683   32684   32685   32684   32685   32685       0   32687   32688
   32689   32688   32689   32689       0   32691   32692   32693   32692   32693
   32693       0   32695   32696   32697   32696   32697   32697       0   32699
   32700   32701   32700   32701   32701       0   32703   32704   32705   32704
   32705   32705       0   32707   32708   32709   32708   32709   32709       0
   32711   32712   32713   32712   32713   32713       0   32715   32716   32717
   32716   32717   32717       0   32719   32720   32721   32720   32721   32721
       0   32723   32724   32725   32724   32725   32725       0   32727   32728
   32729   32728   32729   32729       0   32731   32732   32733   32732   32733
   32733       0   32735   32736   32737   32736   32737   32737       0   32739
   32740   32741   32740   32741   32741       0   32743   32744   32745   32744
   32745   32745       0   32747   32748   32749   32748   32749   32749       0
   32751   32752   32753   32752   32753   32753       0   32755   32756   32757
   32756   32757   32757       0   32759   32760   32761   32760   32761   32761
       0   32763   32764   32765   32764   32765   32765       0   32767   32768
   32769   32768   32769   32769       0   32771   32772   32773   32772   32773
   32773       0   32775   32776   32777   32776   32777   32777       0   32779
   32780   32781   32780   32781   32781       0   32783   32784   32785   32784
   32785   32785       0   32787   32788   32789   32788   32789   32789       0
   32791   32792   32793   32792   32793   32793       0   32795   32796   32797
   32796   32797   32797       0   32799   32800   32801   32800   32801   32801
       0   32803   32804   32805   32804   32805   32805       0   32807   32808
   32809   32808   32809   32809       0   32811   32812   32813   32812   32813
   32813       0   32815   32816   32817   32816   32817   32817       0   32819
   32820   32821   32820   32821   32821       0   32823   32824   32825   32824
   32825   32825       0   32827   32828   32829   32828   32829   32829       0
   32831   32832   32833   32832   32833   32833       0   32835   32836   32837
   32836   32837   32837       0   32839   32840   32841   32840   32841   32841
       0   32843   32844   32845   32844   32845   32845       0   32847   32848
   32849   32848   32849   32849       0   32851   32852   32853   32852   32853
   32853       0   32855   32856   32857   32856   32857   32857       0   32859
   32860   32861   32860   32861   32861       0   32863   32864   32865   32864
   32865   32865       0   32867   32868   32869   32868   32869   32869       0
   32871   32872   32873   32872   32873   32873       0   32875   32876   32877
   32876   32877   32877       0   32879   32880   32881   32880   32881   32881
       0   32883   32884   32885   32884   32885   32885       0   32887   32888
   32889   32888   32889   32889       0   32891   32892   32893   32892   32893
   32893       0   32895   32896   32897   32896   32897   32897       0   32899
   32900   32901   32900   32901   32901       0   32903   32904   32905   32904
   32905   32905       0   32907   32908   32909   32908   32909   32909       0
   32911   32912   32913   32912   32913   32913       0   32915   32916   32917
   32916   32917   32917       0   32919   32920   32921   32920   32921   32921
       0   32923   32924   32925   32924   32925   32925       0   32927   32928
   32929   32928   32929   32929       0   32931   32932   32933   32932   32933
   32933       0   32935   32936   32937   32936   32937   32937       0   32939
   32940   32941   32940   32941   32941       0   32943   32944   32945   32944
   32945   32945       0   32947   32948   32949   32948   32949   32949       0
   32951   32952   32953   32952   32953   32953       0   32955   32956   32957
   32956   32957   32957       0   32959   32960   32961   32960   32961   32961
       0   32963   32964   32965   32964   32965   32965       0   32967   32968
   32969   32968   32969   32969       0   32971   32972   32973   32972   32973
   32973       0   32975   32976   32977   32976   32977   32977       0   32979
   32980   32981   32980   32981   32981       0   32983   32984   32985   32984
   32985   32985       0   32987   32988   32989   32988   32989   32989       0
   32991   32992   32993   32992   32993   32993       0   32995   32996   32997
   32996   32997   32997       0   32999   33000   33001   33000   33001   33001
       0   33003   33004   33005   33004   33005   33005       0   33007   33008
   33009   33008   33009   33009       0   33011   33012   33013   33012   33013
   33013       0   33015   33016   33017   33016   33017   33017       0   33019
   33020   33021   33020   33021   33021       0   33023   33024   33025   33024
   33025   33025       0   33027   33028   33029   33028   33029   33029       0
   33031   33032   33033   33032   33033   33033       0   33035   33036   33037
   33036   33037   33037       0   33039   33040   33041   33040   33041   33041
       0   33043   33044   33045   33044   33045   33045       0   33047   33048
   33049   33048   33049   33049       0   33051   33052   33053   33052   33053
   33053       0   33055   33056   33057   33056   33057   33057       0   33059
   33060   33061   33060   33061   33061       0   33063   33064   33065   33064
   33065   33065       0   33067   33068   33069   33068   33069   33069       0
   33071   33072   33073   33072   33073   33073       0   33075   33076   33077
   33076   33077   33077       0   33079   33080   33081   33080   33081   33081
       0   33083   33084   33085   33084   33085   33085       0   33087   33088
   33089   33088   33089   33089       0   33091   33092   33093   33092   33093
   33093       0   33095   33096   33097   33096   33097   33097       0   33099
   33100   33101   33100   33101   33101       0   33103   33104   33105   33104
   33105   33105       0   33107   33108   33109   33108   33109   33109       0
   33111   33112   33113   33112   33113   33113       0   33115   33116   33117
   33116   33117   33117       0   33119   33120   33121   33120   33121   33121
       0   33123   33124   33125   33124   33125   33125       0   33127   33128
   33129   33128   33129   33129       0   33131   33132   33133   33132   33133
   33133       0   33135   33136   33137   33136   33137   33137       0   33139
   33140   33141   33140   33141   33141       0   33143   33144   33145   33144
   33145   33145       0   33147   33148   33149   33148   33149   33149       0
   33151   33152   33153   33152   33153   33153       0   33155   33156   33157
   33156   33157   33157       0   33159   33160   33161   33160   33161   33161
       0   33163   33164   33165   33164   33165   33165       0   33167   33168
   33169   33168   33169   33169       0   33171   33172   33173   33172   33173
   33173       0   33175   33176   33177   33176   33177   33177       0   33179
   33180   33181   33180   33181   33181       0   33183   33184   33185   33184
   33185   33185       0   33187   33188   33189   33188   33189   33189       0
   33191   33192   33193   33192   33193   33193       0   33195   33196   33197
   33196   33197   33197       0   33199   33200   33201   33200   33201   33201
       0   33203   33204   33205   33204   33205   33205       0   33207   33208
   33209   33208   33209   33209       0   33211   33212   33213   33212   33213
   33213       0   33215   33216   33217   33216   33217   33217       0   33219
   33220   33221   33220   33221   33221       0   33223   33224   33225   33224
   33225   33225       0   33227   33228   33229   33228   33229   33229       0
   33231   33232   33233   33232   33233   33233       0   33235   33236   33237
   33236   33237   33237       0   33239   33240   33241   33240   33241   33241
       0   33243   33244   33245   33244   33245   33245       0   33247   33248
   33249   33248   33249   33249       0   33251   33252   33253   33252   33253
   33253       0   33255   33256   33257   33256   33257   33257       0   33259
   33260   33261   33260   33261   33261       0   33263   33264   33265   33264
   33265   33265       0   33267   33268   33269   33268   33269   33269       0
   33271   33272   33273   33272   33273   33273       0   33275   33276   33277
   33276   33277   33277       0   33279   33280   33281   33280   33281   33281
       0   33283   33284   33285   33284   33285   33285       0   33287   33288
   33289   33288   33289   33289       0   33291   33292   33293   33292   33293
   33293       0   33295   33296   33297   33296   33297   33297       0   33299
   33300   33301   33300   33301   33301       0   33303   33304   33305   33304
   33305   33305       0   33307   33308   33309   33308   33309   33309       0
   33311   33312   33313   33312   33313   33313       0   33315   33316   33317
   33316   33317   33317       0   33319   33320   33321   33320   33321   33321
       0   33323   33324   33325   33324   33325   33325       0   33327   33328
   33329   33328   33329   33329       0   33331   33332   33333   33332   33333
   33333       0   33335   33336   33337   33336   33337   33337       0   33339
   33340   33341   33340   33341   33341       0   33343   33344   33345   33344
   33345   33345       0   33347   33348   33349   33348   33349   33349       0
   33351   33352   33353   33352   33353   33353       0   33355   33356   33357
   33356   33357   33357       0   33359   33360   33361   33360   33361   33361
       0   33363   33364   33365   33364   33365   33365       0   33367   33368
   33369   33368   33369   33369       0   33371   33372   33373   33372   33373
   33373       0   33375   33376   33377   33376   33377   33377       0   33379
   33380   33381   33380   33381   33381       0   33383   33384   33385   33384
   33385   33385       0   33387   33388   33389   33388   33389   33389       0
   33391   33392   33393   33392   33393   33393       0   33395   33396   33397
   33396   33397   33397       0   33399   33400   33401   33400   33401   33401
       0   33403   33404   33405   33404   33405   33405       0   33407   33408
   33409   33408   33409   33409       0   33411   33412   33413   33412   33413
   33413       0   33415   33416   33417   33416   33417   33417       0   33419
   33420   33421   33420   33421   33421       0   33423   33424   33425   33424
   33425   33425       0   33427   33428   33429   33428   33429   33429       0
   33431   33432   33433   33432   33433   33433       0   33435   33436   33437
   33436   33437   33437       0   33439   33440   33441   33440   33441   33441
       0   33443   33444   33445   33444   33445   33445       0   33447   33448
   33449   33448   33449   33449       0   33451   33452   33453   33452   33453
   33453       0   33455   33456   33457   33456   33457   33457       0   33459
   33460   33461   33460   33461   33461       0   33463   33464   33465   33464
   33465   33465       0   33467   33468   33469   33468   33469   33469       0
   33471   33472   33473   33472   33473   33473       0   33475   33476   33477
   33476   33477   33477       0   33479   33480   33481   33480   33481   33481
       0   33483   33484   33485   33484   33485   33485       0   33487   33488
   33489   33488   33489   33489       0   33491   33492   33493   33492   33493
   33493       0   33495   33496   33497   33496   33497   33497       0   33499
   33500   33501   33500   33501   33501       0   33503   33504   33505   33504
   33505   33505       0   33507   33508   33509   33508   33509   33509       0
   33511   33512   33513   33512   33513   33513       0   33515   33516   33517
   33516   33517   33517       0   33519   33520   33521   33520   33521   33521
       0   33523   33524   33525   33524   33525   33525       0   33527   33528
   33529   33528   33529   33529       0   33531   33532   33533   33532   33533
   33533       0   33535   33536   33537   33536   33537   33537       0   33539
   33540   33541   33540   33541   33541       0   33543   33544   33545   33544
   33545   33545       0   33547   33548   33549   33548   33549   33549       0
   33551   33552   33553   33552   33553   33553       0   33555   33556   33557
   33556   33557   33557       0   33559   33560   33561   33560   33561   33561
       0   33563   33564   33565   33564   33565   33565       0   33567   33568
   33569   33568   33569   33569       0   33571   33572   33573   33572   33573
   33573       0   33575   33576   33577   33576   33577   33577       0   33579
   33580   33581   33580   33581   33581       0   33583   33584   33585   33584
   33585   33585       0   33587   33588   33589   33588   33589   33589       0
   33591   33592   33593   33592   33593   33593       0   33595   33596   33597
   33596   33597   33597       0   33599   33600   33601   33600   33601   33601
       0   33603   33604   33605   33604   33605   33605       0   33607   33608
   33609   33608   33609   33609       0   33611   33612   33613   33612   33613
   33613       0   33615   33616   33617   33616   33617   33617       0   33619
   33620   33621   33620   33621   33621       0   33623   33624   33625   33624
   33625   33625       0   33627   33628   33629   33628   33629   33629       0
   33631   33632   33633   33632   33633   33633       0   33635   33636   33637
   33636   33637   33637       0   33639   33640   33641   33640   33641   33641
       0   33643   33644   33645   33644   33645   33645       0   33647   33648
   33649   33648   33649   33649       0   33651   33652   33653   33652   33653
   33653       0   33655   33656   33657   33656   33657   33657       0   33659
   33660   33661   33660   33661   33661       0   33663   33664   33665   33664
   33665   33665       0   33667   33668   33669   33668   33669   33669       0
   33671   33672   33673   33672   33673   33673       0   33675   33676   33677
   33676   33677   33677       0   33679   33680   33681   33680   33681   33681
       0   33683   33684   33685   33684   33685   33685       0   33687   33688
   33689   33688   33689   33689       0   33691   33692   33693   33692   33693
   33693       0   33695   33696   33697   33696   33697   33697       0   33699
   33700   33701   33700   33701   33701       0   33703   33704   33705   33704
   33705   33705       0   33707   33708   33709   33708   33709   33709       0
   33711   33712   33713   33712   33713   33713       0   33715   33716   33717
   33716   33717   33717       0   33719   33720   33721   33720   33721   33721
       0   33723   33724   33725   33724   33725   33725       0   33727   33728
   33729   33728   33729   33729       0   33731   33732   33733   33732   33733
   33733       0   33735   33736   33737   33736   33737   33737       0   33739
   33740   33741   33740   33741   33741       0   33743   33744   33745   33744
   33745   33745       0   33747   33748   33749   33748   33749   33749       0
   33751   33752   33753   33752   33753   33753       0   33755   33756   33757
   33756   33757   33757       0   33759   33760   33761   33760   33761   33761
       0   33763   33764   33765   33764   33765   33765       0   33767   33768
   33769   33768   33769   33769       0   33771   33772   33773   33772   33773
   33773       0   33775   33776   33777   33776   33777   33777       0   33779
   33780   33781   33780   33781   33781       0   33783   33784   33785   33784
   33785   33785       0   33787   33788   33789   33788   33789   33789       0
   33791   33792   33793   33792   33793   33793       0   33795   33796   33797
   33796   33797   33797       0   33799   33800   33801   33800   33801   33801
       0   33803   33804   33805   33804   33805   33805       0   33807   33808
   33809   33808   33809   33809       0   33811   33812   33813   33812   33813
   33813       0   33815   33816   33817   33816   33817   33817       0   33819
   33820   33821   33820   33821   33821       0   33823   33824   33825   33824
   33825   33825       0   33827   33828   33829   33828   33829   33829       0
   33831   33832   33833   33832   33833   33833       0   33835   33836   33837
   33836   33837   33837       0   33839   33840   33841   33840   33841   33841
       0   33843   33844   33845   33844   33845   33845       0   33847   33848
   33849   33848   33849   33849       0   33851   33852   33853   33852   33853
   33853       0   33855   33856   33857   33856   33857   33857       0   33859
   33860   33861   33860   33861   33861       0   33863   33864   33865   33864
   33865   33865       0   33867   33868   33869   33868   33869   33869       0
   33871   33872   33873   33872   33873   33873       0   33875   33876   33877
   33876   33877   33877       0   33879   33880   33881   33880   33881   33881
       0   33883   33884   33885   33884   33885   33885       0   33887   33888
   33889   33888   33889   33889       0   33891   33892   33893   33892   33893
   33893       0   33895   33896   33897   33896   33897   33897       0   33899
   33900   33901   33900   33901   33901       0   33903   33904   33905   33904
   33905   33905       0   33907   33908   33909   33908   33909   33909       0
   33911   33912   33913   33912   33913   33913       0   33915   33916   33917
   33916   33917   33917       0   33919   33920   33921   33920   33921   33921
       0   33923   33924   33925   33924   33925   33925       0   33927   33928
   33929   33928   33929   33929       0   33931   33932   33933   33932   33933
   33933       0   33935   33936   33937   33936   33937   33937       0   33939
   33940   33941   33940   33941   33941       0   33943   33944   33945   33944
   33945   33945       0   33947   33948   33949   33948   33949   33949       0
   33951   33952   33953   33952   33953   33953       0   33955   33956   33957
   33956   33957   33957       0   33959   33960   33961   33960   33961   33961
       0   33963   33964   33965   33964   33965   33965       0   33967   33968
   33969   33968   33969   33969       0   33971   33972   33973   33972   33973
   33973       0   33975   33976   33977   33976   33977   33977       0   33979
   33980   33981   33980   33981   33981       0   33983   33984   33985   33984
   33985   33985       0   33987   33988   33989   33988   33989   33989       0
   33991   33992   33993   33992   33993   33993       0   33995   33996   33997
   33996   33997   33997       0   33999   34000   34001   34000   34001   34001
       0   34003   34004   34005   34004   34005   34005       0   34007   34008
   34009   34008   34009   34009       0   34011   34012   34013   34012   34013
   34013       0   34015   34016   34017   34016   34017   34017       0   34019
   34020   34021   34020   34021   34021       0   34023   34024   34025   34024
   34025   34025       0   34027   34028   34029   34028   34029   34029       0
   34031   34032   34033   34032   34033   34033       0   34035   34036   34037
   34036   34037   34037       0   34039   34040   34041   34040   34041   34041
       0   34043   34044   34045   34044   34045   34045       0   34047   34048
   34049   34048   34049   34049       0   34051   34052   34053   34052   34053
   34053       0   34055   34056   34057   34056   34057   34057       0   34059
   34060   34061   34060   34061   34061       0   34063   34064   34065   34064
   34065   34065       0   34067   34068   34069   34068   34069   34069       0
   34071   34072   34073   34072   34073   34073       0   34075   34076   34077
   34076   34077   34077       0   34079   34080   34081   34080   34081   34081
       0   34083   34084   34085   34084   34085   34085       0   34087   34088
   34089   34088   34089   34089       0   34091   34092   34093   34092   34093
   34093       0   34095   34096   34097   34096   34097   34097       0   34099
   34100   34101   34100   34101   34101       0   34103   34104   34105   34104
   34105   34105       0   34107   34108   34109   34108   34109   34109       0
   34111   34112   34113   34112   34113   34113       0   34115   34116   34117
   34116   34117   34117       0   34119   34120   34121   34120   34121   34121
       0   34123   34124   34125   34124   34125   34125       0   34127   34128
   34129   34128   34129   34129       0   34131   34132   34133   34132   34133
   34133       0   34135   34136   34137   34136   34137   34137       0   34139
   34140   34141   34140   34141   34141       0   34143   34144   34145   34144
   34145   34145       0   34147   34148   34149   34148   34149   34149       0
   34151   34152   34153   34152   34153   34153       0   34155   34156   34157
   34156   34157   34157       0   34159   34160   34161   34160   34161   34161
       0   34163   34164   34165   34164   34165   34165       0   34167   34168
   34169   34168   34169   34169       0   34171   34172   34173   34172   34173
   34173       0   34175   34176   34177   34176   34177   34177       0   34179
   34180   34181   34180   34181   34181       0   34183   34184   34185   34184
   34185   34185       0   34187   34188   34189   34188   34189   34189       0
   34191   34192   34193   34192   34193   34193       0   34195   34196   34197
   34196   34197   34197       0   34199   34200   34201   34200   34201   34201
       0   34203   34204   34205   34204   34205   34205       0   34207   34208
   34209   34208   34209   34209       0   34211   34212   34213   34212   34213
   34213       0   34215   34216   34217   34216   34217   34217       0   34219
   34220   34221   34220   34221   34221       0   34223   34224   34225   34224
   34225   34225       0   34227   34228   34229   34228   34229   34229       0
   34231   34232   34233   34232   34233   34233       0   34235   34236   34237
   34236   34237   34237       0   34239   34240   34241   34240   34241   34241
       0   34243   34244   34245   34244   34245   34245       0   34247   34248
   34249   34248   34249   34249       0   34251   34252   34253   34252   34253
   34253       0   34255   34256   34257   34256   34257   34257       0   34259
   34260   34261   34260   34261   34261       0   34263   34264   34265   34264
   34265   34265       0   34267   34268   34269   34268   34269   34269       0
   34271   34272   34273   34272   34273   34273       0   34275   34276   34277
   34276   34277   34277       0   34279   34280   34281   34280   34281   34281
       0   34283   34284   34285   34284   34285   34285       0   34287   34288
   34289   34288   34289   34289       0   34291   34292   34293   34292   34293
   34293       0   34295   34296   34297   34296   34297   34297       0   34299
   34300   34301   34300   34301   34301       0   34303   34304   34305   34304
   34305   34305       0   34307   34308   34309   34308   34309   34309       0
   34311   34312   34313   34312   34313   34313       0   34315   34316   34317
   34316   34317   34317       0   34319   34320   34321   34320   34321   34321
       0   34323   34324   34325   34324   34325   34325       0   34327   34328
   34329   34328   34329   34329       0   34331   34332   34333   34332   34333
   34333       0   34335   34336   34337   34336   34337   34337       0   34339
   34340   34341   34340   34341   34341       0   34343   34344   34345   34344
   34345   34345       0   34347   34348   34349   34348   34349   34349       0
   34351   34352   34353   34352   34353   34353       0   34355   34356   34357
   34356   34357   34357       0   34359   34360   34361   34360   34361   34361
       0   34363   34364   34365   34364   34365   34365       0   34367   34368
   34369   34368   34369   34369       0   34371   34372   34373   34372   34373
   34373       0   34375   34376   34377   34376   34377   34377       0   34379
   34380   34381   34380   34381   34381       0   34383   34384   34385   34384
   34385   34385       0   34387   34388   34389   34388   34389   34389       0
   34391   34392   34393   34392   34393   34393       0   34395   34396   34397
   34396   34397   34397       0   34399   34400   34401   34400   34401   34401
       0   34403   34404   34405   34404   34405   34405       0   34407   34408
   34409   34408   34409   34409       0   34411   34412   34413   34412   34413
   34413       0   34415   34416   34417   34416   34417   34417       0   34419
   34420   34421   34420   34421   34421       0   34423   34424   34425   34424
   34425   34425       0   34427   34428   34429   34428   34429   34429       0
   34431   34432   34433   34432   34433   34433       0   34435   34436   34437
   34436   34437   34437       0   34439   34440   34441   34440   34441   34441
       0   34443   34444   34445   34444   34445   34445       0   34447   34448
   34449   34448   34449   34449       0   34451   34452   34453   34452   34453
   34453       0   34455   34456   34457   34456   34457   34457       0   34459
   34460   34461   34460   34461   34461       0   34463   34464   34465   34464
   34465   34465       0   34467   34468   34469   34468   34469   34469       0
   34471   34472   34473   34472   34473   34473       0   34475   34476   34477
   34476   34477   34477       0   34479   34480   34481   34480   34481   34481
       0   34483   34484   34485   34484   34485   34485       0   34487   34488
   34489   34488   34489   34489       0   34491   34492   34493   34492   34493
   34493       0   34495   34496   34497   34496   34497   34497       0   34499
   34500   34501   34500   34501   34501       0   34503   34504   34505   34504
   34505   34505       0   34507   34508   34509   34508   34509   34509       0
   34511   34512   34513   34512   34513   34513       0   34515   34516   34517
   34516   34517   34517       0   34519   34520   34521   34520   34521   34521
       0   34523   34524   34525   34524   34525   34525       0   34527   34528
   34529   34528   34529   34529       0   34531   34532   34533   34532   34533
   34533       0   34535   34536   34537   34536   34537   34537       0   34539
   34540   34541   34540   34541   34541       0   34543   34544   34545   34544
   34545   34545       0   34547   34548   34549   34548   34549   34549       0
   34551   34552   34553   34552   34553   34553       0   34555   34556   34557
   34556   34557   34557       0   34559   34560   34561   34560   34561   34561
       0   34563   34564   34565   34564   34565   34565       0   34567   34568
   34569   34568   34569   34569       0   34571   34572   34573   34572   34573
   34573       0   34575   34576   34577   34576   34577   34577       0   34579
   34580   34581   34580   34581   34581       0   34583   34584   34585   34584
   34585   34585       0   34587   34588   34589   34588   34589   34589       0
   34591   34592   34593   34592   34593   34593       0   34595   34596   34597
   34596   34597   34597       0   34599   34600   34601   34600   34601   34601
       0   34603   34604   34605   34604   34605   34605       0   34607   34608
   34609   34608   34609   34609       0   34611   34612   34613   34612   34613
   34613       0   34615   34616   34617   34616   34617   34617       0   34619
   34620   34621   34620   34621   34621       0   34623   34624   34625   34624
   34625   34625       0   34627   34628   34629   34628   34629   34629       0
   34631   34632   34633   34632   34633   34633       0   34635   34636   34637
   34636   34637   34637       0   34639   34640   34641   34640   34641   34641
       0   34643   34644   34645   34644   34645   34645       0   34647   34648
   34649   34648   34649   34649       0   34651   34652   34653   34652   34653
   34653       0   34655   34656   34657   34656   34657   34657       0   34659
   34660   34661   34660   34661   34661       0   34663   34664   34665   34664
   34665   34665       0   34667   34668   34669   34668   34669   34669       0
   34671   34672   34673   34672   34673   34673       0   34675   34676   34677
   34676   34677   34677       0   34679   34680   34681   34680   34681   34681
       0   34683   34684   34685   34684   34685   34685       0   34687   34688
   34689   34688   34689   34689       0   34691   34692   34693   34692   34693
   34693       0   34695   34696   34697   34696   34697   34697       0   34699
   34700   34701   34700   34701   34701       0   34703   34704   34705   34704
   34705   34705       0   34707   34708   34709   34708   34709   34709       0
   34711   34712   34713   34712   34713   34713       0   34715   34716   34717
   34716   34717   34717       0   34719   34720   34721   34720   34721   34721
       0   34723   34724   34725   34724   34725   34725       0   34727   34728
   34729   34728   34729   34729       0   34731   34732   34733   34732   34733
   34733       0   34735   34736   34737   34736   34737   34737       0   34739
   34740   34741   34740   34741   34741       0   34743   34744   34745   34744
   34745   34745       0   34747   34748   34749   34748   34749   34749       0
   34751   34752   34753   34752   34753   34753       0   34755   34756   34757
   34756   34757   34757       0   34759   34760   34761   34760   34761   34761
       0   34763   34764   34765   34764   34765   34765       0   34767   34768
   34769   34768   34769   34769       0   34771   34772   34773   34772   34773
   34773       0   34775   34776   34777   34776   34777   34777       0   34779
   34780   34781   34780   34781   34781       0   34783   34784   34785   34784
   34785   34785       0   34787   34788   34789   34788   34789   34789       0
   34791   34792   34793   34792   34793   34793       0   34795   34796   34797
   34796   34797   34797       0   34799   34800   34801   34800   34801   34801
       0   34803   34804   34805   34804   34805   34805       0   34807   34808
   34809   34808   34809   34809       0   34811   34812   34813   34812   34813
   34813       0   34815   34816   34817   34816   34817   34817       0   34819
   34820   34821   34820   34821   34821       0   34823   34824   34825   34824
   34825   34825       0   34827   34828   34829   34828   34829   34829       0
   34831   34832   34833   34832   34833   34833       0   34835   34836   34837
   34836   34837   34837       0   34839   34840   34841   34840   34841   34841
       0   34843   34844   34845   34844   34845   34845       0   34847   34848
   34849   34848   34849   34849       0   34851   34852   34853   34852   34853
   34853       0   34855   34856   34857   34856   34857   34857       0   34859
   34860   34861   34860   34861   34861       0   34863   34864   34865   34864
   34865   34865       0   34867   34868   34869   34868   34869   34869       0
   34871   34872   34873   34872   34873   34873       0   34875   34876   34877
   34876   34877   34877       0   34879   34880   34881   34880   34881   34881
       0   34883   34884   34885   34884   34885   34885       0   34887   34888
   34889   34888   34889   34889       0   34891   34892   34893   34892   34893
   34893       0   34895   34896   34897   34896   34897   34897       0   34899
   34900   34901   34900   34901   34901       0   34903   34904   34905   34904
   34905   34905       0   34907   34908   34909   34908   34909   34909       0
   34911   34912   34913   34912   34913   34913       0   34915   34916   34917
   34916   34917   34917       0   34919   34920   34921   34920   34921   34921
       0   34923   34924   34925   34924   34925   34925       0   34927   34928
   34929   34928   34929   34929       0   34931   34932   34933   34932   34933
   34933       0   34935   34936   34937   34936   34937   34937       0   34939
   34940   34941   34940   34941   34941       0   34943   34944   34945   34944
   34945   34945       0   34947   34948   34949   34948   34949   34949       0
   34951   34952   34953   34952   34953   34953       0   34955   34956   34957
   34956   34957   34957       0   34959   34960   34961   34960   34961   34961
       0   34963   34964   34965   34964   34965   34965       0   34967   34968
   34969   34968   34969   34969       0   34971   34972   34973   34972   34973
   34973       0   34975   34976   34977   34976   34977   34977       0   34979
   34980   34981   34980   34981   34981       0   34983   34984   34985   34984
   34985   34985       0   34987   34988   34989   34988   34989   34989       0
   34991   34992   34993   34992   34993   34993       0   34995   34996   34997
   34996   34997   34997       0   34999   35000   35001   35000   35001   35001
       0   35003   35004   35005   35004   35005   35005       0   35007   35008
   35009   35008   35009   35009       0   35011   35012   35013   35012   35013
   35013       0   35015   35016   35017   35016   35017   35017       0   35019
   35020   35021   35020   35021   35021       0   35023   35024   35025   35024
   35025   35025       0   35027   35028   35029   35028   35029   35029       0
   35031   35032   35033   35032   35033   35033       0   35035   35036   35037
   35036   35037   35037       0   35039   35040   35041   35040   35041   35041
       0   35043   35044   35045   35044   35045   35045       0   35047   35048
   35049   35048   35049   35049       0   35051   35052   35053   35052   35053
   35053       0   35055   35056   35057   35056   35057   35057       0   35059
   35060   35061   35060   35061   35061       0   35063   35064   35065   35064
   35065   35065       0   35067   35068   35069   35068   35069   35069       0
   35071   35072   35073   35072   35073   35073       0   35075   35076   35077
   35076   35077   35077       0   35079   35080   35081   35080   35081   35081
       0   35083   35084   35085   35084   35085   35085       0   35087   35088
   35089   35088   35089   35089       0   35091   35092   35093   35092   35093
   35093       0   35095   35096   35097   35096   35097   35097       0   35099
   35100   35101   35100   35101   35101       0   35103   35104   35105   35104
   35105   35105       0   35107   35108   35109   35108   35109   35109       0
   35111   35112   35113   35112   35113   35113       0   35115   35116   35117
   35116   35117   35117       0   35119   35120   35121   35120   35121   35121
       0   35123   35124   35125   35124   35125   35125       0   35127   35128
   35129   35128   35129   35129       0   35131   35132   35133   35132   35133
   35133       0   35135   35136   35137   35136   35137   35137       0   35139
   35140   35141   35140   35141   35141       0   35143   35144   35145   35144
   35145   35145       0   35147   35148   35149   35148   35149   35149       0
   35151   35152   35153   35152   35153   35153       0   35155   35156   35157
   35156   35157   35157       0   35159   35160   35161   35160   35161   35161
       0   35163   35164   35165   35164   35165   35165       0   35167   35168
   35169   35168   35169   35169       0   35171   35172   35173   35172   35173
   35173       0   35175   35176   35177   35176   35177   35177       0   35179
   35180   35181   35180   35181   35181       0   35183   35184   35185   35184
   35185   35185       0   35187   35188   35189   35188   35189   35189       0
   35191   35192   35193   35192   35193   35193       0   35195   35196   35197
   35196   35197   35197       0   35199   35200   35201   35200   35201   35201
       0   35203   35204   35205   35204   35205   35205       0   35207   35208
   35209   35208   35209   35209       0   35211   35212   35213   35212   35213
   35213       0   35215   35216   35217   35216   35217   35217       0   35219
   35220   35221   35220   35221   35221       0   35223   35224   35225   35224
   35225   35225       0   35227   35228   35229   35228   35229   35229       0
   35231   35232   35233   35232   35233   35233       0   35235   35236   35237
   35236   35237   35237       0   35239   35240   35241   35240   35241   35241
       0   35243   35244   35245   35244   35245   35245       0   35247   35248
   35249   35248   35249   35249       0   35251   35252   35253   35252   35253
   35253       0   35255   35256   35257   35256   35257   35257       0   35259
   35260   35261   35260   35261   35261       0   35263   35264   35265   35264
   35265   35265       0   35267   35268   35269   35268   35269   35269       0
   35271   35272   35273   35272   35273   35273       0   35275   35276   35277
   35276   35277   35277       0   35279   35280   35281   35280   35281   35281
       0   35283   35284   35285   35284   35285   35285       0   35287   35288
   35289   35288   35289   35289       0   35291   35292   35293   35292   35293
   35293       0   35295   35296   35297   35296   35297   35297       0   35299
   35300   35301   35300   35301   35301       0   35303   35304   35305   35304
   35305   35305       0   35307   35308   35309   35308   35309   35309       0
   35311   35312   35313   35312   35313   35313       0   35315   35316   35317
   35316   35317   35317       0   35319   35320   35321   35320   35321   35321
       0   35323   35324   35325   35324   35325   35325       0   35327   35328
   35329   35328   35329   35329       0   35331   35332   35333   35332   35333
   35333       0   35335   35336   35337   35336   35337   35337       0   35339
   35340   35341   35340   35341   35341       0   35343   35344   35345   35344
   35345   35345       0   35347   35348   35349   35348   35349   35349       0
   35351   35352   35353   35352   35353   35353       0   35355   35356   35357
   35356   35357   35357       0   35359   35360   35361   35360   35361   35361
       0   35363   35364   35365   35364   35365   35365       0   35367   35368
   35369   35368   35369   35369       0   35371   35372   35373   35372   35373
   35373       0   35375   35376   35377   35376   35377   35377       0   35379
   35380   35381   35380   35381   35381       0   35383   35384   35385   35384
   35385   35385       0   35387   35388   35389   35388   35389   35389       0
   35391   35392   35393   35392   35393   35393       0   35395   35396   35397
   35396   35397   35397       0   35399   35400   35401   35400   35401   35401
       0   35403   35404   35405   35404   35405   35405       0   35407   35408
   35409   35408   35409   35409       0   35411   35412   35413   35412   35413
   35413       0   35415   35416   35417   35416   35417   35417       0   35419
   35420   35421   35420   35421   35421       0   35423   35424   35425   35424
   35425   35425       0   35427   35428   35429   35428   35429   35429       0
   35431   35432   35433   35432   35433   35433       0   35435   35436   35437
   35436   35437   35437       0   35439   35440   35441   35440   35441   35441
       0   35443   35444   35445   35444   35445   35445       0   35447   35448
   35449   35448   35449   35449       0   35451   35452   35453   35452   35453
   35453       0   35455   35456   35457   35456   35457   35457       0   35459
   35460   35461   35460   35461   35461       0   35463   35464   35465   35464
   35465   35465       0   35467   35468   35469   35468   35469   35469       0
   35471   35472   35473   35472   35473   35473       0   35475   35476   35477
   35476   35477   35477       0   35479   35480   35481   35480   35481   35481
       0   35483   35484   35485   35484   35485   35485       0   35487   35488
   35489   35488   35489   35489       0   35491   35492   35493   35492   35493
   35493       0   35495   35496   35497   35496   35497   35497       0   35499
   35500   35501   35500   35501   35501       0   35503   35504   35505   35504
   35505   35505       0   35507   35508   35509   35508   35509   35509       0
   35511   35512   35513   35512   35513   35513       0   35515   35516   35517
   35516   35517   35517       0   35519   35520   35521   35520   35521   35521
       0   35523   35524   35525   35524   35525   35525       0   35527   35528
   35529   35528   35529   35529       0   35531   35532   35533   35532   35533
   35533       0   35535   35536   35537   35536   35537   35537       0   35539
   35540   35541   35540   35541   35541       0   35543   35544   35545   35544
   35545   35545       0   35547   35548   35549   35548   35549   35549       0
   35551   35552   35553   35552   35553   35553       0   35555   35556   35557
   35556   35557   35557       0   35559   35560   35561   35560   35561   35561
       0   35563   35564   35565   35564   35565   35565       0   35567   35568
   35569   35568   35569   35569       0   35571   35572   35573   35572   35573
   35573       0   35575   35576   35577   35576   35577   35577       0   35579
   35580   35581   35580   35581   35581       0   35583   35584   35585   35584
   35585   35585       0   35587   35588   35589   35588   35589   35589       0
   35591   35592   35593   35592   35593   35593       0   35595   35596   35597
   35596   35597   35597       0   35599   35600   35601   35600   35601   35601
       0   35603   35604   35605   35604   35605   35605       0   35607   35608
   35609   35608   35609   35609       0   35611   35612   35613   35612   35613
   35613       0   35615   35616   35617   35616   35617   35617       0   35619
   35620   35621   35620   35621   35621       0   35623   35624   35625   35624
   35625   35625       0   35627   35628   35629   35628   35629   35629       0
   35631   35632   35633   35632   35633   35633       0   35635   35636   35637
   35636   35637   35637       0   35639   35640   35641   35640   35641   35641
       0   35643   35644   35645   35644   35645   35645       0   35647   35648
   35649   35648   35649   35649       0   35651   35652   35653   35652   35653
   35653       0   35655   35656   35657   35656   35657   35657       0   35659
   35660   35661   35660   35661   35661       0   35663   35664   35665   35664
   35665   35665       0   35667   35668   35669   35668   35669   35669       0
   35671   35672   35673   35672   35673   35673       0   35675   35676   35677
   35676   35677   35677       0   35679   35680   35681   35680   35681   35681
       0   35683   35684   35685   35684   35685   35685       0   35687   35688
   35689   35688   35689   35689       0   35691   35692   35693   35692   35693
   35693       0   35695   35696   35697   35696   35697   35697       0   35699
   35700   35701   35700   35701   35701       0   35703   35704   35705   35704
   35705   35705       0   35707   35708   35709   35708   35709   35709       0
   35711   35712   35713   35712   35713   35713       0   35715   35716   35717
   35716   35717   35717       0   35719   35720   35721   35720   35721   35721
       0   35723   35724   35725   35724   35725   35725       0   35727   35728
   35729   35728   35729   35729       0   35731   35732   35733   35732   35733
   35733       0   35735   35736   35737   35736   35737   35737       0   35739
   35740   35741   35740   35741   35741       0   35743   35744   35745   35744
   35745   35745       0   35747   35748   35749   35748   35749   35749       0
   35751   35752   35753   35752   35753   35753       0   35755   35756   35757
   35756   35757   35757       0   35759   35760   35761   35760   35761   35761
       0   35763   35764   35765   35764   35765   35765       0   35767   35768
   35769   35768   35769   35769       0   35771   35772   35773   35772   35773
   35773       0   35775   35776   35777   35776   35777   35777       0   35779
   35780   35781   35780   35781   35781       0   35783   35784   35785   35784
   35785   35785       0   35787   35788   35789   35788   35789   35789       0
   35791   35792   35793   35792   35793   35793       0   35795   35796   35797
   35796   35797   35797       0   35799   35800   35801   35800   35801   35801
       0   35803   35804   35805   35804   35805   35805       0   35807   35808
   35809   35808   35809   35809       0   35811   35812   35813   35812   35813
   35813       0   35815   35816   35817   35816   35817   35817       0   35819
   35820   35821   35820   35821   35821       0   35823   35824   35825   35824
   35825   35825       0   35827   35828   35829   35828   35829   35829       0
   35831   35832   35833   35832   35833   35833       0   35835   35836   35837
   35836   35837   35837       0   35839   35840   35841   35840   35841   35841
       0   35843   35844   35845   35844   35845   35845       0   35847   35848
   35849   35848   35849   35849       0   35851   35852   35853   35852   35853
   35853       0   35855   35856   35857   35856   35857   35857       0   35859
   35860   35861   35860   35861   35861       0   35863   35864   35865   35864
   35865   35865       0   35867   35868   35869   35868   35869   35869       0
   35871   35872   35873   35872   35873   35873       0   35875   35876   35877
   35876   35877   35877       0   35879   35880   35881   35880   35881   35881
       0   35883   35884   35885   35884   35885   35885       0   35887   35888
   35889   35888   35889   35889       0   35891   35892   35893   35892   35893
   35893       0   35895   35896   35897   35896   35897   35897       0   35899
   35900   35901   35900   35901   35901       0   35903   35904   35905   35904
   35905   35905       0   35907   35908   35909   35908   35909   35909       0
   35911   35912   35913   35912   35913   35913       0   35915   35916   35917
   35916   35917   35917       0   35919   35920   35921   35920   35921   35921
       0   35923   35924   35925   35924   35925   35925       0   35927   35928
   35929   35928   35929   35929       0   35931   35932   35933   35932   35933
   35933       0   35935   35936   35937   35936   35937   35937       0   35939
   35940   35941   35940   35941   35941       0   35943   35944   35945   35944
   35945   35945       0   35947   35948   35949   35948   35949   35949       0
   35951   35952   35953   35952   35953   35953       0   35955   35956   35957
   35956   35957   35957       0   35959   35960   35961   35960   35961   35961
       0   35963   35964   35965   35964   35965   35965       0   35967   35968
   35969   35968   35969   35969       0   35971   35972   35973   35972   35973
   35973       0   35975   35976   35977   35976   35977   35977       0   35979
   35980   35981   35980   35981   35981       0   35983   35984   35985   35984
   35985   35985       0   35987   35988   35989   35988   35989   35989       0
   35991   35992   35993   35992   35993   35993       0   35995   35996   35997
   35996   35997   35997       0   35999   36000   36001   36000   36001   36001
       0   36003   36004   36005   36004   36005   36005       0   36007   36008
   36009   36008   36009   36009       0   36011   36012   36013   36012   36013
   36013       0   36015   36016   36017   36016   36017   36017       0   36019
   36020   36021   36020   36021   36021       0   36023   36024   36025   36024
   36025   36025       0   36027   36028   36029   36028   36029   36029       0
   36031   36032   36033   36032   36033   36033       0   36035   36036   36037
   36036   36037   36037       0   36039   36040   36041   36040   36041   36041
       0   36043   36044   36045   36044   36045   36045       0   36047   36048
   36049   36048   36049   36049       0   36051   36052   36053   36052   36053
   36053       0   36055   36056   36057   36056   36057   36057       0   36059
   36060   36061   36060   36061   36061       0   36063   36064   36065   36064
   36065   36065       0   36067   36068   36069   36068   36069   36069       0
   36071   36072   36073   36072   36073   36073       0   36075   36076   36077
   36076   36077   36077       0   36079   36080   36081   36080   36081   36081
       0   36083   36084   36085   36084   36085   36085       0   36087   36088
   36089   36088   36089   36089       0   36091   36092   36093   36092   36093
   36093       0   36095   36096   36097   36096   36097   36097       0   36099
   36100   36101   36100   36101   36101       0   36103   36104   36105   36104
   36105   36105       0   36107   36108   36109   36108   36109   36109       0
   36111   36112   36113   36112   36113   36113       0   36115   36116   36117
   36116   36117   36117       0   36119   36120   36121   36120   36121   36121
       0   36123   36124   36125   36124   36125   36125       0   36127   36128
   36129   36128   36129   36129       0   36131   36132   36133   36132   36133
   36133       0   36135   36136   36137   36136   36137   36137       0   36139
   36140   36141   36140   36141   36141       0   36143   36144   36145   36144
   36145   36145       0   36147   36148   36149   36148   36149   36149       0
   36151   36152   36153   36152   36153   36153       0   36155   36156   36157
   36156   36157   36157       0   36159   36160   36161   36160   36161   36161
       0   36163   36164   36165   36164   36165   36165       0   36167   36168
   36169   36168   36169   36169       0   36171   36172   36173   36172   36173
   36173       0   36175   36176   36177   36176   36177   36177       0   36179
   36180   36181   36180   36181   36181       0   36183   36184   36185   36184
   36185   36185       0   36187   36188   36189   36188   36189   36189       0
   36191   36192   36193   36192   36193   36193       0   36195   36196   36197
   36196   36197   36197       0   36199   36200   36201   36200   36201   36201
       0   36203   36204   36205   36204   36205   36205       0   36207   36208
   36209   36208   36209   36209       0   36211   36212   36213   36212   36213
   36213       0   36215   36216   36217   36216   36217   36217       0   36219
   36220   36221   36220   36221   36221       0   36223   36224   36225   36224
   36225   36225       0   36227   36228   36229   36228   36229   36229       0
   36231   36232   36233   36232   36233   36233       0   36235   36236   36237
   36236   36237   36237       0   36239   36240   36241   36240   36241   36241
       0   36243   36244   36245   36244   36245   36245       0   36247   36248
   36249   36248   36249   36249       0   36251   36252   36253   36252   36253
   36253       0   36255   36256   36257   36256   36257   36257       0   36259
   36260   36261   36260   36261   36261       0   36263   36264   36265   36264
   36265   36265       0   36267   36268   36269   36268   36269   36269       0
   36271   36272   36273   36272   36273   36273       0   36275   36276   36277
   36276   36277   36277       0   36279   36280   36281   36280   36281   36281
       0   36283   36284   36285   36284   36285   36285       0   36287   36288
   36289   36288   36289   36289       0   36291   36292   36293   36292   36293
   36293       0   36295   36296   36297   36296   36297   36297       0   36299
   36300   36301   36300   36301   36301       0   36303   36304   36305   36304
   36305   36305       0   36307   36308   36309   36308   36309   36309       0
   36311   36312   36313   36312   36313   36313       0   36315   36316   36317
   36316   36317   36317       0   36319   36320   36321   36320   36321   36321
       0   36323   36324   36325   36324   36325   36325       0   36327   36328
   36329   36328   36329   36329       0   36331   36332   36333   36332   36333
   36333       0   36335   36336   36337   36336   36337   36337       0   36339
   36340   36341   36340   36341   36341       0   36343   36344   36345   36344
   36345   36345       0   36347   36348   36349   36348   36349   36349       0
   36351   36352   36353   36352   36353   36353       0   36355   36356   36357
   36356   36357   36357       0   36359   36360   36361   36360   36361   36361
       0   36363   36364   36365   36364   36365   36365       0   36367   36368
   36369   36368   36369   36369       0   36371   36372   36373   36372   36373
   36373       0   36375   36376   36377   36376   36377   36377       0   36379
   36380   36381   36380   36381   36381       0   36383   36384   36385   36384
   36385   36385       0   36387   36388   36389   36388   36389   36389       0
   36391   36392   36393   36392   36393   36393       0   36395   36396   36397
   36396   36397   36397       0   36399   36400   36401   36400   36401   36401
       0   36403   36404   36405   36404   36405   36405       0   36407   36408
   36409   36408   36409   36409       0   36411   36412   36413   36412   36413
   36413       0   36415   36416   36417   36416   36417   36417       0   36419
   36420   36421   36420   36421   36421       0   36423   36424   36425   36424
   36425   36425       0   36427   36428   36429   36428   36429   36429       0
   36431   36432   36433   36432   36433   36433       0   36435   36436   36437
   36436   36437   36437       0   36439   36440   36441   36440   36441   36441
       0   36443   36444   36445   36444   36445   36445       0   36447   36448
   36449   36448   36449   36449       0   36451   36452   36453   36452   36453
   36453       0   36455   36456   36457   36456   36457   36457       0   36459
   36460   36461   36460   36461   36461       0   36463   36464   36465   36464
   36465   36465       0   36467   36468   36469   36468   36469   36469       0
   36471   36472   36473   36472   36473   36473       0   36475   36476   36477
   36476   36477   36477       0   36479   36480   36481   36480   36481   36481
       0   36483   36484   36485   36484   36485   36485       0   36487   36488
   36489   36488   36489   36489       0   36491   36492   36493   36492   36493
   36493       0   36495   36496   36497   36496   36497   36497       0   36499
   36500   36501   36500   36501   36501       0   36503   36504   36505   36504
   36505   36505       0   36507   36508   36509   36508   36509   36509       0
   36511   36512   36513   36512   36513   36513       0   36515   36516   36517
   36516   36517   36517       0   36519   36520   36521   36520   36521   36521
       0   36523   36524   36525   36524   36525   36525       0   36527   36528
   36529   36528   36529   36529       0   36531   36532   36533   36532   36533
   36533       0   36535   36536   36537   36536   36537   36537       0   36539
   36540   36541   36540   36541   36541       0   36543   36544   36545   36544
   36545   36545       0   36547   36548   36549   36548   36549   36549       0
   36551   36552   36553   36552   36553   36553       0   36555   36556   36557
   36556   36557   36557       0   36559   36560   36561   36560   36561   36561
       0   36563   36564   36565   36564   36565   36565       0   36567   36568
   36569   36568   36569   36569       0   36571   36572   36573   36572   36573
   36573       0   36575   36576   36577   36576   36577   36577       0   36579
   36580   36581   36580   36581   36581       0   36583   36584   36585   36584
   36585   36585       0   36587   36588   36589   36588   36589   36589       0
   36591   36592   36593   36592   36593   36593       0   36595   36596   36597
   36596   36597   36597       0   36599   36600   36601   36600   36601   36601
       0   36603   36604   36605   36604   36605   36605       0   36607   36608
   36609   36608   36609   36609       0   36611   36612   36613   36612   36613
   36613       0   36615   36616   36617   36616   36617   36617       0   36619
   36620   36621   36620   36621   36621       0   36623   36624   36625   36624
   36625   36625       0   36627   36628   36629   36628   36629   36629       0
   36631   36632   36633   36632   36633   36633       0   36635   36636   36637
   36636   36637   36637       0   36639   36640   36641   36640   36641   36641
       0   36643   36644   36645   36644   36645   36645       0   36647   36648
   36649   36648   36649   36649       0   36651   36652   36653   36652   36653
   36653       0   36655   36656   36657   36656   36657   36657       0   36659
   36660   36661   36660   36661   36661       0   36663   36664   36665   36664
   36665   36665       0   36667   36668   36669   36668   36669   36669       0
   36671   36672   36673   36672   36673   36673       0   36675   36676   36677
   36676   36677   36677       0   36679   36680   36681   36680   36681   36681
       0   36683   36684   36685   36684   36685   36685       0   36687   36688
   36689   36688   36689   36689       0   36691   36692   36693   36692   36693
   36693       0   36695   36696   36697   36696   36697   36697       0   36699
   36700   36701   36700   36701   36701       0   36703   36704   36705   36704
   36705   36705       0   36707   36708   36709   36708   36709   36709       0
   36711   36712   36713   36712   36713   36713       0   36715   36716   36717
   36716   36717   36717       0   36719   36720   36721   36720   36721   36721
       0   36723   36724   36725   36724   36725   36725       0   36727   36728
   36729   36728   36729   36729       0   36731   36732   36733   36732   36733
   36733       0   36735   36736   36737   36736   36737   36737       0   36739
   36740   36741   36740   36741   36741       0   36743   36744   36745   36744
   36745   36745       0   36747   36748   36749   36748   36749   36749       0
   36751   36752   36753   36752   36753   36753       0   36755   36756   36757
   36756   36757   36757       0   36759   36760   36761   36760   36761   36761
       0   36763   36764   36765   36764   36765   36765       0   36767   36768
   36769   36768   36769   36769       0   36771   36772   36773   36772   36773
   36773       0   36775   36776   36777   36776   36777   36777       0   36779
   36780   36781   36780   36781   36781       0   36783   36784   36785   36784
   36785   36785       0   36787   36788   36789   36788   36789   36789       0
   36791   36792   36793   36792   36793   36793       0   36795   36796   36797
   36796   36797   36797       0   36799   36800   36801   36800   36801   36801
       0   36803   36804   36805   36804   36805   36805       0   36807   36808
   36809   36808   36809   36809       0   36811   36812   36813   36812   36813
   36813       0   36815   36816   36817   36816   36817   36817       0   36819
   36820   36821   36820   36821   36821       0   36823   36824   36825   36824
   36825   36825       0   36827   36828   36829   36828   36829   36829       0
   36831   36832   36833   36832   36833   36833       0   36835   36836   36837
   36836   36837   36837       0   36839   36840   36841   36840   36841   36841
       0   36843   36844   36845   36844   36845   36845       0   36847   36848
   36849   36848   36849   36849       0   36851   36852   36853   36852   36853
   36853       0   36855   36856   36857   36856   36857   36857       0   36859
   36860   36861   36860   36861   36861       0   36863   36864   36865   36864
   36865   36865       0   36867   36868   36869   36868   36869   36869       0
   36871   36872   36873   36872   36873   36873       0   36875   36876   36877
   36876   36877   36877       0   36879   36880   36881   36880   36881   36881
       0   36883   36884   36885   36884   36885   36885       0   36887   36888
   36889   36888   36889   36889       0   36891   36892   36893   36892   36893
   36893       0   36895   36896   36897   36896   36897   36897       0   36899
   36900   36901   36900   36901   36901       0   36903   36904   36905   36904
   36905   36905       0   36907   36908   36909   36908   36909   36909       0
   36911   36912   36913   36912   36913   36913       0   36915   36916   36917
   36916   36917   36917       0   36919   36920   36921   36920   36921   36921
       0   36923   36924   36925   36924   36925   36925       0   36927   36928
   36929   36928   36929   36929       0   36931   36932   36933   36932   36933
   36933       0   36935   36936   36937   36936   36937   36937       0   36939
   36940   36941   36940   36941   36941       0   36943   36944   36945   36944
   36945   36945       0   36947   36948   36949   36948   36949   36949       0
   36951   36952   36953   36952   36953   36953       0   36955   36956   36957
   36956   36957   36957       0   36959   36960   36961   36960   36961   36961
       0   36963   36964   36965   36964   36965   36965       0   36967   36968
   36969   36968   36969   36969       0   36971   36972   36973   36972   36973
   36973       0   36975   36976   36977   36976   36977   36977       0   36979
   36980   36981   36980   36981   36981       0   36983   36984   36985   36984
   36985   36985       0   36987   36988   36989   36988   36989   36989       0
   36991   36992   36993   36992   36993   36993       0   36995   36996   36997
   36996   36997   36997       0   36999   37000   37001   37000   37001   37001
       0   37003   37004   37005   37004   37005   37005       0   37007   37008
   37009   37008   37009   37009       0   37011   37012   37013   37012   37013
   37013       0   37015   37016   37017   37016   37017   37017       0   37019
   37020   37021   37020   37021   37021       0   37023   37024   37025   37024
   37025   37025       0   37027   37028   37029   37028   37029   37029       0
   37031   37032   37033   37032   37033   37033       0   37035   37036   37037
   37036   37037   37037       0   37039   37040   37041   37040   37041   37041
       0   37043   37044   37045   37044   37045   37045       0   37047   37048
   37049   37048   37049   37049       0   37051   37052   37053   37052   37053
   37053       0   37055   37056   37057   37056   37057   37057       0   37059
   37060   37061   37060   37061   37061       0   37063   37064   37065   37064
   37065   37065       0   37067   37068   37069   37068   37069   37069       0
   37071   37072   37073   37072   37073   37073       0   37075   37076   37077
   37076   37077   37077       0   37079   37080   37081   37080   37081   37081
       0   37083   37084   37085   37084   37085   37085       0   37087   37088
   37089   37088   37089   37089       0   37091   37092   37093   37092   37093
   37093       0   37095   37096   37097   37096   37097   37097       0   37099
   37100   37101   37100   37101   37101       0   37103   37104   37105   37104
   37105   37105       0   37107   37108   37109   37108   37109   37109       0
   37111   37112   37113   37112   37113   37113       0   37115   37116   37117
   37116   37117   37117       0   37119   37120   37121   37120   37121   37121
       0   37123   37124   37125   37124   37125   37125       0   37127   37128
   37129   37128   37129   37129       0   37131   37132   37133   37132   37133
   37133       0   37135   37136   37137   37136   37137   37137       0   37139
   37140   37141   37140   37141   37141       0   37143   37144   37145   37144
   37145   37145       0   37147   37148   37149   37148   37149   37149       0
   37151   37152   37153   37152   37153   37153       0   37155   37156   37157
   37156   37157   37157       0   37159   37160   37161   37160   37161   37161
       0   37163   37164   37165   37164   37165   37165       0   37167   37168
   37169   37168   37169   37169       0   37171   37172   37173   37172   37173
   37173       0   37175   37176   37177   37176   37177   37177       0   37179
   37180   37181   37180   37181   37181       0   37183   37184   37185   37184
   37185   37185       0   37187   37188   37189   37188   37189   37189       0
   37191   37192   37193   37192   37193   37193       0   37195   37196   37197
   37196   37197   37197       0   37199   37200   37201   37200   37201   37201
       0   37203   37204   37205   37204   37205   37205       0   37207   37208
   37209   37208   37209   37209       0   37211   37212   37213   37212   37213
   37213       0   37215   37216   37217   37216   37217   37217       0   37219
   37220   37221   37220   37221   37221       0   37223   37224   37225   37224
   37225   37225       0   37227   37228   37229   37228   37229   37229       0
   37231   37232   37233   37232   37233   37233       0   37235   37236   37237
   37236   37237   37237       0   37239   37240   37241   37240   37241   37241
       0   37243   37244   37245   37244   37245   37245       0   37247   37248
   37249   37248   37249   37249       0   37251   37252   37253   37252   37253
   37253       0   37255   37256   37257   37256   37257   37257       0   37259
   37260   37261   37260   37261   37261       0   37263   37264   37265   37264
   37265   37265       0   37267   37268   37269   37268   37269   37269       0
   37271   37272   37273   37272   37273   37273       0   37275   37276   37277
   37276   37277   37277       0   37279   37280   37281   37280   37281   37281
       0   37283   37284   37285   37284   37285   37285       0   37287   37288
   37289   37288   37289   37289       0   37291   37292   37293   37292   37293
   37293       0   37295   37296   37297   37296   37297   37297       0   37299
   37300   37301   37300   37301   37301       0   37303   37304   37305   37304
   37305   37305       0   37307   37308   37309   37308   37309   37309       0
   37311   37312   37313   37312   37313   37313       0   37315   37316   37317
   37316   37317   37317       0   37319   37320   37321   37320   37321   37321
       0   37323   37324   37325   37324   37325   37325       0   37327   37328
   37329   37328   37329   37329       0   37331   37332   37333   37332   37333
   37333       0   37335   37336   37337   37336   37337   37337       0   37339
   37340   37341   37340   37341   37341       0   37343   37344   37345   37344
   37345   37345       0   37347   37348   37349   37348   37349   37349       0
   37351   37352   37353   37352   37353   37353       0   37355   37356   37357
   37356   37357   37357       0   37359   37360   37361   37360   37361   37361
       0   37363   37364   37365   37364   37365   37365       0   37367   37368
   37369   37368   37369   37369       0   37371   37372   37373   37372   37373
   37373       0   37375   37376   37377   37376   37377   37377       0   37379
   37380   37381   37380   37381   37381       0   37383   37384   37385   37384
   37385   37385       0   37387   37388   37389   37388   37389   37389       0
   37391   37392   37393   37392   37393   37393       0   37395   37396   37397
   37396   37397   37397       0   37399   37400   37401   37400   37401   37401
       0   37403   37404   37405   37404   37405   37405       0   37407   37408
   37409   37408   37409   37409       0   37411   37412   37413   37412   37413
   37413       0   37415   37416   37417   37416   37417   37417       0   37419
   37420   37421   37420   37421   37421       0   37423   37424   37425   37424
   37425   37425       0   37427   37428   37429   37428   37429   37429       0
   37431   37432   37433   37432   37433   37433       0   37435   37436   37437
   37436   37437   37437       0   37439   37440   37441   37440   37441   37441
       0   37443   37444   37445   37444   37445   37445       0   37447   37448
   37449   37448   37449   37449       0   37451   37452   37453   37452   37453
   37453       0   37455   37456   37457   37456   37457   37457       0   37459
   37460   37461   37460   37461   37461       0   37463   37464   37465   37464
   37465   37465       0   37467   37468   37469   37468   37469   37469       0
   37471   37472   37473   37472   37473   37473       0   37475   37476   37477
   37476   37477   37477       0   37479   37480   37481   37480   37481   37481
       0   37483   37484   37485   37484   37485   37485       0   37487   37488
   37489   37488   37489   37489       0   37491   37492   37493   37492   37493
   37493       0   37495   37496   37497   37496   37497   37497       0   37499
   37500   37501   37500   37501   37501       0   37503   37504   37505   37504
   37505   37505       0   37507   37508   37509   37508   37509   37509       0
   37511   37512   37513   37512   37513   37513       0   37515   37516   37517
   37516   37517   37517       0   37519   37520   37521   37520   37521   37521
       0   37523   37524   37525   37524   37525   37525       0   37527   37528
   37529   37528   37529   37529       0   37531   37532   37533   37532   37533
   37533       0   37535   37536   37537   37536   37537   37537       0   37539
   37540   37541   37540   37541   37541       0   37543   37544   37545   37544
   37545   37545       0   37547   37548   37549   37548   37549   37549       0
   37551   37552   37553   37552   37553   37553       0   37555   37556   37557
   37556   37557   37557       0   37559   37560   37561   37560   37561   37561
       0   37563   37564   37565   37564   37565   37565       0   37567   37568
   37569   37568   37569   37569       0   37571   37572   37573   37572   37573
   37573       0   37575   37576   37577   37576   37577   37577       0   37579
   37580   37581   37580   37581   37581       0   37583   37584   37585   37584
   37585   37585       0   37587   37588   37589   37588   37589   37589       0
   37591   37592   37593   37592   37593   37593       0   37595   37596   37597
   37596   37597   37597       0   37599   37600   37601   37600   37601   37601
       0   37603   37604   37605   37604   37605   37605       0   37607   37608
   37609   37608   37609   37609       0   37611   37612   37613   37612   37613
   37613       0   37615   37616   37617   37616   37617   37617       0   37619
   37620   37621   37620   37621   37621       0   37623   37624   37625   37624
   37625   37625       0   37627   37628   37629   37628   37629   37629       0
   37631   37632   37633   37632   37633   37633       0   37635   37636   37637
   37636   37637   37637       0   37639   37640   37641   37640   37641   37641
       0   37643   37644   37645   37644   37645   37645       0   37647   37648
   37649   37648   37649   37649       0   37651   37652   37653   37652   37653
   37653       0   37655   37656   37657   37656   37657   37657       0   37659
   37660   37661   37660   37661   37661       0   37663   37664   37665   37664
   37665   37665       0   37667   37668   37669   37668   37669   37669       0
   37671   37672   37673   37672   37673   37673       0   37675   37676   37677
   37676   37677   37677       0   37679   37680   37681   37680   37681   37681
       0   37683   37684   37685   37684   37685   37685       0   37687   37688
   37689   37688   37689   37689       0   37691   37692   37693   37692   37693
   37693       0   37695   37696   37697   37696   37697   37697       0   37699
   37700   37701   37700   37701   37701       0   37703   37704   37705   37704
   37705   37705       0   37707   37708   37709   37708   37709   37709       0
   37711   37712   37713   37712   37713   37713       0   37715   37716   37717
   37716   37717   37717       0   37719   37720   37721   37720   37721   37721
       0   37723   37724   37725   37724   37725   37725       0   37727   37728
   37729   37728   37729   37729       0   37731   37732   37733   37732   37733
   37733       0   37735   37736   37737   37736   37737   37737       0   37739
   37740   37741   37740   37741   37741       0   37743   37744   37745   37744
   37745   37745       0   37747   37748   37749   37748   37749   37749       0
   37751   37752   37753   37752   37753   37753       0   37755   37756   37757
   37756   37757   37757       0   37759   37760   37761   37760   37761   37761
       0   37763   37764   37765   37764   37765   37765       0   37767   37768
   37769   37768   37769   37769       0   37771   37772   37773   37772   37773
   37773       0   37775   37776   37777   37776   37777   37777       0   37779
   37780   37781   37780   37781   37781       0   37783   37784   37785   37784
   37785   37785       0   37787   37788   37789   37788   37789   37789       0
   37791   37792   37793   37792   37793   37793       0   37795   37796   37797
   37796   37797   37797       0   37799   37800   37801   37800   37801   37801
       0   37803   37804   37805   37804   37805   37805       0   37807   37808
   37809   37808   37809   37809       0   37811   37812   37813   37812   37813
   37813       0   37815   37816   37817   37816   37817   37817       0   37819
   37820   37821   37820   37821   37821       0   37823   37824   37825   37824
   37825   37825       0   37827   37828   37829   37828   37829   37829       0
   37831   37832   37833   37832   37833   37833       0   37835   37836   37837
   37836   37837   37837       0   37839   37840   37841   37840   37841   37841
       0   37843   37844   37845   37844   37845   37845       0   37847   37848
   37849   37848   37849   37849       0   37851   37852   37853   37852   37853
   37853       0   37855   37856   37857   37856   37857   37857       0   37859
   37860   37861   37860   37861   37861       0   37863   37864   37865   37864
   37865   37865       0   37867   37868   37869   37868   37869   37869       0
   37871   37872   37873   37872   37873   37873       0   37875   37876   37877
   37876   37877   37877       0   37879   37880   37881   37880   37881   37881
       0   37883   37884   37885   37884   37885   37885       0   37887   37888
   37889   37888   37889   37889       0   37891   37892   37893   37892   37893
   37893       0   37895   37896   37897   37896   37897   37897       0   37899
   37900   37901   37900   37901   37901       0   37903   37904   37905   37904
   37905   37905       0   37907   37908   37909   37908   37909   37909       0
   37911   37912   37913   37912   37913   37913       0   37915   37916   37917
   37916   37917   37917       0   37919   37920   37921   37920   37921   37921
       0   37923   37924   37925   37924   37925   37925       0   37927   37928
   37929   37928   37929   37929       0   37931   37932   37933   37932   37933
   37933       0   37935   37936   37937   37936   37937   37937       0   37939
   37940   37941   37940   37941   37941       0   37943   37944   37945   37944
   37945   37945       0   37947   37948   37949   37948   37949   37949       0
   37951   37952   37953   37952   37953   37953       0   37955   37956   37957
   37956   37957   37957       0   37959   37960   37961   37960   37961   37961
       0   37963   37964   37965   37964   37965   37965       0   37967   37968
   37969   37968   37969   37969       0   37971   37972   37973   37972   37973
   37973       0   37975   37976   37977   37976   37977   37977       0   37979
   37980   37981   37980   37981   37981       0   37983   37984   37985   37984
   37985   37985       0   37987   37988   37989   37988   37989   37989       0
   37991   37992   37993   37992   37993   37993       0   37995   37996   37997
   37996   37997   37997       0   37999   38000   38001   38000   38001   38001
       0   38003   38004   38005   38004   38005   38005       0   38007   38008
   38009   38008   38009   38009       0   38011   38012   38013   38012   38013
   38013       0   38015   38016   38017   38016   38017   38017       0   38019
   38020   38021   38020   38021   38021       0   38023   38024   38025   38024
   38025   38025       0   38027   38028   38029   38028   38029   38029       0
   38031   38032   38033   38032   38033   38033       0   38035   38036   38037
   38036   38037   38037       0   38039   38040   38041   38040   38041   38041
       0   38043   38044   38045   38044   38045   38045       0   38047   38048
   38049   38048   38049   38049       0   38051   38052   38053   38052   38053
   38053       0   38055   38056   38057   38056   38057   38057       0   38059
   38060   38061   38060   38061   38061       0   38063   38064   38065   38064
   38065   38065       0   38067   38068   38069   38068   38069   38069       0
   38071   38072   38073   38072   38073   38073       0   38075   38076   38077
   38076   38077   38077       0   38079   38080   38081   38080   38081   38081
       0   38083   38084   38085   38084   38085   38085       0   38087   38088
   38089   38088   38089   38089       0   38091   38092   38093   38092   38093
   38093       0   38095   38096   38097   38096   38097   38097       0   38099
   38100   38101   38100   38101   38101       0   38103   38104   38105   38104
   38105   38105       0   38107   38108   38109   38108   38109   38109       0
   38111   38112   38113   38112   38113   38113       0   38115   38116   38117
   38116   38117   38117       0   38119   38120   38121   38120   38121   38121
       0   38123   38124   38125   38124   38125   38125       0   38127   38128
   38129   38128   38129   38129       0   38131   38132   38133   38132   38133
   38133       0   38135   38136   38137   38136   38137   38137       0   38139
   38140   38141   38140   38141   38141       0   38143   38144   38145   38144
   38145   38145       0   38147   38148   38149   38148   38149   38149       0
   38151   38152   38153   38152   38153   38153       0   38155   38156   38157
   38156   38157   38157       0   38159   38160   38161   38160   38161   38161
       0   38163   38164   38165   38164   38165   38165       0   38167   38168
   38169   38168   38169   38169       0   38171   38172   38173   38172   38173
   38173       0   38175   38176   38177   38176   38177   38177       0   38179
   38180   38181   38180   38181   38181       0   38183   38184   38185   38184
   38185   38185       0   38187   38188   38189   38188   38189   38189       0
   38191   38192   38193   38192   38193   38193       0   38195   38196   38197
   38196   38197   38197       0   38199   38200   38201   38200   38201   38201
       0   38203   38204   38205   38204   38205   38205       0   38207   38208
   38209   38208   38209   38209       0   38211   38212   38213   38212   38213
   38213       0   38215   38216   38217   38216   38217   38217       0   38219
   38220   38221   38220   38221   38221       0   38223   38224   38225   38224
   38225   38225       0   38227   38228   38229   38228   38229   38229       0
   38231   38232   38233   38232   38233   38233       0   38235   38236   38237
   38236   38237   38237       0   38239   38240   38241   38240   38241   38241
       0   38243   38244   38245   38244   38245   38245       0   38247   38248
   38249   38248   38249   38249       0   38251   38252   38253   38252   38253
   38253       0   38255   38256   38257   38256   38257   38257       0   38259
   38260   38261   38260   38261   38261       0   38263   38264   38265   38264
   38265   38265       0   38267   38268   38269   38268   38269   38269       0
   38271   38272   38273   38272   38273   38273       0   38275   38276   38277
   38276   38277   38277       0   38279   38280   38281   38280   38281   38281
       0   38283   38284   38285   38284   38285   38285       0   38287   38288
   38289   38288   38289   38289       0   38291   38292   38293   38292   38293
   38293       0   38295   38296   38297   38296   38297   38297       0   38299
   38300   38301   38300   38301   38301       0   38303   38304   38305   38304
   38305   38305       0   38307   38308   38309   38308   38309   38309       0
   38311   38312   38313   38312   38313   38313       0   38315   38316   38317
   38316   38317   38317       0   38319   38320   38321   38320   38321   38321
       0   38323   38324   38325   38324   38325   38325       0   38327   38328
   38329   38328   38329   38329       0   38331   38332   38333   38332   38333
   38333       0   38335   38336   38337   38336   38337   38337       0   38339
   38340   38341   38340   38341   38341       0   38343   38344   38345   38344
   38345   38345       0   38347   38348   38349   38348   38349   38349       0
   38351   38352   38353   38352   38353   38353       0   38355   38356   38357
   38356   38357   38357       0   38359   38360   38361   38360   38361   38361
       0   38363   38364   38365   38364   38365   38365       0   38367   38368
   38369   38368   38369   38369       0   38371   38372   38373   38372   38373
   38373       0   38375   38376   38377   38376   38377   38377       0   38379
   38380   38381   38380   38381   38381       0   38383   38384   38385   38384
   38385   38385       0   38387   38388   38389   38388   38389   38389       0
   38391   38392   38393   38392   38393   38393       0   38395   38396   38397
   38396   38397   38397       0   38399   38400   38401   38400   38401   38401
       0   38403   38404   38405   38404   38405   38405       0   38407   38408
   38409   38408   38409   38409       0   38411   38412   38413   38412   38413
   38413       0   38415   38416   38417   38416   38417   38417       0   38419
   38420   38421   38420   38421   38421       0   38423   38424   38425   38424
   38425   38425       0   38427   38428   38429   38428   38429   38429       0
   38431   38432   38433   38432   38433   38433       0   38435   38436   38437
   38436   38437   38437       0   38439   38440   38441   38440   38441   38441
       0   38443   38444   38445   38444   38445   38445       0   38447   38448
   38449   38448   38449   38449       0   38451   38452   38453   38452   38453
   38453       0   38455   38456   38457   38456   38457   38457       0   38459
   38460   38461   38460   38461   38461       0   38463   38464   38465   38464
   38465   38465       0   38467   38468   38469   38468   38469   38469       0
   38471   38472   38473   38472   38473   38473       0   38475   38476   38477
   38476   38477   38477       0   38479   38480   38481   38480   38481   38481
       0   38483   38484   38485   38484   38485   38485       0   38487   38488
   38489   38488   38489   38489       0   38491   38492   38493   38492   38493
   38493       0   38495   38496   38497   38496   38497   38497       0   38499
   38500   38501   38500   38501   38501       0   38503   38504   38505   38504
   38505   38505       0   38507   38508   38509   38508   38509   38509       0
   38511   38512   38513   38512   38513   38513       0   38515   38516   38517
   38516   38517   38517       0   38519   38520   38521   38520   38521   38521
       0   38523   38524   38525   38524   38525   38525       0   38527   38528
   38529   38528   38529   38529       0   38531   38532   38533   38532   38533
   38533       0   38535   38536   38537   38536   38537   38537       0   38539
   38540   38541   38540   38541   38541       0   38543   38544   38545   38544
   38545   38545       0   38547   38548   38549   38548   38549   38549       0
   38551   38552   38553   38552   38553   38553       0   38555   38556   38557
   38556   38557   38557       0   38559   38560   38561   38560   38561   38561
       0   38563   38564   38565   38564   38565   38565       0   38567   38568
   38569   38568   38569   38569       0   38571   38572   38573   38572   38573
   38573       0   38575   38576   38577   38576   38577   38577       0   38579
   38580   38581   38580   38581   38581       0   38583   38584   38585   38584
   38585   38585       0   38587   38588   38589   38588   38589   38589       0
   38591   38592   38593   38592   38593   38593       0   38595   38596   38597
   38596   38597   38597       0   38599   38600   38601   38600   38601   38601
       0   38603   38604   38605   38604   38605   38605       0   38607   38608
   38609   38608   38609   38609       0   38611   38612   38613   38612   38613
   38613       0   38615   38616   38617   38616   38617   38617       0   38619
   38620   38621   38620   38621   38621       0   38623   38624   38625   38624
   38625   38625       0   38627   38628   38629   38628   38629   38629       0
   38631   38632   38633   38632   38633   38633       0   38635   38636   38637
   38636   38637   38637       0   38639   38640   38641   38640   38641   38641
       0   38643   38644   38645   38644   38645   38645       0   38647   38648
   38649   38648   38649   38649       0   38651   38652   38653   38652   38653
   38653       0   38655   38656   38657   38656   38657   38657       0   38659
   38660   38661   38660   38661   38661       0   38663   38664   38665   38664
   38665   38665       0   38667   38668   38669   38668   38669   38669       0
   38671   38672   38673   38672   38673   38673       0   38675   38676   38677
   38676   38677   38677       0   38679   38680   38681   38680   38681   38681
       0   38683   38684   38685   38684   38685   38685       0   38687   38688
   38689   38688   38689   38689       0   38691   38692   38693   38692   38693
   38693       0   38695   38696   38697   38696   38697   38697       0   38699
   38700   38701   38700   38701   38701       0   38703   38704   38705   38704
   38705   38705       0   38707   38708   38709   38708   38709   38709       0
   38711   38712   38713   38712   38713   38713       0   38715   38716   38717
   38716   38717   38717       0   38719   38720   38721   38720   38721   38721
       0   38723   38724   38725   38724   38725   38725       0   38727   38728
   38729   38728   38729   38729       0   38731   38732   38733   38732   38733
   38733       0   38735   38736   38737   38736   38737   38737       0   38739
   38740   38741   38740   38741   38741       0   38743   38744   38745   38744
   38745   38745       0   38747   38748   38749   38748   38749   38749       0
   38751   38752   38753   38752   38753   38753       0   38755   38756   38757
   38756   38757   38757       0   38759   38760   38761   38760   38761   38761
       0   38763   38764   38765   38764   38765   38765       0   38767   38768
   38769   38768   38769   38769       0   38771   38772   38773   38772   38773
   38773       0   38775   38776   38777   38776   38777   38777       0   38779
   38780   38781   38780   38781   38781       0   38783   38784   38785   38784
   38785   38785       0   38787   38788   38789   38788   38789   38789       0
   38791   38792   38793   38792   38793   38793       0   38795   38796   38797
   38796   38797   38797       0   38799   38800   38801   38800   38801   38801
       0   38803   38804   38805   38804   38805   38805       0   38807   38808
   38809   38808   38809   38809       0   38811   38812   38813   38812   38813
   38813       0   38815   38816   38817   38816   38817   38817       0   38819
   38820   38821   38820   38821   38821       0   38823   38824   38825   38824
   38825   38825       0   38827   38828   38829   38828   38829   38829       0
   38831   38832   38833   38832   38833   38833       0   38835   38836   38837
   38836   38837   38837       0   38839   38840   38841   38840   38841   38841
       0   38843   38844   38845   38844   38845   38845       0   38847   38848
   38849   38848   38849   38849       0   38851   38852   38853   38852   38853
   38853       0   38855   38856   38857   38856   38857   38857       0   38859
   38860   38861   38860   38861   38861       0   38863   38864   38865   38864
   38865   38865       0   38867   38868   38869   38868   38869   38869       0
   38871   38872   38873   38872   38873   38873       0   38875   38876   38877
   38876   38877   38877       0   38879   38880   38881   38880   38881   38881
       0   38883   38884   38885   38884   38885   38885       0   38887   38888
   38889   38888   38889   38889       0   38891   38892   38893   38892   38893
   38893       0   38895   38896   38897   38896   38897   38897       0   38899
   38900   38901   38900   38901   38901       0   38903   38904   38905   38904
   38905   38905       0   38907   38908   38909   38908   38909   38909       0
   38911   38912   38913   38912   38913   38913       0   38915   38916   38917
   38916   38917   38917       0   38919   38920   38921   38920   38921   38921
       0   38923   38924   38925   38924   38925   38925       0   38927   38928
   38929   38928   38929   38929       0   38931   38932   38933   38932   38933
   38933       0   38935   38936   38937   38936   38937   38937       0   38939
   38940   38941   38940   38941   38941       0   38943   38944   38945   38944
   38945   38945       0   38947   38948   38949   38948   38949   38949       0
   38951   38952   38953   38952   38953   38953       0   38955   38956   38957
   38956   38957   38957       0   38959   38960   38961   38960   38961   38961
       0   38963   38964   38965   38964   38965   38965       0   38967   38968
   38969   38968   38969   38969       0   38971   38972   38973   38972   38973
   38973       0   38975   38976   38977   38976   38977   38977       0   38979
   38980   38981   38980   38981   38981       0   38983   38984   38985   38984
   38985   38985       0   38987   38988   38989   38988   38989   38989       0
   38991   38992   38993   38992   38993   38993       0   38995   38996   38997
   38996   38997   38997       0   38999   39000   39001   39000   39001   39001
       0   39003   39004   39005   39004   39005   39005       0   39007   39008
   39009   39008   39009   39009       0   39011   39012   39013   39012   39013
   39013       0   39015   39016   39017   39016   39017   39017       0   39019
   39020   39021   39020   39021   39021       0   39023   39024   39025   39024
   39025   39025       0   39027   39028   39029   39028   39029   39029       0
   39031   39032   39033   39032   39033   39033       0   39035   39036   39037
   39036   39037   39037       0   39039   39040   39041   39040   39041   39041
       0   39043   39044   39045   39044   39045   39045       0   39047   39048
   39049   39048   39049   39049       0   39051   39052   39053   39052   39053
   39053       0   39055   39056   39057   39056   39057   39057       0   39059
   39060   39061   39060   39061   39061       0   39063   39064   39065   39064
   39065   39065       0   39067   39068   39069   39068   39069   39069       0
   39071   39072   39073   39072   39073   39073       0   39075   39076   39077
   39076   39077   39077       0   39079   39080   39081   39080   39081   39081
       0   39083   39084   39085   39084   39085   39085       0   39087   39088
   39089   39088   39089   39089       0   39091   39092   39093   39092   39093
   39093       0   39095   39096   39097   39096   39097   39097       0   39099
   39100   39101   39100   39101   39101       0   39103   39104   39105   39104
   39105   39105       0   39107   39108   39109   39108   39109   39109       0
   39111   39112   39113   39112   39113   39113       0   39115   39116   39117
   39116   39117   39117       0   39119   39120   39121   39120   39121   39121
       0   39123   39124   39125   39124   39125   39125       0   39127   39128
   39129   39128   39129   39129       0   39131   39132   39133   39132   39133
   39133       0   39135   39136   39137   39136   39137   39137       0   39139
   39140   39141   39140   39141   39141       0   39143   39144   39145   39144
   39145   39145       0   39147   39148   39149   39148   39149   39149       0
   39151   39152   39153   39152   39153   39153       0   39155   39156   39157
   39156   39157   39157       0   39159   39160   39161   39160   39161   39161
       0   39163   39164   39165   39164   39165   39165       0   39167   39168
   39169   39168   39169   39169       0   39171   39172   39173   39172   39173
   39173       0   39175   39176   39177   39176   39177   39177       0   39179
   39180   39181   39180   39181   39181       0   39183   39184   39185   39184
   39185   39185       0   39187   39188   39189   39188   39189   39189       0
   39191   39192   39193   39192   39193   39193       0   39195   39196   39197
   39196   39197   39197       0   39199   39200   39201   39200   39201   39201
       0   39203   39204   39205   39204   39205   39205       0   39207   39208
   39209   39208   39209   39209       0   39211   39212   39213   39212   39213
   39213       0   39215   39216   39217   39216   39217   39217       0   39219
   39220   39221   39220   39221   39221       0   39223   39224   39225   39224
   39225   39225       0   39227   39228   39229   39228   39229   39229       0
   39231   39232   39233   39232   39233   39233       0   39235   39236   39237
   39236   39237   39237       0   39239   39240   39241   39240   39241   39241
       0   39243   39244   39245   39244   39245   39245       0   39247   39248
   39249   39248   39249   39249       0   39251   39252   39253   39252   39253
   39253       0   39255   39256   39257   39256   39257   39257       0   39259
   39260   39261   39260   39261   39261       0   39263   39264   39265   39264
   39265   39265       0   39267   39268   39269   39268   39269   39269       0
   39271   39272   39273   39272   39273   39273       0   39275   39276   39277
   39276   39277   39277       0   39279   39280   39281   39280   39281   39281
       0   39283   39284   39285   39284   39285   39285       0   39287   39288
   39289   39288   39289   39289       0   39291   39292   39293   39292   39293
   39293       0   39295   39296   39297   39296   39297   39297       0   39299
   39300   39301   39300   39301   39301       0   39303   39304   39305   39304
   39305   39305       0   39307   39308   39309   39308   39309   39309       0
   39311   39312   39313   39312   39313   39313       0   39315   39316   39317
   39316   39317   39317       0   39319   39320   39321   39320   39321   39321
       0   39323   39324   39325   39324   39325   39325       0   39327   39328
   39329   39328   39329   39329       0   39331   39332   39333   39332   39333
   39333       0   39335   39336   39337   39336   39337   39337       0   39339
   39340   39341   39340   39341   39341       0   39343   39344   39345   39344
   39345   39345       0   39347   39348   39349   39348   39349   39349       0
   39351   39352   39353   39352   39353   39353       0   39355   39356   39357
   39356   39357   39357       0   39359   39360   39361   39360   39361   39361
       0   39363   39364   39365   39364   39365   39365       0   39367   39368
   39369   39368   39369   39369       0   39371   39372   39373   39372   39373
   39373       0   39375   39376   39377   39376   39377   39377       0   39379
   39380   39381   39380   39381   39381       0   39383   39384   39385   39384
   39385   39385       0   39387   39388   39389   39388   39389   39389       0
   39391   39392   39393   39392   39393   39393       0   39395   39396   39397
   39396   39397   39397       0   39399   39400   39401   39400   39401   39401
       0   39403   39404   39405   39404   39405   39405       0   39407   39408
   39409   39408   39409   39409       0   39411   39412   39413   39412   39413
   39413       0   39415   39416   39417   39416   39417   39417       0   39419
   39420   39421   39420   39421   39421       0   39423   39424   39425   39424
   39425   39425       0   39427   39428   39429   39428   39429   39429       0
   39431   39432   39433   39432   39433   39433       0   39435   39436   39437
   39436   39437   39437       0   39439   39440   39441   39440   39441   39441
       0   39443   39444   39445   39444   39445   39445       0   39447   39448
   39449   39448   39449   39449       0   39451   39452   39453   39452   39453
   39453       0   39455   39456   39457   39456   39457   39457       0   39459
   39460   39461   39460   39461   39461       0   39463   39464   39465   39464
   39465   39465       0   39467   39468   39469   39468   39469   39469       0
   39471   39472   39473   39472   39473   39473       0   39475   39476   39477
   39476   39477   39477       0   39479   39480   39481   39480   39481   39481
       0   39483   39484   39485   39484   39485   39485       0   39487   39488
   39489   39488   39489   39489       0   39491   39492   39493   39492   39493
   39493       0   39495   39496   39497   39496   39497   39497       0   39499
   39500   39501   39500   39501   39501       0   39503   39504   39505   39504
   39505   39505       0   39507   39508   39509   39508   39509   39509       0
   39511   39512   39513   39512   39513   39513       0   39515   39516   39517
   39516   39517   39517       0   39519   39520   39521   39520   39521   39521
       0   39523   39524   39525   39524   39525   39525       0   39527   39528
   39529   39528   39529   39529       0   39531   39532   39533   39532   39533
   39533       0   39535   39536   39537   39536   39537   39537       0   39539
   39540   39541   39540   39541   39541       0   39543   39544   39545   39544
   39545   39545       0   39547   39548   39549   39548   39549   39549       0
   39551   39552   39553   39552   39553   39553       0   39555   39556   39557
   39556   39557   39557       0   39559   39560   39561   39560   39561   39561
       0   39563   39564   39565   39564   39565   39565       0   39567   39568
   39569   39568   39569   39569       0   39571   39572   39573   39572   39573
   39573       0   39575   39576   39577   39576   39577   39577       0   39579
   39580   39581   39580   39581   39581       0   39583   39584   39585   39584
   39585   39585       0   39587   39588   39589   39588   39589   39589       0
   39591   39592   39593   39592   39593   39593       0   39595   39596   39597
   39596   39597   39597       0   39599   39600   39601   39600   39601   39601
       0   39603   39604   39605   39604   39605   39605       0   39607   39608
   39609   39608   39609   39609       0   39611   39612   39613   39612   39613
   39613       0   39615   39616   39617   39616   39617   39617       0   39619
   39620   39621   39620   39621   39621       0   39623   39624   39625   39624
   39625   39625       0   39627   39628   39629   39628   39629   39629       0
   39631   39632   39633   39632   39633   39633       0   39635   39636   39637
   39636   39637   39637       0   39639   39640   39641   39640   39641   39641
       0   39643   39644   39645   39644   39645   39645       0   39647   39648
   39649   39648   39649   39649       0   39651   39652   39653   39652   39653
   39653       0   39655   39656   39657   39656   39657   39657       0   39659
   39660   39661   39660   39661   39661       0   39663   39664   39665   39664
   39665   39665       0   39667   39668   39669   39668   39669   39669       0
   39671   39672   39673   39672   39673   39673       0   39675   39676   39677
   39676   39677   39677       0   39679   39680   39681   39680   39681   39681
       0   39683   39684   39685   39684   39685   39685       0   39687   39688
   39689   39688   39689   39689       0   39691   39692   39693   39692   39693
   39693       0   39695   39696   39697   39696   39697   39697       0   39699
   39700   39701   39700   39701   39701       0   39703   39704   39705   39704
   39705   39705       0   39707   39708   39709   39708   39709   39709       0
   39711   39712   39713   39712   39713   39713       0   39715   39716   39717
   39716   39717   39717       0   39719   39720   39721   39720   39721   39721
       0   39723   39724   39725   39724   39725   39725       0   39727   39728
   39729   39728   39729   39729       0   39731   39732   39733   39732   39733
   39733       0   39735   39736   39737   39736   39737   39737       0   39739
   39740   39741   39740   39741   39741       0   39743   39744   39745   39744
   39745   39745       0   39747   39748   39749   39748   39749   39749       0
   39751   39752   39753   39752   39753   39753       0   39755   39756   39757
   39756   39757   39757       0   39759   39760   39761   39760   39761   39761
       0   39763   39764   39765   39764   39765   39765       0   39767   39768
   39769   39768   39769   39769       0   39771   39772   39773   39772   39773
   39773       0   39775   39776   39777   39776   39777   39777       0   39779
   39780   39781   39780   39781   39781       0   39783   39784   39785   39784
   39785   39785       0   39787   39788   39789   39788   39789   39789       0
   39791   39792   39793   39792   39793   39793       0   39795   39796   39797
   39796   39797   39797       0   39799   39800   39801   39800   39801   39801
       0   39803   39804   39805   39804   39805   39805       0   39807   39808
   39809   39808   39809   39809       0   39811   39812   39813   39812   39813
   39813       0   39815   39816   39817   39816   39817   39817       0   39819
   39820   39821   39820   39821   39821       0   39823   39824   39825   39824
   39825   39825       0   39827   39828   39829   39828   39829   39829       0
   39831   39832   39833   39832   39833   39833       0   39835   39836   39837
   39836   39837   39837       0   39839   39840   39841   39840   39841   39841
       0   39843   39844   39845   39844   39845   39845       0   39847   39848
   39849   39848   39849   39849       0   39851   39852   39853   39852   39853
   39853       0   39855   39856   39857   39856   39857   39857       0   39859
   39860   39861   39860   39861   39861       0   39863   39864   39865   39864
   39865   39865       0   39867   39868   39869   39868   39869   39869       0
   39871   39872   39873   39872   39873   39873       0   39875   39876   39877
   39876   39877   39877       0   39879   39880   39881   39880   39881   39881
       0   39883   39884   39885   39884   39885   39885       0   39887   39888
   39889   39888   39889   39889       0   39891   39892   39893   39892   39893
   39893       0   39895   39896   39897   39896   39897   39897       0   39899
   39900   39901   39900   39901   39901       0   39903   39904   39905   39904
   39905   39905       0   39907   39908   39909   39908   39909   39909       0
   39911   39912   39913   39912   39913   39913       0   39915   39916   39917
   39916   39917   39917       0   39919   39920   39921   39920   39921   39921
       0   39923   39924   39925   39924   39925   39925       0   39927   39928
   39929   39928   39929   39929       0   39931   39932   39933   39932   39933
   39933       0   39935   39936   39937   39936   39937   39937       0   39939
   39940   39941   39940   39941   39941       0   39943   39944   39945   39944
   39945   39945       0   39947   39948   39949   39948   39949   39949       0
   39951   39952   39953   39952   39953   39953       0   39955   39956   39957
   39956   39957   39957       0   39959   39960   39961   39960   39961   39961
       0   39963   39964   39965   39964   39965   39965       0   39967   39968
   39969   39968   39969   39969       0   39971   39972   39973   39972   39973
   39973       0   39975   39976   39977   39976   39977   39977       0   39979
   39980   39981   39980   39981   39981       0   39983   39984   39985   39984
   39985   39985       0   39987   39988   39989   39988   39989   39989       0
   39991   39992   39993   39992   39993   39993       0   39995   39996   39997
   39996   39997   39997       0   39999   40000   40001   40000   40001   40001
       0   40003   40004   40005   40004   40005   40005       0   40007   40008
   40009   40008   40009   40009       0   40011   40012   40013   40012   40013
   40013       0   40015   40016   40017   40016   40017   40017       0   40019
   40020   40021   40020   40021   40021       0   40023   40024   40025   40024
   40025   40025       0   40027   40028   40029   40028   40029   40029       0
   40031   40032   40033   40032   40033   40033       0   40035   40036   40037
   40036   40037   40037       0   40039   40040   40041   40040   40041   40041
       0   40043   40044   40045   40044   40045   40045       0   40047   40048
   40049   40048   40049   40049       0   40051   40052   40053   40052   40053
   40053       0   40055   40056   40057   40056   40057   40057       0   40059
   40060   40061   40060   40061   40061       0   40063   40064   40065   40064
   40065   40065       0   40067   40068   40069   40068   40069   40069       0
   40071   40072   40073   40072   40073   40073       0   40075   40076   40077
   40076   40077   40077       0   40079   40080   40081   40080   40081   40081
       0   40083   40084   40085   40084   40085   40085       0   40087   40088
   40089   40088   40089   40089       0   40091   40092   40093   40092   40093
   40093       0   40095   40096   40097   40096   40097   40097       0   40099
   40100   40101   40100   40101   40101       0   40103   40104   40105   40104
   40105   40105       0   40107   40108   40109   40108   40109   40109       0
   40111   40112   40113   40112   40113   40113       0   40115   40116   40117
   40116   40117   40117       0   40119   40120   40121   40120   40121   40121
       0   40123   40124   40125   40124   40125   40125       0   40127   40128
   40129   40128   40129   40129       0   40131   40132   40133   40132   40133
   40133       0   40135   40136   40137   40136   40137   40137       0   40139
   40140   40141   40140   40141   40141       0   40143   40144   40145   40144
   40145   40145       0   40147   40148   40149   40148   40149   40149       0
   40151   40152   40153   40152   40153   40153       0   40155   40156   40157
   40156   40157   40157       0   40159   40160   40161   40160   40161   40161
       0   40163   40164   40165   40164   40165   40165       0   40167   40168
   40169   40168   40169   40169       0   40171   40172   40173   40172   40173
   40173       0   40175   40176   40177   40176   40177   40177       0   40179
   40180   40181   40180   40181   40181       0   40183   40184   40185   40184
   40185   40185       0   40187   40188   40189   40188   40189   40189       0
   40191   40192   40193   40192   40193   40193       0   40195   40196   40197
   40196   40197   40197       0   40199   40200   40201   40200   40201   40201
       0   40203   40204   40205   40204   40205   40205       0   40207   40208
   40209   40208   40209   40209       0   40211   40212   40213   40212   40213
   40213       0   40215   40216   40217   40216   40217   40217       0   40219
   40220   40221   40220   40221   40221       0   40223   40224   40225   40224
   40225   40225       0   40227   40228   40229   40228   40229   40229       0
   40231   40232   40233   40232   40233   40233       0   40235   40236   40237
   40236   40237   40237       0   40239   40240   40241   40240   40241   40241
       0   40243   40244   40245   40244   40245   40245       0   40247   40248
   40249   40248   40249   40249       0   40251   40252   40253   40252   40253
   40253       0   40255   40256   40257   40256   40257   40257       0   40259
   40260   40261   40260   40261   40261       0   40263   40264   40265   40264
   40265   40265       0   40267   40268   40269   40268   40269   40269       0
   40271   40272   40273   40272   40273   40273       0   40275   40276   40277
   40276   40277   40277       0   40279   40280   40281   40280   40281   40281
       0   40283   40284   40285   40284   40285   40285       0   40287   40288
   40289   40288   40289   40289       0   40291   40292   40293   40292   40293
   40293       0   40295   40296   40297   40296   40297   40297       0   40299
   40300   40301   40300   40301   40301       0   40303   40304   40305   40304
   40305   40305       0   40307   40308   40309   40308   40309   40309       0
   40311   40312   40313   40312   40313   40313       0   40315   40316   40317
   40316   40317   40317       0   40319   40320   40321   40320   40321   40321
       0   40323   40324   40325   40324   40325   40325       0   40327   40328
   40329   40328   40329   40329       0   40331   40332   40333   40332   40333
   40333       0   40335   40336   40337   40336   40337   40337       0   40339
   40340   40341   40340   40341   40341       0   40343   40344   40345   40344
   40345   40345       0   40347   40348   40349   40348   40349   40349       0
   40351   40352   40353   40352   40353   40353       0   40355   40356   40357
   40356   40357   40357       0   40359   40360   40361   40360   40361   40361
       0   40363   40364   40365   40364   40365   40365       0   40367   40368
   40369   40368   40369   40369       0   40371   40372   40373   40372   40373
   40373       0   40375   40376   40377   40376   40377   40377       0   40379
   40380   40381   40380   40381   40381       0   40383   40384   40385   40384
   40385   40385       0   40387   40388   40389   40388   40389   40389       0
   40391   40392   40393   40392   40393   40393       0   40395   40396   40397
   40396   40397   40397       0   40399   40400   40401   40400   40401   40401
       0   40403   40404   40405   40404   40405   40405       0   40407   40408
   40409   40408   40409   40409       0   40411   40412   40413   40412   40413
   40413       0   40415   40416   40417   40416   40417   40417       0   40419
   40420   40421   40420   40421   40421       0   40423   40424   40425   40424
   40425   40425       0   40427   40428   40429   40428   40429   40429       0
   40431   40432   40433   40432   40433   40433       0   40435   40436   40437
   40436   40437   40437       0   40439   40440   40441   40440   40441   40441
       0   40443   40444   40445   40444   40445   40445       0   40447   40448
   40449   40448   40449   40449       0   40451   40452   40453   40452   40453
   40453       0   40455   40456   40457   40456   40457   40457       0   40459
   40460   40461   40460   40461   40461       0   40463   40464   40465   40464
   40465   40465       0   40467   40468   40469   40468   40469   40469       0
   40471   40472   40473   40472   40473   40473       0   40475   40476   40477
   40476   40477   40477       0   40479   40480   40481   40480   40481   40481
       0   40483   40484   40485   40484   40485   40485       0   40487   40488
   40489   40488   40489   40489       0   40491   40492   40493   40492   40493
   40493       0   40495   40496   40497   40496   40497   40497       0   40499
   40500   40501   40500   40501   40501       0   40503   40504   40505   40504
   40505   40505       0   40507   40508   40509   40508   40509   40509       0
   40511   40512   40513   40512   40513   40513       0   40515   40516   40517
   40516   40517   40517       0   40519   40520   40521   40520   40521   40521
       0   40523   40524   40525   40524   40525   40525       0   40527   40528
   40529   40528   40529   40529       0   40531   40532   40533   40532   40533
   40533       0   40535   40536   40537   40536   40537   40537       0   40539
   40540   40541   40540   40541   40541       0   40543   40544   40545   40544
   40545   40545       0   40547   40548   40549   40548   40549   40549       0
   40551   40552   40553   40552   40553   40553       0   40555   40556   40557
   40556   40557   40557       0   40559   40560   40561   40560   40561   40561
       0   40563   40564   40565   40564   40565   40565       0   40567   40568
   40569   40568   40569   40569       0   40571   40572   40573   40572   40573
   40573       0   40575   40576   40577   40576   40577   40577       0   40579
   40580   40581   40580   40581   40581       0   40583   40584   40585   40584
   40585   40585       0   40587   40588   40589   40588   40589   40589       0
   40591   40592   40593   40592   40593   40593       0   40595   40596   40597
   40596   40597   40597       0   40599   40600   40601   40600   40601   40601
       0   40603   40604   40605   40604   40605   40605       0   40607   40608
   40609   40608   40609   40609       0   40611   40612   40613   40612   40613
   40613       0   40615   40616   40617   40616   40617   40617       0   40619
   40620   40621   40620   40621   40621       0   40623   40624   40625   40624
   40625   40625       0   40627   40628   40629   40628   40629   40629       0
   40631   40632   40633   40632   40633   40633       0   40635   40636   40637
   40636   40637   40637       0   40639   40640   40641   40640   40641   40641
       0   40643   40644   40645   40644   40645   40645       0   40647   40648
   40649   40648   40649   40649       0   40651   40652   40653   40652   40653
   40653       0   40655   40656   40657   40656   40657   40657       0   40659
   40660   40661   40660   40661   40661       0   40663   40664   40665   40664
   40665   40665       0   40667   40668   40669   40668   40669   40669       0
   40671   40672   40673   40672   40673   40673       0   40675   40676   40677
   40676   40677   40677       0   40679   40680   40681   40680   40681   40681
       0   40683   40684   40685   40684   40685   40685       0   40687   40688
   40689   40688   40689   40689       0   40691   40692   40693   40692   40693
   40693       0   40695   40696   40697   40696   40697   40697       0   40699
   40700   40701   40700   40701   40701       0   40703   40704   40705   40704
   40705   40705       0   40707   40708   40709   40708   40709   40709       0
   40711   40712   40713   40712   40713   40713       0   40715   40716   40717
   40716   40717   40717       0   40719   40720   40721   40720   40721   40721
       0   40723   40724   40725   40724   40725   40725       0   40727   40728
   40729   40728   40729   40729       0   40731   40732   40733   40732   40733
   40733       0   40735   40736   40737   40736   40737   40737       0   40739
   40740   40741   40740   40741   40741       0   40743   40744   40745   40744
   40745   40745       0   40747   40748   40749   40748   40749   40749       0
   40751   40752   40753   40752   40753   40753       0   40755   40756   40757
   40756   40757   40757       0   40759   40760   40761   40760   40761   40761
       0   40763   40764   40765   40764   40765   40765       0   40767   40768
   40769   40768   40769   40769       0   40771   40772   40773   40772   40773
   40773       0   40775   40776   40777   40776   40777   40777       0   40779
   40780   40781   40780   40781   40781       0   40783   40784   40785   40784
   40785   40785       0   40787   40788   40789   40788   40789   40789       0
   40791   40792   40793   40792   40793   40793       0   40795   40796   40797
   40796   40797   40797       0   40799   40800   40801   40800   40801   40801
       0   40803   40804   40805   40804   40805   40805       0   40807   40808
   40809   40808   40809   40809       0   40811   40812   40813   40812   40813
   40813       0   40815   40816   40817   40816   40817   40817       0   40819
   40820   40821   40820   40821   40821       0   40823   40824   40825   40824
   40825   40825       0   40827   40828   40829   40828   40829   40829       0
   40831   40832   40833   40832   40833   40833       0   40835   40836   40837
   40836   40837   40837       0   40839   40840   40841   40840   40841   40841
       0   40843   40844   40845   40844   40845   40845       0   40847   40848
   40849   40848   40849   40849       0   40851   40852   40853   40852   40853
   40853       0   40855   40856   40857   40856   40857   40857       0   40859
   40860   40861   40860   40861   40861       0   40863   40864   40865   40864
   40865   40865       0   40867   40868   40869   40868   40869   40869       0
   40871   40872   40873   40872   40873   40873       0   40875   40876   40877
   40876   40877   40877       0   40879   40880   40881   40880   40881   40881
       0   40883   40884   40885   40884   40885   40885       0   40887   40888
   40889   40888   40889   40889       0   40891   40892   40893   40892   40893
   40893       0   40895   40896   40897   40896   40897   40897       0   40899
   40900   40901   40900   40901   40901       0   40903   40904   40905   40904
   40905   40905       0   40907   40908   40909   40908   40909   40909       0
   40911   40912   40913   40912   40913   40913       0   40915   40916   40917
   40916   40917   40917       0   40919   40920   40921   40920   40921   40921
       0   40923   40924   40925   40924   40925   40925       0   40927   40928
   40929   40928   40929   40929       0   40931   40932   40933   40932   40933
   40933       0   40935   40936   40937   40936   40937   40937       0   40939
   40940   40941   40940   40941   40941       0   40943   40944   40945   40944
   40945   40945       0   40947   40948   40949   40948   40949   40949       0
   40951   40952   40953   40952   40953   40953       0   40955   40956   40957
   40956   40957   40957       0   40959   40960   40961   40960   40961   40961
       0   40963   40964   40965   40964   40965   40965       0   40967   40968
   40969   40968   40969   40969       0   40971   40972   40973   40972   40973
   40973       0   40975   40976   40977   40976   40977   40977       0   40979
   40980   40981   40980   40981   40981       0   40983   40984   40985   40984
   40985   40985       0   40987   40988   40989   40988   40989   40989       0
   40991   40992   40993   40992   40993   40993       0   40995   40996   40997
   40996   40997   40997       0   40999   41000   41001   41000   41001   41001
       0   41003   41004   41005   41004   41005   41005       0   41007   41008
   41009   41008   41009   41009       0   41011   41012   41013   41012   41013
   41013       0   41015   41016   41017   41016   41017   41017       0   41019
   41020   41021   41020   41021   41021       0   41023   41024   41025   41024
   41025   41025       0   41027   41028   41029   41028   41029   41029       0
   41031   41032   41033   41032   41033   41033       0   41035   41036   41037
   41036   41037   41037       0   41039   41040   41041   41040   41041   41041
       0   41043   41044   41045   41044   41045   41045       0   41047   41048
   41049   41048   41049   41049       0   41051   41052   41053   41052   41053
   41053       0   41055   41056   41057   41056   41057   41057       0   41059
   41060   41061   41060   41061   41061       0   41063   41064   41065   41064
   41065   41065       0   41067   41068   41069   41068   41069   41069       0
   41071   41072   41073   41072   41073   41073       0   41075   41076   41077
   41076   41077   41077       0   41079   41080   41081   41080   41081   41081
       0   41083   41084   41085   41084   41085   41085       0   41087   41088
   41089   41088   41089   41089       0   41091   41092   41093   41092   41093
   41093       0   41095   41096   41097   41096   41097   41097       0   41099
   41100   41101   41100   41101   41101       0   41103   41104   41105   41104
   41105   41105       0   41107   41108   41109   41108   41109   41109       0
   41111   41112   41113   41112   41113   41113       0   41115   41116   41117
   41116   41117   41117       0   41119   41120   41121   41120   41121   41121
       0   41123   41124   41125   41124   41125   41125       0   41127   41128
   41129   41128   41129   41129       0   41131   41132   41133   41132   41133
   41133       0   41135   41136   41137   41136   41137   41137       0   41139
   41140   41141   41140   41141   41141       0   41143   41144   41145   41144
   41145   41145       0   41147   41148   41149   41148   41149   41149       0
   41151   41152   41153   41152   41153   41153       0   41155   41156   41157
   41156   41157   41157       0   41159   41160   41161   41160   41161   41161
       0   41163   41164   41165   41164   41165   41165       0   41167   41168
   41169   41168   41169   41169       0   41171   41172   41173   41172   41173
   41173       0   41175   41176   41177   41176   41177   41177       0   41179
   41180   41181   41180   41181   41181       0   41183   41184   41185   41184
   41185   41185       0   41187   41188   41189   41188   41189   41189       0
   41191   41192   41193   41192   41193   41193       0   41195   41196   41197
   41196   41197   41197       0   41199   41200   41201   41200   41201   41201
       0   41203   41204   41205   41204   41205   41205       0   41207   41208
   41209   41208   41209   41209       0   41211   41212   41213   41212   41213
   41213       0   41215   41216   41217   41216   41217   41217       0   41219
   41220   41221   41220   41221   41221       0   41223   41224   41225   41224
   41225   41225       0   41227   41228   41229   41228   41229   41229       0
   41231   41232   41233   41232   41233   41233       0   41235   41236   41237
   41236   41237   41237       0   41239   41240   41241   41240   41241   41241
       0   41243   41244   41245   41244   41245   41245       0   41247   41248
   41249   41248   41249   41249       0   41251   41252   41253   41252   41253
   41253       0   41255   41256   41257   41256   41257   41257       0   41259
   41260   41261   41260   41261   41261       0   41263   41264   41265   41264
   41265   41265       0   41267   41268   41269   41268   41269   41269       0
   41271   41272   41273   41272   41273   41273       0   41275   41276   41277
   41276   41277   41277       0   41279   41280   41281   41280   41281   41281
       0   41283   41284   41285   41284   41285   41285       0   41287   41288
   41289   41288   41289   41289       0   41291   41292   41293   41292   41293
   41293       0   41295   41296   41297   41296   41297   41297       0   41299
   41300   41301   41300   41301   41301       0   41303   41304   41305   41304
   41305   41305       0   41307   41308   41309   41308   41309   41309       0
   41311   41312   41313   41312   41313   41313       0   41315   41316   41317
   41316   41317   41317       0   41319   41320   41321   41320   41321   41321
       0   41323   41324   41325   41324   41325   41325       0   41327   41328
   41329   41328   41329   41329       0   41331   41332   41333   41332   41333
   41333       0   41335   41336   41337   41336   41337   41337       0   41339
   41340   41341   41340   41341   41341       0   41343   41344   41345   41344
   41345   41345       0   41347   41348   41349   41348   41349   41349       0
   41351   41352   41353   41352   41353   41353       0   41355   41356   41357
   41356   41357   41357       0   41359   41360   41361   41360   41361   41361
       0   41363   41364   41365   41364   41365   41365       0   41367   41368
   41369   41368   41369   41369       0   41371   41372   41373   41372   41373
   41373       0   41375   41376   41377   41376   41377   41377       0   41379
   41380   41381   41380   41381   41381       0   41383   41384   41385   41384
   41385   41385       0   41387   41388   41389   41388   41389   41389       0
   41391   41392   41393   41392   41393   41393       0   41395   41396   41397
   41396   41397   41397       0   41399   41400   41401   41400   41401   41401
       0   41403   41404   41405   41404   41405   41405       0   41407   41408
   41409   41408   41409   41409       0   41411   41412   41413   41412   41413
   41413       0   41415   41416   41417   41416   41417   41417       0   41419
   41420   41421   41420   41421   41421       0   41423   41424   41425   41424
   41425   41425       0   41427   41428   41429   41428   41429   41429       0
   41431   41432   41433   41432   41433   41433       0   41435   41436   41437
   41436   41437   41437       0   41439   41440   41441   41440   41441   41441
       0   41443   41444   41445   41444   41445   41445       0   41447   41448
   41449   41448   41449   41449       0   41451   41452   41453   41452   41453
   41453       0   41455   41456   41457   41456   41457   41457       0   41459
   41460   41461   41460   41461   41461       0   41463   41464   41465   41464
   41465   41465       0   41467   41468   41469   41468   41469   41469       0
   41471   41472   41473   41472   41473   41473       0   41475   41476   41477
   41476   41477   41477       0   41479   41480   41481   41480   41481   41481
       0   41483   41484   41485   41484   41485   41485       0   41487   41488
   41489   41488   41489   41489       0   41491   41492   41493   41492   41493
   41493       0   41495   41496   41497   41496   41497   41497       0   41499
   41500   41501   41500   41501   41501       0   41503   41504   41505   41504
   41505   41505       0   41507   41508   41509   41508   41509   41509       0
   41511   41512   41513   41512   41513   41513       0   41515   41516   41517
   41516   41517   41517       0   41519   41520   41521   41520   41521   41521
       0   41523   41524   41525   41524   41525   41525       0   41527   41528
   41529   41528   41529   41529       0   41531   41532   41533   41532   41533
   41533       0   41535   41536   41537   41536   41537   41537       0   41539
   41540   41541   41540   41541   41541       0   41543   41544   41545   41544
   41545   41545       0   41547   41548   41549   41548   41549   41549       0
   41551   41552   41553   41552   41553   41553       0   41555   41556   41557
   41556   41557   41557       0   41559   41560   41561   41560   41561   41561
       0   41563   41564   41565   41564   41565   41565       0   41567   41568
   41569   41568   41569   41569       0   41571   41572   41573   41572   41573
   41573       0   41575   41576   41577   41576   41577   41577       0   41579
   41580   41581   41580   41581   41581       0   41583   41584   41585   41584
   41585   41585       0   41587   41588   41589   41588   41589   41589       0
   41591   41592   41593   41592   41593   41593       0   41595   41596   41597
   41596   41597   41597       0   41599   41600   41601   41600   41601   41601
       0   41603   41604   41605   41604   41605   41605       0   41607   41608
   41609   41608   41609   41609       0   41611   41612   41613   41612   41613
   41613       0   41615   41616   41617   41616   41617   41617       0   41619
   41620   41621   41620   41621   41621       0   41623   41624   41625   41624
   41625   41625       0   41627   41628   41629   41628   41629   41629       0
   41631   41632   41633   41632   41633   41633       0   41635   41636   41637
   41636   41637   41637       0   41639   41640   41641   41640   41641   41641
       0   41643   41644   41645   41644   41645   41645       0   41647   41648
   41649   41648   41649   41649       0   41651   41652   41653   41652   41653
   41653       0   41655   41656   41657   41656   41657   41657       0   41659
   41660   41661   41660   41661   41661       0   41663   41664   41665   41664
   41665   41665       0   41667   41668   41669   41668   41669   41669       0
   41671   41672   41673   41672   41673   41673       0   41675   41676   41677
   41676   41677   41677       0   41679   41680   41681   41680   41681   41681
       0   41683   41684   41685   41684   41685   41685       0   41687   41688
   41689   41688   41689   41689       0   41691   41692   41693   41692   41693
   41693       0   41695   41696   41697   41696   41697   41697       0   41699
   41700   41701   41700   41701   41701       0   41703   41704   41705   41704
   41705   41705       0   41707   41708   41709   41708   41709   41709       0
   41711   41712   41713   41712   41713   41713       0   41715   41716   41717
   41716   41717   41717       0   41719   41720   41721   41720   41721   41721
       0   41723   41724   41725   41724   41725   41725       0   41727   41728
   41729   41728   41729   41729       0   41731   41732   41733   41732   41733
   41733       0   41735   41736   41737   41736   41737   41737       0   41739
   41740   41741   41740   41741   41741       0   41743   41744   41745   41744
   41745   41745       0   41747   41748   41749   41748   41749   41749       0
   41751   41752   41753   41752   41753   41753       0   41755   41756   41757
   41756   41757   41757       0   41759   41760   41761   41760   41761   41761
       0   41763   41764   41765   41764   41765   41765       0   41767   41768
   41769   41768   41769   41769       0   41771   41772   41773   41772   41773
   41773       0   41775   41776   41777   41776   41777   41777       0   41779
   41780   41781   41780   41781   41781       0   41783   41784   41785   41784
   41785   41785       0   41787   41788   41789   41788   41789   41789       0
   41791   41792   41793   41792   41793   41793       0   41795   41796   41797
   41796   41797   41797       0   41799   41800   41801   41800   41801   41801
       0   41803   41804   41805   41804   41805   41805       0   41807   41808
   41809   41808   41809   41809       0   41811   41812   41813   41812   41813
   41813       0   41815   41816   41817   41816   41817   41817       0   41819
   41820   41821   41820   41821   41821       0   41823   41824   41825   41824
   41825   41825       0   41827   41828   41829   41828   41829   41829       0
   41831   41832   41833   41832   41833   41833       0   41835   41836   41837
   41836   41837   41837       0   41839   41840   41841   41840   41841   41841
       0   41843   41844   41845   41844   41845   41845       0   41847   41848
   41849   41848   41849   41849       0   41851   41852   41853   41852   41853
   41853       0   41855   41856   41857   41856   41857   41857       0   41859
   41860   41861   41860   41861   41861       0   41863   41864   41865   41864
   41865   41865       0   41867   41868   41869   41868   41869   41869       0
   41871   41872   41873   41872   41873   41873       0   41875   41876   41877
   41876   41877   41877       0   41879   41880   41881   41880   41881   41881
       0   41883   41884   41885   41884   41885   41885       0   41887   41888
   41889   41888   41889   41889       0   41891   41892   41893   41892   41893
   41893       0   41895   41896   41897   41896   41897   41897       0   41899
   41900   41901   41900   41901   41901       0   41903   41904   41905   41904
   41905   41905       0   41907   41908   41909   41908   41909   41909       0
   41911   41912   41913   41912   41913   41913       0   41915   41916   41917
   41916   41917   41917       0   41919   41920   41921   41920   41921   41921
       0   41923   41924   41925   41924   41925   41925       0   41927   41928
   41929   41928   41929   41929       0   41931   41932   41933   41932   41933
   41933       0   41935   41936   41937   41936   41937   41937       0   41939
   41940   41941   41940   41941   41941       0   41943   41944   41945   41944
   41945   41945       0   41947   41948   41949   41948   41949   41949       0
   41951   41952   41953   41952   41953   41953       0   41955   41956   41957
   41956   41957   41957       0   41959   41960   41961   41960   41961   41961
       0   41963   41964   41965   41964   41965   41965       0   41967   41968
   41969   41968   41969   41969       0   41971   41972   41973   41972   41973
   41973       0   41975   41976   41977   41976   41977   41977       0   41979
   41980   41981   41980   41981   41981       0   41983   41984   41985   41984
   41985   41985       0   41987   41988   41989   41988   41989   41989       0
   41991   41992   41993   41992   41993   41993       0   41995   41996   41997
   41996   41997   41997       0   41999   42000   42001   42000   42001   42001
       0   42003   42004   42005   42004   42005   42005       0   42007   42008
   42009   42008   42009   42009       0   42011   42012   42013   42012   42013
   42013       0   42015   42016   42017   42016   42017   42017       0   42019
   42020   42021   42020   42021   42021       0   42023   42024   42025   42024
   42025   42025       0   42027   42028   42029   42028   42029   42029       0
   42031   42032   42033   42032   42033   42033       0   42035   42036   42037
   42036   42037   42037       0   42039   42040   42041   42040   42041   42041
       0   42043   42044   42045   42044   42045   42045       0   42047   42048
   42049   42048   42049   42049       0   42051   42052   42053   42052   42053
   42053       0   42055   42056   42057   42056   42057   42057       0   42059
   42060   42061   42060   42061   42061       0   42063   42064   42065   42064
   42065   42065       0   42067   42068   42069   42068   42069   42069       0
   42071   42072   42073   42072   42073   42073       0   42075   42076   42077
   42076   42077   42077       0   42079   42080   42081   42080   42081   42081
       0   42083   42084   42085   42084   42085   42085       0   42087   42088
   42089   42088   42089   42089       0   42091   42092   42093   42092   42093
   42093       0   42095   42096   42097   42096   42097   42097       0   42099
   42100   42101   42100   42101   42101       0   42103   42104   42105   42104
   42105   42105       0   42107   42108   42109   42108   42109   42109       0
   42111   42112   42113   42112   42113   42113       0   42115   42116   42117
   42116   42117   42117       0   42119   42120   42121   42120   42121   42121
       0   42123   42124   42125   42124   42125   42125       0   42127   42128
   42129   42128   42129   42129       0   42131   42132   42133   42132   42133
   42133       0   42135   42136   42137   42136   42137   42137       0   42139
   42140   42141   42140   42141   42141       0   42143   42144   42145   42144
   42145   42145       0   42147   42148   42149   42148   42149   42149       0
   42151   42152   42153   42152   42153   42153       0   42155   42156   42157
   42156   42157   42157       0   42159   42160   42161   42160   42161   42161
       0   42163   42164   42165   42164   42165   42165       0   42167   42168
   42169   42168   42169   42169       0   42171   42172   42173   42172   42173
   42173       0   42175   42176   42177   42176   42177   42177       0   42179
   42180   42181   42180   42181   42181       0   42183   42184   42185   42184
   42185   42185       0   42187   42188   42189   42188   42189   42189       0
   42191   42192   42193   42192   42193   42193       0   42195   42196   42197
   42196   42197   42197       0   42199   42200   42201   42200   42201   42201
       0   42203   42204   42205   42204   42205   42205       0   42207   42208
   42209   42208   42209   42209       0   42211   42212   42213   42212   42213
   42213       0   42215   42216   42217   42216   42217   42217       0   42219
   42220   42221   42220   42221   42221       0   42223   42224   42225   42224
   42225   42225       0   42227   42228   42229   42228   42229   42229       0
   42231   42232   42233   42232   42233   42233       0   42235   42236   42237
   42236   42237   42237       0   42239   42240   42241   42240   42241   42241
       0   42243   42244   42245   42244   42245   42245       0   42247   42248
   42249   42248   42249   42249       0   42251   42252   42253   42252   42253
   42253       0   42255   42256   42257   42256   42257   42257       0   42259
   42260   42261   42260   42261   42261       0   42263   42264   42265   42264
   42265   42265       0   42267   42268   42269   42268   42269   42269       0
   42271   42272   42273   42272   42273   42273       0   42275   42276   42277
   42276   42277   42277       0   42279   42280   42281   42280   42281   42281
       0   42283   42284   42285   42284   42285   42285       0   42287   42288
   42289   42288   42289   42289       0   42291   42292   42293   42292   42293
   42293       0   42295   42296   42297   42296   42297   42297       0   42299
   42300   42301   42300   42301   42301       0   42303   42304   42305   42304
   42305   42305       0   42307   42308   42309   42308   42309   42309       0
   42311   42312   42313   42312   42313   42313       0   42315   42316   42317
   42316   42317   42317       0   42319   42320   42321   42320   42321   42321
       0   42323   42324   42325   42324   42325   42325       0   42327   42328
   42329   42328   42329   42329       0   42331   42332   42333   42332   42333
   42333       0   42335   42336   42337   42336   42337   42337       0   42339
   42340   42341   42340   42341   42341       0   42343   42344   42345   42344
   42345   42345       0   42347   42348   42349   42348   42349   42349       0
   42351   42352   42353   42352   42353   42353       0   42355   42356   42357
   42356   42357   42357       0   42359   42360   42361   42360   42361   42361
       0   42363   42364   42365   42364   42365   42365       0   42367   42368
   42369   42368   42369   42369       0   42371   42372   42373   42372   42373
   42373       0   42375   42376   42377   42376   42377   42377       0   42379
   42380   42381   42380   42381   42381       0   42383   42384   42385   42384
   42385   42385       0   42387   42388   42389   42388   42389   42389       0
   42391   42392   42393   42392   42393   42393       0   42395   42396   42397
   42396   42397   42397       0   42399   42400   42401   42400   42401   42401
       0   42403   42404   42405   42404   42405   42405       0   42407   42408
   42409   42408   42409   42409       0   42411   42412   42413   42412   42413
   42413       0   42415   42416   42417   42416   42417   42417       0   42419
   42420   42421   42420   42421   42421       0   42423   42424   42425   42424
   42425   42425       0   42427   42428   42429   42428   42429   42429       0
   42431   42432   42433   42432   42433   42433       0   42435   42436   42437
   42436   42437   42437       0   42439   42440   42441   42440   42441   42441
       0   42443   42444   42445   42444   42445   42445       0   42447   42448
   42449   42448   42449   42449       0   42451   42452   42453   42452   42453
   42453       0   42455   42456   42457   42456   42457   42457       0   42459
   42460   42461   42460   42461   42461       0   42463   42464   42465   42464
   42465   42465       0   42467   42468   42469   42468   42469   42469       0
   42471   42472   42473   42472   42473   42473       0   42475   42476   42477
   42476   42477   42477       0   42479   42480   42481   42480   42481   42481
       0   42483   42484   42485   42484   42485   42485       0   42487   42488
   42489   42488   42489   42489       0   42491   42492   42493   42492   42493
   42493       0   42495   42496   42497   42496   42497   42497       0   42499
   42500   42501   42500   42501   42501       0   42503   42504   42505   42504
   42505   42505       0   42507   42508   42509   42508   42509   42509       0
   42511   42512   42513   42512   42513   42513       0   42515   42516   42517
   42516   42517   42517       0   42519   42520   42521   42520   42521   42521
       0   42523   42524   42525   42524   42525   42525       0   42527   42528
   42529   42528   42529   42529       0   42531   42532   42533   42532   42533
   42533       0   42535   42536   42537   42536   42537   42537       0   42539
   42540   42541   42540   42541   42541       0   42543   42544   42545   42544
   42545   42545       0   42547   42548   42549   42548   42549   42549       0
   42551   42552   42553   42552   42553   42553       0   42555   42556   42557
   42556   42557   42557       0   42559   42560   42561   42560   42561   42561
       0   42563   42564   42565   42564   42565   42565       0   42567   42568
   42569   42568   42569   42569       0   42571   42572   42573   42572   42573
   42573       0   42575   42576   42577   42576   42577   42577       0   42579
   42580   42581   42580   42581   42581       0   42583   42584   42585   42584
   42585   42585       0   42587   42588   42589   42588   42589   42589       0
   42591   42592   42593   42592   42593   42593       0   42595   42596   42597
   42596   42597   42597       0   42599   42600   42601   42600   42601   42601
       0   42603   42604   42605   42604   42605   42605       0   42607   42608
   42609   42608   42609   42609       0   42611   42612   42613   42612   42613
   42613       0   42615   42616   42617   42616   42617   42617       0   42619
   42620   42621   42620   42621   42621       0   42623   42624   42625   42624
   42625   42625       0   42627   42628   42629   42628   42629   42629       0
   42631   42632   42633   42632   42633   42633       0   42635   42636   42637
   42636   42637   42637       0   42639   42640   42641   42640   42641   42641
       0   42643   42644   42645   42644   42645   42645       0   42647   42648
   42649   42648   42649   42649       0   42651   42652   42653   42652   42653
   42653       0   42655   42656   42657   42656   42657   42657       0   42659
   42660   42661   42660   42661   42661       0   42663   42664   42665   42664
   42665   42665       0   42667   42668   42669   42668   42669   42669       0
   42671   42672   42673   42672   42673   42673       0   42675   42676   42677
   42676   42677   42677       0   42679   42680   42681   42680   42681   42681
       0   42683   42684   42685   42684   42685   42685       0   42687   42688
   42689   42688   42689   42689       0   42691   42692   42693   42692   42693
   42693       0   42695   42696   42697   42696   42697   42697       0   42699
   42700   42701   42700   42701   42701       0   42703   42704   42705   42704
   42705   42705       0   42707   42708   42709   42708   42709   42709       0
   42711   42712   42713   42712   42713   42713       0   42715   42716   42717
   42716   42717   42717       0   42719   42720   42721   42720   42721   42721
       0   42723   42724   42725   42724   42725   42725       0   42727   42728
   42729   42728   42729   42729       0   42731   42732   42733   42732   42733
   42733       0   42735   42736   42737   42736   42737   42737       0   42739
   42740   42741   42740   42741   42741       0   42743   42744   42745   42744
   42745   42745       0   42747   42748   42749   42748   42749   42749       0
   42751   42752   42753   42752   42753   42753       0   42755   42756   42757
   42756   42757   42757       0   42759   42760   42761   42760   42761   42761
       0   42763   42764   42765   42764   42765   42765       0   42767   42768
   42769   42768   42769   42769       0   42771   42772   42773   42772   42773
   42773       0   42775   42776   42777   42776   42777   42777       0   42779
   42780   42781   42780   42781   42781       0   42783   42784   42785   42784
   42785   42785       0   42787   42788   42789   42788   42789   42789       0
   42791   42792   42793   42792   42793   42793       0   42795   42796   42797
   42796   42797   42797       0   42799   42800   42801   42800   42801   42801
       0   42803   42804   42805   42804   42805   42805       0   42807   42808
   42809   42808   42809   42809       0   42811   42812   42813   42812   42813
   42813       0   42815   42816   42817   42816   42817   42817       0   42819
   42820   42821   42820   42821   42821       0   42823   42824   42825   42824
   42825   42825       0   42827   42828   42829   42828   42829   42829       0
   42831   42832   42833   42832   42833   42833       0   42835   42836   42837
   42836   42837   42837       0   42839   42840   42841   42840   42841   42841
       0   42843   42844   42845   42844   42845   42845       0   42847   42848
   42849   42848   42849   42849       0   42851   42852   42853   42852   42853
   42853       0   42855   42856   42857   42856   42857   42857       0   42859
   42860   42861   42860   42861   42861       0   42863   42864   42865   42864
   42865   42865       0   42867   42868   42869   42868   42869   42869       0
   42871   42872   42873   42872   42873   42873       0   42875   42876   42877
   42876   42877   42877       0   42879   42880   42881   42880   42881   42881
       0   42883   42884   42885   42884   42885   42885       0   42887   42888
   42889   42888   42889   42889       0   42891   42892   42893   42892   42893
   42893       0   42895   42896   42897   42896   42897   42897       0   42899
   42900   42901   42900   42901   42901       0   42903   42904   42905   42904
   42905   42905       0   42907   42908   42909   42908   42909   42909       0
   42911   42912   42913   42912   42913   42913       0   42915   42916   42917
   42916   42917   42917       0   42919   42920   42921   42920   42921   42921
       0   42923   42924   42925   42924   42925   42925       0   42927   42928
   42929   42928   42929   42929       0   42931   42932   42933   42932   42933
   42933       0   42935   42936   42937   42936   42937   42937       0   42939
   42940   42941   42940   42941   42941       0   42943   42944   42945   42944
   42945   42945       0   42947   42948   42949   42948   42949   42949       0
   42951   42952   42953   42952   42953   42953       0   42955   42956   42957
   42956   42957   42957       0   42959   42960   42961   42960   42961   42961
       0   42963   42964   42965   42964   42965   42965       0   42967   42968
   42969   42968   42969   42969       0   42971   42972   42973   42972   42973
   42973       0   42975   42976   42977   42976   42977   42977       0   42979
   42980   42981   42980   42981   42981       0   42983   42984   42985   42984
   42985   42985       0   42987   42988   42989   42988   42989   42989       0
   42991   42992   42993   42992   42993   42993       0   42995   42996   42997
   42996   42997   42997       0   42999   43000   43001   43000   43001   43001
       0   43003   43004   43005   43004   43005   43005       0   43007   43008
   43009   43008   43009   43009       0   43011   43012   43013   43012   43013
   43013       0   43015   43016   43017   43016   43017   43017       0   43019
   43020   43021   43020   43021   43021       0   43023   43024   43025   43024
   43025   43025       0   43027   43028   43029   43028   43029   43029       0
   43031   43032   43033   43032   43033   43033       0   43035   43036   43037
   43036   43037   43037       0   43039   43040   43041   43040   43041   43041
       0   43043   43044   43045   43044   43045   43045       0   43047   43048
   43049   43048   43049   43049       0   43051   43052   43053   43052   43053
   43053       0   43055   43056   43057   43056   43057   43057       0   43059
   43060   43061   43060   43061   43061       0   43063   43064   43065   43064
   43065   43065       0   43067   43068   43069   43068   43069   43069       0
   43071   43072   43073   43072   43073   43073       0   43075   43076   43077
   43076   43077   43077       0   43079   43080   43081   43080   43081   43081
       0   43083   43084   43085   43084   43085   43085       0   43087   43088
   43089   43088   43089   43089       0   43091   43092   43093   43092   43093
   43093       0   43095   43096   43097   43096   43097   43097       0   43099
   43100   43101   43100   43101   43101       0   43103   43104   43105   43104
   43105   43105       0   43107   43108   43109   43108   43109   43109       0
   43111   43112   43113   43112   43113   43113       0   43115   43116   43117
   43116   43117   43117       0   43119   43120   43121   43120   43121   43121
       0   43123   43124   43125   43124   43125   43125       0   43127   43128
   43129   43128   43129   43129       0   43131   43132   43133   43132   43133
   43133       0   43135   43136   43137   43136   43137   43137       0   43139
   43140   43141   43140   43141   43141       0   43143   43144   43145   43144
   43145   43145       0   43147   43148   43149   43148   43149   43149       0
   43151   43152   43153   43152   43153   43153       0   43155   43156   43157
   43156   43157   43157       0   43159   43160   43161   43160   43161   43161
       0   43163   43164   43165   43164   43165   43165       0   43167   43168
   43169   43168   43169   43169       0   43171   43172   43173   43172   43173
   43173       0   43175   43176   43177   43176   43177   43177       0   43179
   43180   43181   43180   43181   43181       0   43183   43184   43185   43184
   43185   43185       0   43187   43188   43189   43188   43189   43189       0
   43191   43192   43193   43192   43193   43193       0   43195   43196   43197
   43196   43197   43197       0   43199   43200   43201   43200   43201   43201
       0   43203   43204   43205   43204   43205   43205       0   43207   43208
   43209   43208   43209   43209       0   43211   43212   43213   43212   43213
   43213       0   43215   43216   43217   43216   43217   43217       0   43219
   43220   43221   43220   43221   43221       0   43223   43224   43225   43224
   43225   43225       0   43227   43228   43229   43228   43229   43229       0
   43231   43232   43233   43232   43233   43233       0   43235   43236   43237
   43236   43237   43237       0   43239   43240   43241   43240   43241   43241
       0   43243   43244   43245   43244   43245   43245       0   43247   43248
   43249   43248   43249   43249       0   43251   43252   43253   43252   43253
   43253       0   43255   43256   43257   43256   43257   43257       0   43259
   43260   43261   43260   43261   43261       0   43263   43264   43265   43264
   43265   43265       0   43267   43268   43269   43268   43269   43269       0
   43271   43272   43273   43272   43273   43273       0   43275   43276   43277
   43276   43277   43277       0   43279   43280   43281   43280   43281   43281
       0   43283   43284   43285   43284   43285   43285       0   43287   43288
   43289   43288   43289   43289       0   43291   43292   43293   43292   43293
   43293       0   43295   43296   43297   43296   43297   43297       0   43299
   43300   43301   43300   43301   43301       0   43303   43304   43305   43304
   43305   43305       0   43307   43308   43309   43308   43309   43309       0
   43311   43312   43313   43312   43313   43313       0   43315   43316   43317
   43316   43317   43317       0   43319   43320   43321   43320   43321   43321
       0   43323   43324   43325   43324   43325   43325       0   43327   43328
   43329   43328   43329   43329       0   43331   43332   43333   43332   43333
   43333       0   43335   43336   43337   43336   43337   43337       0   43339
   43340   43341   43340   43341   43341       0   43343   43344   43345   43344
   43345   43345       0   43347   43348   43349   43348   43349   43349       0
   43351   43352   43353   43352   43353   43353       0   43355   43356   43357
   43356   43357   43357       0   43359   43360   43361   43360   43361   43361
       0   43363   43364   43365   43364   43365   43365       0   43367   43368
   43369   43368   43369   43369       0   43371   43372   43373   43372   43373
   43373       0   43375   43376   43377   43376   43377   43377       0   43379
   43380   43381   43380   43381   43381       0   43383   43384   43385   43384
   43385   43385       0   43387   43388   43389   43388   43389   43389       0
   43391   43392   43393   43392   43393   43393       0   43395   43396   43397
   43396   43397   43397       0   43399   43400   43401   43400   43401   43401
       0   43403   43404   43405   43404   43405   43405       0   43407   43408
   43409   43408   43409   43409       0   43411   43412   43413   43412   43413
   43413       0   43415   43416   43417   43416   43417   43417       0   43419
   43420   43421   43420   43421   43421       0   43423   43424   43425   43424
   43425   43425       0   43427   43428   43429   43428   43429   43429       0
   43431   43432   43433   43432   43433   43433       0   43435   43436   43437
   43436   43437   43437       0   43439   43440   43441   43440   43441   43441
       0   43443   43444   43445   43444   43445   43445       0   43447   43448
   43449   43448   43449   43449       0   43451   43452   43453   43452   43453
   43453       0   43455   43456   43457   43456   43457   43457       0   43459
   43460   43461   43460   43461   43461       0   43463   43464   43465   43464
   43465   43465       0   43467   43468   43469   43468   43469   43469       0
   43471   43472   43473   43472   43473   43473       0   43475   43476   43477
   43476   43477   43477       0   43479   43480   43481   43480   43481   43481
       0   43483   43484   43485   43484   43485   43485       0   43487   43488
   43489   43488   43489   43489       0   43491   43492   43493   43492   43493
   43493       0   43495   43496   43497   43496   43497   43497       0   43499
   43500   43501   43500   43501   43501       0   43503   43504   43505   43504
   43505   43505       0   43507   43508   43509   43508   43509   43509       0
   43511   43512   43513   43512   43513   43513       0   43515   43516   43517
   43516   43517   43517       0   43519   43520   43521   43520   43521   43521
       0   43523   43524   43525   43524   43525   43525       0   43527   43528
   43529   43528   43529   43529       0   43531   43532   43533   43532   43533
   43533       0   43535   43536   43537   43536   43537   43537       0   43539
   43540   43541   43540   43541   43541       0   43543   43544   43545   43544
   43545   43545       0   43547   43548   43549   43548   43549   43549       0
   43551   43552   43553   43552   43553   43553       0   43555   43556   43557
   43556   43557   43557       0   43559   43560   43561   43560   43561   43561
       0   43563   43564   43565   43564   43565   43565       0   43567   43568
   43569   43568   43569   43569       0   43571   43572   43573   43572   43573
   43573       0   43575   43576   43577   43576   43577   43577       0   43579
   43580   43581   43580   43581   43581       0   43583   43584   43585   43584
   43585   43585       0   43587   43588   43589   43588   43589   43589       0
   43591   43592   43593   43592   43593   43593       0   43595   43596   43597
   43596   43597   43597       0   43599   43600   43601   43600   43601   43601
       0   43603   43604   43605   43604   43605   43605       0   43607   43608
   43609   43608   43609   43609       0   43611   43612   43613   43612   43613
   43613       0   43615   43616   43617   43616   43617   43617       0   43619
   43620   43621   43620   43621   43621       0   43623   43624   43625   43624
   43625   43625       0   43627   43628   43629   43628   43629   43629       0
   43631   43632   43633   43632   43633   43633       0   43635   43636   43637
   43636   43637   43637       0   43639   43640   43641   43640   43641   43641
       0   43643   43644   43645   43644   43645   43645       0   43647   43648
   43649   43648   43649   43649       0   43651   43652   43653   43652   43653
   43653       0   43655   43656   43657   43656   43657   43657       0   43659
   43660   43661   43660   43661   43661       0   43663   43664   43665   43664
   43665   43665       0   43667   43668   43669   43668   43669   43669       0
   43671   43672   43673   43672   43673   43673       0   43675   43676   43677
   43676   43677   43677       0   43679   43680   43681   43680   43681   43681
       0   43683   43684   43685   43684   43685   43685       0   43687   43688
   43689   43688   43689   43689       0   43691   43692   43693   43692   43693
   43693       0   43695   43696   43697   43696   43697   43697       0   43699
   43700   43701   43700   43701   43701       0   43703   43704   43705   43704
   43705   43705       0   43707   43708   43709   43708   43709   43709       0
   43711   43712   43713   43712   43713   43713       0   43715   43716   43717
   43716   43717   43717       0   43719   43720   43721   43720   43721   43721
       0   43723   43724   43725   43724   43725   43725       0   43727   43728
   43729   43728   43729   43729       0   43731   43732   43733   43732   43733
   43733       0   43735   43736   43737   43736   43737   43737       0   43739
   43740   43741   43740   43741   43741       0   43743   43744   43745   43744
   43745   43745       0   43747   43748   43749   43748   43749   43749       0
   43751   43752   43753   43752   43753   43753       0   43755   43756   43757
   43756   43757   43757       0   43759   43760   43761   43760   43761   43761
       0   43763   43764   43765   43764   43765   43765       0   43767   43768
   43769   43768   43769   43769       0   43771   43772   43773   43772   43773
   43773       0   43775   43776   43777   43776   43777   43777       0   43779
   43780   43781   43780   43781   43781       0   43783   43784   43785   43784
   43785   43785       0   43787   43788   43789   43788   43789   43789       0
   43791   43792   43793   43792   43793   43793       0   43795   43796   43797
   43796   43797   43797       0   43799   43800   43801   43800   43801   43801
       0   43803   43804   43805   43804   43805   43805       0   43807   43808
   43809   43808   43809   43809       0   43811   43812   43813   43812   43813
   43813       0   43815   43816   43817   43816   43817   43817       0   43819
   43820   43821   43820   43821   43821       0   43823   43824   43825   43824
   43825   43825       0   43827   43828   43829   43828   43829   43829       0
   43831   43832   43833   43832   43833   43833       0   43835   43836   43837
   43836   43837   43837       0   43839   43840   43841   43840   43841   43841
       0   43843   43844   43845   43844   43845   43845       0   43847   43848
   43849   43848   43849   43849       0   43851   43852   43853   43852   43853
   43853       0   43855   43856   43857   43856   43857   43857       0   43859
   43860   43861   43860   43861   43861       0   43863   43864   43865   43864
   43865   43865       0   43867   43868   43869   43868   43869   43869       0
   43871   43872   43873   43872   43873   43873       0   43875   43876   43877
   43876   43877   43877       0   43879   43880   43881   43880   43881   43881
       0   43883   43884   43885   43884   43885   43885       0   43887   43888
   43889   43888   43889   43889       0   43891   43892   43893   43892   43893
   43893       0   43895   43896   43897   43896   43897   43897       0   43899
   43900   43901   43900   43901   43901       0   43903   43904   43905   43904
   43905   43905       0   43907   43908   43909   43908   43909   43909       0
   43911   43912   43913   43912   43913   43913       0   43915   43916   43917
   43916   43917   43917       0   43919   43920   43921   43920   43921   43921
       0   43923   43924   43925   43924   43925   43925       0   43927   43928
   43929   43928   43929   43929       0   43931   43932   43933   43932   43933
   43933       0   43935   43936   43937   43936   43937   43937       0   43939
   43940   43941   43940   43941   43941       0   43943   43944   43945   43944
   43945   43945       0   43947   43948   43949   43948   43949   43949       0
   43951   43952   43953   43952   43953   43953       0   43955   43956   43957
   43956   43957   43957       0   43959   43960   43961   43960   43961   43961
       0   43963   43964   43965   43964   43965   43965       0   43967   43968
   43969   43968   43969   43969       0   43971   43972   43973   43972   43973
   43973       0   43975   43976   43977   43976   43977   43977       0   43979
   43980   43981   43980   43981   43981       0   43983   43984   43985   43984
   43985   43985       0   43987   43988   43989   43988   43989   43989       0
   43991   43992   43993   43992   43993   43993       0   43995   43996   43997
   43996   43997   43997       0   43999   44000   44001   44000   44001   44001
       0   44003   44004   44005   44004   44005   44005       0   44007   44008
   44009   44008   44009   44009       0   44011   44012   44013   44012   44013
   44013       0   44015   44016   44017   44016   44017   44017       0   44019
   44020   44021   44020   44021   44021       0   44023   44024   44025   44024
   44025   44025       0   44027   44028   44029   44028   44029   44029       0
   44031   44032   44033   44032   44033   44033       0   44035   44036   44037
   44036   44037   44037       0   44039   44040   44041   44040   44041   44041
       0   44043   44044   44045   44044   44045   44045       0   44047   44048
   44049   44048   44049   44049       0   44051   44052   44053   44052   44053
   44053       0   44055   44056   44057   44056   44057   44057       0   44059
   44060   44061   44060   44061   44061       0   44063   44064   44065   44064
   44065   44065       0   44067   44068   44069   44068   44069   44069       0
   44071   44072   44073   44072   44073   44073       0   44075   44076   44077
   44076   44077   44077       0   44079   44080   44081   44080   44081   44081
       0   44083   44084   44085   44084   44085   44085       0   44087   44088
   44089   44088   44089   44089       0   44091   44092   44093   44092   44093
   44093       0   44095   44096   44097   44096   44097   44097       0   44099
   44100   44101   44100   44101   44101       0   44103   44104   44105   44104
   44105   44105       0   44107   44108   44109   44108   44109   44109       0
   44111   44112   44113   44112   44113   44113       0   44115   44116   44117
   44116   44117   44117       0   44119   44120   44121   44120   44121   44121
       0   44123   44124   44125   44124   44125   44125       0   44127   44128
   44129   44128   44129   44129       0   44131   44132   44133   44132   44133
   44133       0   44135   44136   44137   44136   44137   44137       0   44139
   44140   44141   44140   44141   44141       0   44143   44144   44145   44144
   44145   44145       0   44147   44148   44149   44148   44149   44149       0
   44151   44152   44153   44152   44153   44153       0   44155   44156   44157
   44156   44157   44157       0   44159   44160   44161   44160   44161   44161
       0   44163   44164   44165   44164   44165   44165       0   44167   44168
   44169   44168   44169   44169       0   44171   44172   44173   44172   44173
   44173       0   44175   44176   44177   44176   44177   44177       0   44179
   44180   44181   44180   44181   44181       0   44183   44184   44185   44184
   44185   44185       0   44187   44188   44189   44188   44189   44189       0
   44191   44192   44193   44192   44193   44193       0   44195   44196   44197
   44196   44197   44197       0   44199   44200   44201   44200   44201   44201
       0   44203   44204   44205   44204   44205   44205       0   44207   44208
   44209   44208   44209   44209       0   44211   44212   44213   44212   44213
   44213       0   44215   44216   44217   44216   44217   44217       0   44219
   44220   44221   44220   44221   44221       0   44223   44224   44225   44224
   44225   44225       0   44227   44228   44229   44228   44229   44229       0
   44231   44232   44233   44232   44233   44233       0   44235   44236   44237
   44236   44237   44237       0   44239   44240   44241   44240   44241   44241
       0   44243   44244   44245   44244   44245   44245       0   44247   44248
   44249   44248   44249   44249       0   44251   44252   44253   44252   44253
   44253       0   44255   44256   44257   44256   44257   44257       0   44259
   44260   44261   44260   44261   44261       0   44263   44264   44265   44264
   44265   44265       0   44267   44268   44269   44268   44269   44269       0
   44271   44272   44273   44272   44273   44273       0   44275   44276   44277
   44276   44277   44277       0   44279   44280   44281   44280   44281   44281
       0   44283   44284   44285   44284   44285   44285       0   44287   44288
   44289   44288   44289   44289       0   44291   44292   44293   44292   44293
   44293       0   44295   44296   44297   44296   44297   44297       0   44299
   44300   44301   44300   44301   44301       0   44303   44304   44305   44304
   44305   44305       0   44307   44308   44309   44308   44309   44309       0
   44311   44312   44313   44312   44313   44313       0   44315   44316   44317
   44316   44317   44317       0   44319   44320   44321   44320   44321   44321
       0   44323   44324   44325   44324   44325   44325       0   44327   44328
   44329   44328   44329   44329       0   44331   44332   44333   44332   44333
   44333       0   44335   44336   44337   44336   44337   44337       0   44339
   44340   44341   44340   44341   44341       0   44343   44344   44345   44344
   44345   44345       0   44347   44348   44349   44348   44349   44349       0
   44351   44352   44353   44352   44353   44353       0   44355   44356   44357
   44356   44357   44357       0   44359   44360   44361   44360   44361   44361
       0   44363   44364   44365   44364   44365   44365       0   44367   44368
   44369   44368   44369   44369       0   44371   44372   44373   44372   44373
   44373       0   44375   44376   44377   44376   44377   44377       0   44379
   44380   44381   44380   44381   44381       0   44383   44384   44385   44384
   44385   44385       0   44387   44388   44389   44388   44389   44389       0
   44391   44392   44393   44392   44393   44393       0   44395   44396   44397
   44396   44397   44397       0   44399   44400   44401   44400   44401   44401
       0   44403   44404   44405   44404   44405   44405       0   44407   44408
   44409   44408   44409   44409       0   44411   44412   44413   44412   44413
   44413       0   44415   44416   44417   44416   44417   44417       0   44419
   44420   44421   44420   44421   44421       0   44423   44424   44425   44424
   44425   44425       0   44427   44428   44429   44428   44429   44429       0
   44431   44432   44433   44432   44433   44433       0   44435   44436   44437
   44436   44437   44437       0   44439   44440   44441   44440   44441   44441
       0   44443   44444   44445   44444   44445   44445       0   44447   44448
   44449   44448   44449   44449       0   44451   44452   44453   44452   44453
   44453       0   44455   44456   44457   44456   44457   44457       0   44459
   44460   44461   44460   44461   44461       0   44463   44464   44465   44464
   44465   44465       0   44467   44468   44469   44468   44469   44469       0
   44471   44472   44473   44472   44473   44473       0   44475   44476   44477
   44476   44477   44477       0   44479   44480   44481   44480   44481   44481
       0   44483   44484   44485   44484   44485   44485       0   44487   44488
   44489   44488   44489   44489       0   44491   44492   44493   44492   44493
   44493       0   44495   44496   44497   44496   44497   44497       0   44499
   44500   44501   44500   44501   44501       0   44503   44504   44505   44504
   44505   44505       0   44507   44508   44509   44508   44509   44509       0
   44511   44512   44513   44512   44513   44513       0   44515   44516   44517
   44516   44517   44517       0   44519   44520   44521   44520   44521   44521
       0   44523   44524   44525   44524   44525   44525       0   44527   44528
   44529   44528   44529   44529       0   44531   44532   44533   44532   44533
   44533       0   44535   44536   44537   44536   44537   44537       0   44539
   44540   44541   44540   44541   44541       0   44543   44544   44545   44544
   44545   44545       0   44547   44548   44549   44548   44549   44549       0
   44551   44552   44553   44552   44553   44553       0   44555   44556   44557
   44556   44557   44557       0   44559   44560   44561   44560   44561   44561
       0   44563   44564   44565   44564   44565   44565       0   44567   44568
   44569   44568   44569   44569       0   44571   44572   44573   44572   44573
   44573       0   44575   44576   44577   44576   44577   44577       0   44579
   44580   44581   44580   44581   44581       0   44583   44584   44585   44584
   44585   44585       0   44587   44588   44589   44588   44589   44589       0
   44591   44592   44593   44592   44593   44593       0   44595   44596   44597
   44596   44597   44597       0   44599   44600   44601   44600   44601   44601
       0   44603   44604   44605   44604   44605   44605       0   44607   44608
   44609   44608   44609   44609       0   44611   44612   44613   44612   44613
   44613       0   44615   44616   44617   44616   44617   44617       0   44619
   44620   44621   44620   44621   44621       0   44623   44624   44625   44624
   44625   44625       0   44627   44628   44629   44628   44629   44629       0
   44631   44632   44633   44632   44633   44633       0   44635   44636   44637
   44636   44637   44637       0   44639   44640   44641   44640   44641   44641
       0   44643   44644   44645   44644   44645   44645       0   44647   44648
   44649   44648   44649   44649       0   44651   44652   44653   44652   44653
   44653       0   44655   44656   44657   44656   44657   44657       0   44659
   44660   44661   44660   44661   44661       0   44663   44664   44665   44664
   44665   44665       0   44667   44668   44669   44668   44669   44669       0
   44671   44672   44673   44672   44673   44673       0   44675   44676   44677
   44676   44677   44677       0   44679   44680   44681   44680   44681   44681
       0   44683   44684   44685   44684   44685   44685       0   44687   44688
   44689   44688   44689   44689       0   44691   44692   44693   44692   44693
   44693       0   44695   44696   44697   44696   44697   44697       0   44699
   44700   44701   44700   44701   44701       0   44703   44704   44705   44704
   44705   44705       0   44707   44708   44709   44708   44709   44709       0
   44711   44712   44713   44712   44713   44713       0   44715   44716   44717
   44716   44717   44717       0   44719   44720   44721   44720   44721   44721
       0   44723   44724   44725   44724   44725   44725       0   44727   44728
   44729   44728   44729   44729       0   44731   44732   44733   44732   44733
   44733       0   44735   44736   44737   44736   44737   44737       0   44739
   44740   44741   44740   44741   44741       0   44743   44744   44745   44744
   44745   44745       0   44747   44748   44749   44748   44749   44749       0
   44751   44752   44753   44752   44753   44753       0   44755   44756   44757
   44756   44757   44757       0   44759   44760   44761   44760   44761   44761
       0   44763   44764   44765   44764   44765   44765       0   44767   44768
   44769   44768   44769   44769       0   44771   44772   44773   44772   44773
   44773       0   44775   44776   44777   44776   44777   44777       0   44779
   44780   44781   44780   44781   44781       0   44783   44784   44785   44784
   44785   44785       0   44787   44788   44789   44788   44789   44789       0
   44791   44792   44793   44792   44793   44793       0   44795   44796   44797
   44796   44797   44797       0   44799   44800   44801   44800   44801   44801
       0   44803   44804   44805   44804   44805   44805       0   44807   44808
   44809   44808   44809   44809       0   44811   44812   44813   44812   44813
   44813       0   44815   44816   44817   44816   44817   44817       0   44819
   44820   44821   44820   44821   44821       0   44823   44824   44825   44824
   44825   44825       0   44827   44828   44829   44828   44829   44829       0
   44831   44832   44833   44832   44833   44833       0   44835   44836   44837
   44836   44837   44837       0   44839   44840   44841   44840   44841   44841
       0   44843   44844   44845   44844   44845   44845       0   44847   44848
   44849   44848   44849   44849       0   44851   44852   44853   44852   44853
   44853       0   44855   44856   44857   44856   44857   44857       0   44859
   44860   44861   44860   44861   44861       0   44863   44864   44865   44864
   44865   44865       0   44867   44868   44869   44868   44869   44869       0
   44871   44872   44873   44872   44873   44873       0   44875   44876   44877
   44876   44877   44877       0   44879   44880   44881   44880   44881   44881
       0   44883   44884   44885   44884   44885   44885       0   44887   44888
   44889   44888   44889   44889       0   44891   44892   44893   44892   44893
   44893       0   44895   44896   44897   44896   44897   44897       0   44899
   44900   44901   44900   44901   44901       0   44903   44904   44905   44904
   44905   44905       0   44907   44908   44909   44908   44909   44909       0
   44911   44912   44913   44912   44913   44913       0   44915   44916   44917
   44916   44917   44917       0   44919   44920   44921   44920   44921   44921
       0   44923   44924   44925   44924   44925   44925       0   44927   44928
   44929   44928   44929   44929       0   44931   44932   44933   44932   44933
   44933       0   44935   44936   44937   44936   44937   44937       0   44939
   44940   44941   44940   44941   44941       0   44943   44944   44945   44944
   44945   44945       0   44947   44948   44949   44948   44949   44949       0
   44951   44952   44953   44952   44953   44953       0   44955   44956   44957
   44956   44957   44957       0   44959   44960   44961   44960   44961   44961
       0   44963   44964   44965   44964   44965   44965       0   44967   44968
   44969   44968   44969   44969       0   44971   44972   44973   44972   44973
   44973       0   44975   44976   44977   44976   44977   44977       0   44979
   44980   44981   44980   44981   44981       0   44983   44984   44985   44984
   44985   44985       0   44987   44988   44989   44988   44989   44989       0
   44991   44992   44993   44992   44993   44993       0   44995   44996   44997
   44996   44997   44997       0   44999   45000   45001   45000   45001   45001
       0   45003   45004   45005   45004   45005   45005       0   45007   45008
   45009   45008   45009   45009       0   45011   45012   45013   45012   45013
   45013       0   45015   45016   45017   45016   45017   45017       0   45019
   45020   45021   45020   45021   45021       0   45023   45024   45025   45024
   45025   45025       0   45027   45028   45029   45028   45029   45029       0
   45031   45032   45033   45032   45033   45033       0   45035   45036   45037
   45036   45037   45037       0   45039   45040   45041   45040   45041   45041
       0   45043   45044   45045   45044   45045   45045       0   45047   45048
   45049   45048   45049   45049       0   45051   45052   45053   45052   45053
   45053       0   45055   45056   45057   45056   45057   45057       0   45059
   45060   45061   45060   45061   45061       0   45063   45064   45065   45064
   45065   45065       0   45067   45068   45069   45068   45069   45069       0
   45071   45072   45073   45072   45073   45073       0   45075   45076   45077
   45076   45077   45077       0   45079   45080   45081   45080   45081   45081
       0   45083   45084   45085   45084   45085   45085       0   45087   45088
   45089   45088   45089   45089       0   45091   45092   45093   45092   45093
   45093       0   45095   45096   45097   45096   45097   45097       0   45099
   45100   45101   45100   45101   45101       0   45103   45104   45105   45104
   45105   45105       0   45107   45108   45109   45108   45109   45109       0
   45111   45112   45113   45112   45113   45113       0   45115   45116   45117
   45116   45117   45117       0   45119   45120   45121   45120   45121   45121
       0   45123   45124   45125   45124   45125   45125       0   45127   45128
   45129   45128   45129   45129       0   45131   45132   45133   45132   45133
   45133       0   45135   45136   45137   45136   45137   45137       0   45139
   45140   45141   45140   45141   45141       0   45143   45144   45145   45144
   45145   45145       0   45147   45148   45149   45148   45149   45149       0
   45151   45152   45153   45152   45153   45153       0   45155   45156   45157
   45156   45157   45157       0   45159   45160   45161   45160   45161   45161
       0   45163   45164   45165   45164   45165   45165       0   45167   45168
   45169   45168   45169   45169       0   45171   45172   45173   45172   45173
   45173       0   45175   45176   45177   45176   45177   45177       0   45179
   45180   45181   45180   45181   45181       0   45183   45184   45185   45184
   45185   45185       0   45187   45188   45189   45188   45189   45189       0
   45191   45192   45193   45192   45193   45193       0   45195   45196   45197
   45196   45197   45197       0   45199   45200   45201   45200   45201   45201
       0   45203   45204   45205   45204   45205   45205       0   45207   45208
   45209   45208   45209   45209       0   45211   45212   45213   45212   45213
   45213       0   45215   45216   45217   45216   45217   45217       0   45219
   45220   45221   45220   45221   45221       0   45223   45224   45225   45224
   45225   45225       0   45227   45228   45229   45228   45229   45229       0
   45231   45232   45233   45232   45233   45233       0   45235   45236   45237
   45236   45237   45237       0   45239   45240   45241   45240   45241   45241
       0   45243   45244   45245   45244   45245   45245       0   45247   45248
   45249   45248   45249   45249       0   45251   45252   45253   45252   45253
   45253       0   45255   45256   45257   45256   45257   45257       0   45259
   45260   45261   45260   45261   45261       0   45263   45264   45265   45264
   45265   45265       0   45267   45268   45269   45268   45269   45269       0
   45271   45272   45273   45272   45273   45273       0   45275   45276   45277
   45276   45277   45277       0   45279   45280   45281   45280   45281   45281
       0   45283   45284   45285   45284   45285   45285       0   45287   45288
   45289   45288   45289   45289       0   45291   45292   45293   45292   45293
   45293       0   45295   45296   45297   45296   45297   45297       0   45299
   45300   45301   45300   45301   45301       0   45303   45304   45305   45304
   45305   45305       0   45307   45308   45309   45308   45309   45309       0
   45311   45312   45313   45312   45313   45313       0   45315   45316   45317
   45316   45317   45317       0   45319   45320   45321   45320   45321   45321
       0   45323   45324   45325   45324   45325   45325       0   45327   45328
   45329   45328   45329   45329       0   45331   45332   45333   45332   45333
   45333       0   45335   45336   45337   45336   45337   45337       0   45339
   45340   45341   45340   45341   45341       0   45343   45344   45345   45344
   45345   45345       0   45347   45348   45349   45348   45349   45349       0
   45351   45352   45353   45352   45353   45353       0   45355   45356   45357
   45356   45357   45357       0   45359   45360   45361   45360   45361   45361
       0   45363   45364   45365   45364   45365   45365       0   45367   45368
   45369   45368   45369   45369       0   45371   45372   45373   45372   45373
   45373       0   45375   45376   45377   45376   45377   45377       0   45379
   45380   45381   45380   45381   45381       0   45383   45384   45385   45384
   45385   45385       0   45387   45388   45389   45388   45389   45389       0
   45391   45392   45393   45392   45393   45393       0   45395   45396   45397
   45396   45397   45397       0   45399   45400   45401   45400   45401   45401
       0   45403   45404   45405   45404   45405   45405       0   45407   45408
   45409   45408   45409   45409       0   45411   45412   45413   45412   45413
   45413       0   45415   45416   45417   45416   45417   45417       0   45419
   45420   45421   45420   45421   45421       0   45423   45424   45425   45424
   45425   45425       0   45427   45428   45429   45428   45429   45429       0
   45431   45432   45433   45432   45433   45433       0   45435   45436   45437
   45436   45437   45437       0   45439   45440   45441   45440   45441   45441
       0   45443   45444   45445   45444   45445   45445       0   45447   45448
   45449   45448   45449   45449       0   45451   45452   45453   45452   45453
   45453       0   45455   45456   45457   45456   45457   45457       0   45459
   45460   45461   45460   45461   45461       0   45463   45464   45465   45464
   45465   45465       0   45467   45468   45469   45468   45469   45469       0
   45471   45472   45473   45472   45473   45473       0   45475   45476   45477
   45476   45477   45477       0   45479   45480   45481   45480   45481   45481
       0   45483   45484   45485   45484   45485   45485       0   45487   45488
   45489   45488   45489   45489       0   45491   45492   45493   45492   45493
   45493       0   45495   45496   45497   45496   45497   45497       0   45499
   45500   45501   45500   45501   45501       0   45503   45504   45505   45504
   45505   45505       0   45507   45508   45509   45508   45509   45509       0
   45511   45512   45513   45512   45513   45513       0   45515   45516   45517
   45516   45517   45517       0   45519   45520   45521   45520   45521   45521
       0   45523   45524   45525   45524   45525   45525       0   45527   45528
   45529   45528   45529   45529       0   45531   45532   45533   45532   45533
   45533       0   45535   45536   45537   45536   45537   45537       0   45539
   45540   45541   45540   45541   45541       0   45543   45544   45545   45544
   45545   45545       0   45547   45548   45549   45548   45549   45549       0
   45551   45552   45553   45552   45553   45553       0   45555   45556   45557
   45556   45557   45557       0   45559   45560   45561   45560   45561   45561
       0   45563   45564   45565   45564   45565   45565       0   45567   45568
   45569   45568   45569   45569       0   45571   45572   45573   45572   45573
   45573       0   45575   45576   45577   45576   45577   45577       0   45579
   45580   45581   45580   45581   45581       0   45583   45584   45585   45584
   45585   45585       0   45587   45588   45589   45588   45589   45589       0
   45591   45592   45593   45592   45593   45593       0   45595   45596   45597
   45596   45597   45597       0   45599   45600   45601   45600   45601   45601
       0   45603   45604   45605   45604   45605   45605       0   45607   45608
   45609   45608   45609   45609       0   45611   45612   45613   45612   45613
   45613       0   45615   45616   45617   45616   45617   45617       0   45619
   45620   45621   45620   45621   45621       0   45623   45624   45625   45624
   45625   45625       0   45627   45628   45629   45628   45629   45629       0
   45631   45632   45633   45632   45633   45633       0   45635   45636   45637
   45636   45637   45637       0   45639   45640   45641   45640   45641   45641
       0   45643   45644   45645   45644   45645   45645       0   45647   45648
   45649   45648   45649   45649       0   45651   45652   45653   45652   45653
   45653       0   45655   45656   45657   45656   45657   45657       0   45659
   45660   45661   45660   45661   45661       0   45663   45664   45665   45664
   45665   45665       0   45667   45668   45669   45668   45669   45669       0
   45671   45672   45673   45672   45673   45673       0   45675   45676   45677
   45676   45677   45677       0   45679   45680   45681   45680   45681   45681
       0   45683   45684   45685   45684   45685   45685       0   45687   45688
   45689   45688   45689   45689       0   45691   45692   45693   45692   45693
   45693       0   45695   45696   45697   45696   45697   45697       0   45699
   45700   45701   45700   45701   45701       0   45703   45704   45705   45704
   45705   45705       0   45707   45708   45709   45708   45709   45709       0
   45711   45712   45713   45712   45713   45713       0   45715   45716   45717
   45716   45717   45717       0   45719   45720   45721   45720   45721   45721
       0   45723   45724   45725   45724   45725   45725       0   45727   45728
   45729   45728   45729   45729       0   45731   45732   45733   45732   45733
   45733       0   45735   45736   45737   45736   45737   45737       0   45739
   45740   45741   45740   45741   45741       0   45743   45744   45745   45744
   45745   45745       0   45747   45748   45749   45748   45749   45749       0
   45751   45752   45753   45752   45753   45753       0   45755   45756   45757
   45756   45757   45757       0   45759   45760   45761   45760   45761   45761
       0   45763   45764   45765   45764   45765   45765       0   45767   45768
   45769   45768   45769   45769       0   45771   45772   45773   45772   45773
   45773       0   45775   45776   45777   45776   45777   45777       0   45779
   45780   45781   45780   45781   45781       0   45783   45784   45785   45784
   45785   45785       0   45787   45788   45789   45788   45789   45789       0
   45791   45792   45793   45792   45793   45793       0   45795   45796   45797
   45796   45797   45797       0   45799   45800   45801   45800   45801   45801
       0   45803   45804   45805   45804   45805   45805       0   45807   45808
   45809   45808   45809   45809       0   45811   45812   45813   45812   45813
   45813       0   45815   45816   45817   45816   45817   45817       0   45819
   45820   45821   45820   45821   45821       0   45823   45824   45825   45824
   45825   45825       0   45827   45828   45829   45828   45829   45829       0
   45831   45832   45833   45832   45833   45833       0   45835   45836   45837
   45836   45837   45837       0   45839   45840   45841   45840   45841   45841
       0   45843   45844   45845   45844   45845   45845       0   45847   45848
   45849   45848   45849   45849       0   45851   45852   45853   45852   45853
   45853       0   45855   45856   45857   45856   45857   45857       0   45859
   45860   45861   45860   45861   45861       0   45863   45864   45865   45864
   45865   45865       0   45867   45868   45869   45868   45869   45869       0
   45871   45872   45873   45872   45873   45873       0   45875   45876   45877
   45876   45877   45877       0   45879   45880   45881   45880   45881   45881
       0   45883   45884   45885   45884   45885   45885       0   45887   45888
   45889   45888   45889   45889       0   45891   45892   45893   45892   45893
   45893       0   45895   45896   45897   45896   45897   45897       0   45899
   45900   45901   45900   45901   45901       0   45903   45904   45905   45904
   45905   45905       0   45907   45908   45909   45908   45909   45909       0
   45911   45912   45913   45912   45913   45913       0   45915   45916   45917
   45916   45917   45917       0   45919   45920   45921   45920   45921   45921
       0   45923   45924   45925   45924   45925   45925       0   45927   45928
   45929   45928   45929   45929       0   45931   45932   45933   45932   45933
   45933       0   45935   45936   45937   45936   45937   45937       0   45939
   45940   45941   45940   45941   45941       0   45943   45944   45945   45944
   45945   45945       0   45947   45948   45949   45948   45949   45949       0
   45951   45952   45953   45952   45953   45953       0   45955   45956   45957
   45956   45957   45957       0   45959   45960   45961   45960   45961   45961
       0   45963   45964   45965   45964   45965   45965       0   45967   45968
   45969   45968   45969   45969       0   45971   45972   45973   45972   45973
   45973       0   45975   45976   45977   45976   45977   45977       0   45979
   45980   45981   45980   45981   45981       0   45983   45984   45985   45984
   45985   45985       0   45987   45988   45989   45988   45989   45989       0
   45991   45992   45993   45992   45993   45993       0   45995   45996   45997
   45996   45997   45997       0   45999   46000   46001   46000   46001   46001
       0   46003   46004   46005   46004   46005   46005       0   46007   46008
   46009   46008   46009   46009       0   46011   46012   46013   46012   46013
   46013       0   46015   46016   46017   46016   46017   46017       0   46019
   46020   46021   46020   46021   46021       0   46023   46024   46025   46024
   46025   46025       0   46027   46028   46029   46028   46029   46029       0
   46031   46032   46033   46032   46033   46033       0   46035   46036   46037
   46036   46037   46037       0   46039   46040   46041   46040   46041   46041
       0   46043   46044   46045   46044   46045   46045       0   46047   46048
   46049   46048   46049   46049       0   46051   46052   46053   46052   46053
   46053       0   46055   46056   46057   46056   46057   46057       0   46059
   46060   46061   46060   46061   46061       0   46063   46064   46065   46064
   46065   46065       0   46067   46068   46069   46068   46069   46069       0
   46071   46072   46073   46072   46073   46073       0   46075   46076   46077
   46076   46077   46077       0   46079   46080   46081   46080   46081   46081
       0   46083   46084   46085   46084   46085   46085       0   46087   46088
   46089   46088   46089   46089       0   46091   46092   46093   46092   46093
   46093       0   46095   46096   46097   46096   46097   46097       0   46099
   46100   46101   46100   46101   46101       0   46103   46104   46105   46104
   46105   46105       0   46107   46108   46109   46108   46109   46109       0
   46111   46112   46113   46112   46113   46113       0   46115   46116   46117
   46116   46117   46117       0   46119   46120   46121   46120   46121   46121
       0   46123   46124   46125   46124   46125   46125       0   46127   46128
   46129   46128   46129   46129       0   46131   46132   46133   46132   46133
   46133       0   46135   46136   46137   46136   46137   46137       0   46139
   46140   46141   46140   46141   46141       0   46143   46144   46145   46144
   46145   46145       0   46147   46148   46149   46148   46149   46149       0
   46151   46152   46153   46152   46153   46153       0   46155   46156   46157
   46156   46157   46157       0   46159   46160   46161   46160   46161   46161
       0   46163   46164   46165   46164   46165   46165       0   46167   46168
   46169   46168   46169   46169       0   46171   46172   46173   46172   46173
   46173       0   46175   46176   46177   46176   46177   46177       0   46179
   46180   46181   46180   46181   46181       0   46183   46184   46185   46184
   46185   46185       0   46187   46188   46189   46188   46189   46189       0
   46191   46192   46193   46192   46193   46193       0   46195   46196   46197
   46196   46197   46197       0   46199   46200   46201   46200   46201   46201
       0   46203   46204   46205   46204   46205   46205       0   46207   46208
   46209   46208   46209   46209       0   46211   46212   46213   46212   46213
   46213       0   46215   46216   46217   46216   46217   46217       0   46219
   46220   46221   46220   46221   46221       0   46223   46224   46225   46224
   46225   46225       0   46227   46228   46229   46228   46229   46229       0
   46231   46232   46233   46232   46233   46233       0   46235   46236   46237
   46236   46237   46237       0   46239   46240   46241   46240   46241   46241
       0   46243   46244   46245   46244   46245   46245       0   46247   46248
   46249   46248   46249   46249       0   46251   46252   46253   46252   46253
   46253       0   46255   46256   46257   46256   46257   46257       0   46259
   46260   46261   46260   46261   46261       0   46263   46264   46265   46264
   46265   46265       0   46267   46268   46269   46268   46269   46269       0
   46271   46272   46273   46272   46273   46273       0   46275   46276   46277
   46276   46277   46277       0   46279   46280   46281   46280   46281   46281
       0   46283   46284   46285   46284   46285   46285       0   46287   46288
   46289   46288   46289   46289       0   46291   46292   46293   46292   46293
   46293       0   46295   46296   46297   46296   46297   46297       0   46299
   46300   46301   46300   46301   46301       0   46303   46304   46305   46304
   46305   46305       0   46307   46308   46309   46308   46309   46309       0
   46311   46312   46313   46312   46313   46313       0   46315   46316   46317
   46316   46317   46317       0   46319   46320   46321   46320   46321   46321
       0   46323   46324   46325   46324   46325   46325       0   46327   46328
   46329   46328   46329   46329       0   46331   46332   46333   46332   46333
   46333       0   46335   46336   46337   46336   46337   46337       0   46339
   46340   46341   46340   46341   46341       0   46343   46344   46345   46344
   46345   46345       0   46347   46348   46349   46348   46349   46349       0
   46351   46352   46353   46352   46353   46353       0   46355   46356   46357
   46356   46357   46357       0   46359   46360   46361   46360   46361   46361
       0   46363   46364   46365   46364   46365   46365       0   46367   46368
   46369   46368   46369   46369       0   46371   46372   46373   46372   46373
   46373       0   46375   46376   46377   46376   46377   46377       0   46379
   46380   46381   46380   46381   46381       0   46383   46384   46385   46384
   46385   46385       0   46387   46388   46389   46388   46389   46389       0
   46391   46392   46393   46392   46393   46393       0   46395   46396   46397
   46396   46397   46397       0   46399   46400   46401   46400   46401   46401
       0   46403   46404   46405   46404   46405   46405       0   46407   46408
   46409   46408   46409   46409       0   46411   46412   46413   46412   46413
   46413       0   46415   46416   46417   46416   46417   46417       0   46419
   46420   46421   46420   46421   46421       0   46423   46424   46425   46424
   46425   46425       0   46427   46428   46429   46428   46429   46429       0
   46431   46432   46433   46432   46433   46433       0   46435   46436   46437
   46436   46437   46437       0   46439   46440   46441   46440   46441   46441
       0   46443   46444   46445   46444   46445   46445       0   46447   46448
   46449   46448   46449   46449       0   46451   46452   46453   46452   46453
   46453       0   46455   46456   46457   46456   46457   46457       0   46459
   46460   46461   46460   46461   46461       0   46463   46464   46465   46464
   46465   46465       0   46467   46468   46469   46468   46469   46469       0
   46471   46472   46473   46472   46473   46473       0   46475   46476   46477
   46476   46477   46477       0   46479   46480   46481   46480   46481   46481
       0   46483   46484   46485   46484   46485   46485       0   46487   46488
   46489   46488   46489   46489       0   46491   46492   46493   46492   46493
   46493       0   46495   46496   46497   46496   46497   46497       0   46499
   46500   46501   46500   46501   46501       0   46503   46504   46505   46504
   46505   46505       0   46507   46508   46509   46508   46509   46509       0
   46511   46512   46513   46512   46513   46513       0   46515   46516   46517
   46516   46517   46517       0   46519   46520   46521   46520   46521   46521
       0   46523   46524   46525   46524   46525   46525       0   46527   46528
   46529   46528   46529   46529       0   46531   46532   46533   46532   46533
   46533       0   46535   46536   46537   46536   46537   46537       0   46539
   46540   46541   46540   46541   46541       0   46543   46544   46545   46544
   46545   46545       0   46547   46548   46549   46548   46549   46549       0
   46551   46552   46553   46552   46553   46553       0   46555   46556   46557
   46556   46557   46557       0   46559   46560   46561   46560   46561   46561
       0   46563   46564   46565   46564   46565   46565       0   46567   46568
   46569   46568   46569   46569       0   46571   46572   46573   46572   46573
   46573       0   46575   46576   46577   46576   46577   46577       0   46579
   46580   46581   46580   46581   46581       0   46583   46584   46585   46584
   46585   46585       0   46587   46588   46589   46588   46589   46589       0
   46591   46592   46593   46592   46593   46593       0   46595   46596   46597
   46596   46597   46597       0   46599   46600   46601   46600   46601   46601
       0   46603   46604   46605   46604   46605   46605       0   46607   46608
   46609   46608   46609   46609       0   46611   46612   46613   46612   46613
   46613       0   46615   46616   46617   46616   46617   46617       0   46619
   46620   46621   46620   46621   46621       0   46623   46624   46625   46624
   46625   46625       0   46627   46628   46629   46628   46629   46629       0
   46631   46632   46633   46632   46633   46633       0   46635   46636   46637
   46636   46637   46637       0   46639   46640   46641   46640   46641   46641
       0   46643   46644   46645   46644   46645   46645       0   46647   46648
   46649   46648   46649   46649       0   46651   46652   46653   46652   46653
   46653       0   46655   46656   46657   46656   46657   46657       0   46659
   46660   46661   46660   46661   46661       0   46663   46664   46665   46664
   46665   46665       0   46667   46668   46669   46668   46669   46669       0
   46671   46672   46673   46672   46673   46673       0   46675   46676   46677
   46676   46677   46677       0   46679   46680   46681   46680   46681   46681
       0   46683   46684   46685   46684   46685   46685       0   46687   46688
   46689   46688   46689   46689       0   46691   46692   46693   46692   46693
   46693       0   46695   46696   46697   46696   46697   46697       0   46699
   46700   46701   46700   46701   46701       0   46703   46704   46705   46704
   46705   46705       0   46707   46708   46709   46708   46709   46709       0
   46711   46712   46713   46712   46713   46713       0   46715   46716   46717
   46716   46717   46717       0   46719   46720   46721   46720   46721   46721
       0   46723   46724   46725   46724   46725   46725       0   46727   46728
   46729   46728   46729   46729       0   46731   46732   46733   46732   46733
   46733       0   46735   46736   46737   46736   46737   46737       0   46739
   46740   46741   46740   46741   46741       0   46743   46744   46745   46744
   46745   46745       0   46747   46748   46749   46748   46749   46749       0
   46751   46752   46753   46752   46753   46753       0   46755   46756   46757
   46756   46757   46757       0   46759   46760   46761   46760   46761   46761
       0   46763   46764   46765   46764   46765   46765       0   46767   46768
   46769   46768   46769   46769       0   46771   46772   46773   46772   46773
   46773       0   46775   46776   46777   46776   46777   46777       0   46779
   46780   46781   46780   46781   46781       0   46783   46784   46785   46784
   46785   46785       0   46787   46788   46789   46788   46789   46789       0
   46791   46792   46793   46792   46793   46793       0   46795   46796   46797
   46796   46797   46797       0   46799   46800   46801   46800   46801   46801
       0   46803   46804   46805   46804   46805   46805       0   46807   46808
   46809   46808   46809   46809       0   46811   46812   46813   46812   46813
   46813       0   46815   46816   46817   46816   46817   46817       0   46819
   46820   46821   46820   46821   46821       0   46823   46824   46825   46824
   46825   46825       0   46827   46828   46829   46828   46829   46829       0
   46831   46832   46833   46832   46833   46833       0   46835   46836   46837
   46836   46837   46837       0   46839   46840   46841   46840   46841   46841
       0   46843   46844   46845   46844   46845   46845       0   46847   46848
   46849   46848   46849   46849       0   46851   46852   46853   46852   46853
   46853       0   46855   46856   46857   46856   46857   46857       0   46859
   46860   46861   46860   46861   46861       0   46863   46864   46865   46864
   46865   46865       0   46867   46868   46869   46868   46869   46869       0
   46871   46872   46873   46872   46873   46873       0   46875   46876   46877
   46876   46877   46877       0   46879   46880   46881   46880   46881   46881
       0   46883   46884   46885   46884   46885   46885       0   46887   46888
   46889   46888   46889   46889       0   46891   46892   46893   46892   46893
   46893       0   46895   46896   46897   46896   46897   46897       0   46899
   46900   46901   46900   46901   46901       0   46903   46904   46905   46904
   46905   46905       0   46907   46908   46909   46908   46909   46909       0
   46911   46912   46913   46912   46913   46913       0   46915   46916   46917
   46916   46917   46917       0   46919   46920   46921   46920   46921   46921
       0   46923   46924   46925   46924   46925   46925       0   46927   46928
   46929   46928   46929   46929       0   46931   46932   46933   46932   46933
   46933       0   46935   46936   46937   46936   46937   46937       0   46939
   46940   46941   46940   46941   46941       0   46943   46944   46945   46944
   46945   46945       0   46947   46948   46949   46948   46949   46949       0
   46951   46952   46953   46952   46953   46953       0   46955   46956   46957
   46956   46957   46957       0   46959   46960   46961   46960   46961   46961
       0   46963   46964   46965   46964   46965   46965       0   46967   46968
   46969   46968   46969   46969       0   46971   46972   46973   46972   46973
   46973       0   46975   46976   46977   46976   46977   46977       0   46979
   46980   46981   46980   46981   46981       0   46983   46984   46985   46984
   46985   46985       0   46987   46988   46989   46988   46989   46989       0
   46991   46992   46993   46992   46993   46993       0   46995   46996   46997
   46996   46997   46997       0   46999   47000   47001   47000   47001   47001
       0   47003   47004   47005   47004   47005   47005       0   47007   47008
   47009   47008   47009   47009       0   47011   47012   47013   47012   47013
   47013       0   47015   47016   47017   47016   47017   47017       0   47019
   47020   47021   47020   47021   47021       0   47023   47024   47025   47024
   47025   47025       0   47027   47028   47029   47028   47029   47029       0
   47031   47032   47033   47032   47033   47033       0   47035   47036   47037
   47036   47037   47037       0   47039   47040   47041   47040   47041   47041
       0   47043   47044   47045   47044   47045   47045       0   47047   47048
   47049   47048   47049   47049       0   47051   47052   47053   47052   47053
   47053       0   47055   47056   47057   47056   47057   47057       0   47059
   47060   47061   47060   47061   47061       0   47063   47064   47065   47064
   47065   47065       0   47067   47068   47069   47068   47069   47069       0
   47071   47072   47073   47072   47073   47073       0   47075   47076   47077
   47076   47077   47077       0   47079   47080   47081   47080   47081   47081
       0   47083   47084   47085   47084   47085   47085       0   47087   47088
   47089   47088   47089   47089       0   47091   47092   47093   47092   47093
   47093       0   47095   47096   47097   47096   47097   47097       0   47099
   47100   47101   47100   47101   47101       0   47103   47104   47105   47104
   47105   47105       0   47107   47108   47109   47108   47109   47109       0
   47111   47112   47113   47112   47113   47113       0   47115   47116   47117
   47116   47117   47117       0   47119   47120   47121   47120   47121   47121
       0   47123   47124   47125   47124   47125   47125       0   47127   47128
   47129   47128   47129   47129       0   47131   47132   47133   47132   47133
   47133       0   47135   47136   47137   47136   47137   47137       0   47139
   47140   47141   47140   47141   47141       0   47143   47144   47145   47144
   47145   47145       0   47147   47148   47149   47148   47149   47149       0
   47151   47152   47153   47152   47153   47153       0   47155   47156   47157
   47156   47157   47157       0   47159   47160   47161   47160   47161   47161
       0   47163   47164   47165   47164   47165   47165       0   47167   47168
   47169   47168   47169   47169       0   47171   47172   47173   47172   47173
   47173       0   47175   47176   47177   47176   47177   47177       0   47179
   47180   47181   47180   47181   47181       0   47183   47184   47185   47184
   47185   47185       0   47187   47188   47189   47188   47189   47189       0
   47191   47192   47193   47192   47193   47193       0   47195   47196   47197
   47196   47197   47197       0   47199   47200   47201   47200   47201   47201
       0   47203   47204   47205   47204   47205   47205       0   47207   47208
   47209   47208   47209   47209       0   47211   47212   47213   47212   47213
   47213       0   47215   47216   47217   47216   47217   47217       0   47219
   47220   47221   47220   47221   47221       0   47223   47224   47225   47224
   47225   47225       0   47227   47228   47229   47228   47229   47229       0
   47231   47232   47233   47232   47233   47233       0   47235   47236   47237
   47236   47237   47237       0   47239   47240   47241   47240   47241   47241
       0   47243   47244   47245   47244   47245   47245       0   47247   47248
   47249   47248   47249   47249       0   47251   47252   47253   47252   47253
   47253       0   47255   47256   47257   47256   47257   47257       0   47259
   47260   47261   47260   47261   47261       0   47263   47264   47265   47264
   47265   47265       0   47267   47268   47269   47268   47269   47269       0
   47271   47272   47273   47272   47273   47273       0   47275   47276   47277
   47276   47277   47277       0   47279   47280   47281   47280   47281   47281
       0   47283   47284   47285   47284   47285   47285       0   47287   47288
   47289   47288   47289   47289       0   47291   47292   47293   47292   47293
   47293       0   47295   47296   47297   47296   47297   47297       0   47299
   47300   47301   47300   47301   47301       0   47303   47304   47305   47304
   47305   47305       0   47307   47308   47309   47308   47309   47309       0
   47311   47312   47313   47312   47313   47313       0   47315   47316   47317
   47316   47317   47317       0   47319   47320   47321   47320   47321   47321
       0   47323   47324   47325   47324   47325   47325       0   47327   47328
   47329   47328   47329   47329       0   47331   47332   47333   47332   47333
   47333       0   47335   47336   47337   47336   47337   47337       0   47339
   47340   47341   47340   47341   47341       0   47343   47344   47345   47344
   47345   47345       0   47347   47348   47349   47348   47349   47349       0
   47351   47352   47353   47352   47353   47353       0   47355   47356   47357
   47356   47357   47357       0   47359   47360   47361   47360   47361   47361
       0   47363   47364   47365   47364   47365   47365       0   47367   47368
   47369   47368   47369   47369       0   47371   47372   47373   47372   47373
   47373       0   47375   47376   47377   47376   47377   47377       0   47379
   47380   47381   47380   47381   47381       0   47383   47384   47385   47384
   47385   47385       0   47387   47388   47389   47388   47389   47389       0
   47391   47392   47393   47392   47393   47393       0   47395   47396   47397
   47396   47397   47397       0   47399   47400   47401   47400   47401   47401
       0   47403   47404   47405   47404   47405   47405       0   47407   47408
   47409   47408   47409   47409       0   47411   47412   47413   47412   47413
   47413       0   47415   47416   47417   47416   47417   47417       0   47419
   47420   47421   47420   47421   47421       0   47423   47424   47425   47424
   47425   47425       0   47427   47428   47429   47428   47429   47429       0
   47431   47432   47433   47432   47433   47433       0   47435   47436   47437
   47436   47437   47437       0   47439   47440   47441   47440   47441   47441
       0   47443   47444   47445   47444   47445   47445       0   47447   47448
   47449   47448   47449   47449       0   47451   47452   47453   47452   47453
   47453       0   47455   47456   47457   47456   47457   47457       0   47459
   47460   47461   47460   47461   47461       0   47463   47464   47465   47464
   47465   47465       0   47467   47468   47469   47468   47469   47469       0
   47471   47472   47473   47472   47473   47473       0   47475   47476   47477
   47476   47477   47477       0   47479   47480   47481   47480   47481   47481
       0   47483   47484   47485   47484   47485   47485       0   47487   47488
   47489   47488   47489   47489       0   47491   47492   47493   47492   47493
   47493       0   47495   47496   47497   47496   47497   47497       0   47499
   47500   47501   47500   47501   47501       0   47503   47504   47505   47504
   47505   47505       0   47507   47508   47509   47508   47509   47509       0
   47511   47512   47513   47512   47513   47513       0   47515   47516   47517
   47516   47517   47517       0   47519   47520   47521   47520   47521   47521
       0   47523   47524   47525   47524   47525   47525       0   47527   47528
   47529   47528   47529   47529       0   47531   47532   47533   47532   47533
   47533       0   47535   47536   47537   47536   47537   47537       0   47539
   47540   47541   47540   47541   47541       0   47543   47544   47545   47544
   47545   47545       0   47547   47548   47549   47548   47549   47549       0
   47551   47552   47553   47552   47553   47553       0   47555   47556   47557
   47556   47557   47557       0   47559   47560   47561   47560   47561   47561
       0   47563   47564   47565   47564   47565   47565       0   47567   47568
   47569   47568   47569   47569       0   47571   47572   47573   47572   47573
   47573       0   47575   47576   47577   47576   47577   47577       0   47579
   47580   47581   47580   47581   47581       0   47583   47584   47585   47584
   47585   47585       0   47587   47588   47589   47588   47589   47589       0
   47591   47592   47593   47592   47593   47593       0   47595   47596   47597
   47596   47597   47597       0   47599   47600   47601   47600   47601   47601
       0   47603   47604   47605   47604   47605   47605       0   47607   47608
   47609   47608   47609   47609       0   47611   47612   47613   47612   47613
   47613       0   47615   47616   47617   47616   47617   47617       0   47619
   47620   47621   47620   47621   47621       0   47623   47624   47625   47624
   47625   47625       0   47627   47628   47629   47628   47629   47629       0
   47631   47632   47633   47632   47633   47633       0   47635   47636   47637
   47636   47637   47637       0   47639   47640   47641   47640   47641   47641
       0   47643   47644   47645   47644   47645   47645       0   47647   47648
   47649   47648   47649   47649       0   47651   47652   47653   47652   47653
   47653       0   47655   47656   47657   47656   47657   47657       0   47659
   47660   47661   47660   47661   47661       0   47663   47664   47665   47664
   47665   47665       0   47667   47668   47669   47668   47669   47669       0
   47671   47672   47673   47672   47673   47673       0   47675   47676   47677
   47676   47677   47677       0   47679   47680   47681   47680   47681   47681
       0   47683   47684   47685   47684   47685   47685       0   47687   47688
   47689   47688   47689   47689       0   47691   47692   47693   47692   47693
   47693       0   47695   47696   47697   47696   47697   47697       0   47699
   47700   47701   47700   47701   47701       0   47703   47704   47705   47704
   47705   47705       0   47707   47708   47709   47708   47709   47709       0
   47711   47712   47713   47712   47713   47713       0   47715   47716   47717
   47716   47717   47717       0   47719   47720   47721   47720   47721   47721
       0   47723   47724   47725   47724   47725   47725       0   47727   47728
   47729   47728   47729   47729       0   47731   47732   47733   47732   47733
   47733       0   47735   47736   47737   47736   47737   47737       0   47739
   47740   47741   47740   47741   47741       0   47743   47744   47745   47744
   47745   47745       0   47747   47748   47749   47748   47749   47749       0
   47751   47752   47753   47752   47753   47753       0   47755   47756   47757
   47756   47757   47757       0   47759   47760   47761   47760   47761   47761
       0   47763   47764   47765   47764   47765   47765       0   47767   47768
   47769   47768   47769   47769       0   47771   47772   47773   47772   47773
   47773       0   47775   47776   47777   47776   47777   47777       0   47779
   47780   47781   47780   47781   47781       0   47783   47784   47785   47784
   47785   47785       0   47787   47788   47789   47788   47789   47789       0
   47791   47792   47793   47792   47793   47793       0   47795   47796   47797
   47796   47797   47797       0   47799   47800   47801   47800   47801   47801
       0   47803   47804   47805   47804   47805   47805       0   47807   47808
   47809   47808   47809   47809       0   47811   47812   47813   47812   47813
   47813       0   47815   47816   47817   47816   47817   47817       0   47819
   47820   47821   47820   47821   47821       0   47823   47824   47825   47824
   47825   47825       0   47827   47828   47829   47828   47829   47829       0
   47831   47832   47833   47832   47833   47833       0   47835   47836   47837
   47836   47837   47837       0   47839   47840   47841   47840   47841   47841
       0   47843   47844   47845   47844   47845   47845       0   47847   47848
   47849   47848   47849   47849       0   47851   47852   47853   47852   47853
   47853       0   47855   47856   47857   47856   47857   47857       0   47859
   47860   47861   47860   47861   47861       0   47863   47864   47865   47864
   47865   47865       0   47867   47868   47869   47868   47869   47869       0
   47871   47872   47873   47872   47873   47873       0   47875   47876   47877
   47876   47877   47877       0   47879   47880   47881   47880   47881   47881
       0   47883   47884   47885   47884   47885   47885       0   47887   47888
   47889   47888   47889   47889       0   47891   47892   47893   47892   47893
   47893       0   47895   47896   47897   47896   47897   47897       0   47899
   47900   47901   47900   47901   47901       0   47903   47904   47905   47904
   47905   47905       0   47907   47908   47909   47908   47909   47909       0
   47911   47912   47913   47912   47913   47913       0   47915   47916   47917
   47916   47917   47917       0   47919   47920   47921   47920   47921   47921
       0   47923   47924   47925   47924   47925   47925       0   47927   47928
   47929   47928   47929   47929       0   47931   47932   47933   47932   47933
   47933       0   47935   47936   47937   47936   47937   47937       0   47939
   47940   47941   47940   47941   47941       0   47943   47944   47945   47944
   47945   47945       0   47947   47948   47949   47948   47949   47949       0
   47951   47952   47953   47952   47953   47953       0   47955   47956   47957
   47956   47957   47957       0   47959   47960   47961   47960   47961   47961
       0   47963   47964   47965   47964   47965   47965       0   47967   47968
   47969   47968   47969   47969       0   47971   47972   47973   47972   47973
   47973       0   47975   47976   47977   47976   47977   47977       0   47979
   47980   47981   47980   47981   47981       0   47983   47984   47985   47984
   47985   47985       0   47987   47988   47989   47988   47989   47989       0
   47991   47992   47993   47992   47993   47993       0   47995   47996   47997
   47996   47997   47997       0   47999   48000   48001   48000   48001   48001
       0   48003   48004   48005   48004   48005   48005       0   48007   48008
   48009   48008   48009   48009       0   48011   48012   48013   48012   48013
   48013       0   48015   48016   48017   48016   48017   48017       0   48019
   48020   48021   48020   48021   48021       0   48023   48024   48025   48024
   48025   48025       0   48027   48028   48029   48028   48029   48029       0
   48031   48032   48033   48032   48033   48033       0   48035   48036   48037
   48036   48037   48037       0   48039   48040   48041   48040   48041   48041
       0   48043   48044   48045   48044   48045   48045       0   48047   48048
   48049   48048   48049   48049       0   48051   48052   48053   48052   48053
   48053       0   48055   48056   48057   48056   48057   48057       0   48059
   48060   48061   48060   48061   48061       0   48063   48064   48065   48064
   48065   48065       0   48067   48068   48069   48068   48069   48069       0
   48071   48072   48073   48072   48073   48073       0   48075   48076   48077
   48076   48077   48077       0   48079   48080   48081   48080   48081   48081
       0   48083   48084   48085   48084   48085   48085       0   48087   48088
   48089   48088   48089   48089       0   48091   48092   48093   48092   48093
   48093       0   48095   48096   48097   48096   48097   48097       0   48099
   48100   48101   48100   48101   48101       0   48103   48104   48105   48104
   48105   48105       0   48107   48108   48109   48108   48109   48109       0
   48111   48112   48113   48112   48113   48113       0   48115   48116   48117
   48116   48117   48117       0   48119   48120   48121   48120   48121   48121
       0   48123   48124   48125   48124   48125   48125       0   48127   48128
   48129   48128   48129   48129       0   48131   48132   48133   48132   48133
   48133       0   48135   48136   48137   48136   48137   48137       0   48139
   48140   48141   48140   48141   48141       0   48143   48144   48145   48144
   48145   48145       0   48147   48148   48149   48148   48149   48149       0
   48151   48152   48153   48152   48153   48153       0   48155   48156   48157
   48156   48157   48157       0   48159   48160   48161   48160   48161   48161
       0   48163   48164   48165   48164   48165   48165       0   48167   48168
   48169   48168   48169   48169       0   48171   48172   48173   48172   48173
   48173       0   48175   48176   48177   48176   48177   48177       0   48179
   48180   48181   48180   48181   48181       0   48183   48184   48185   48184
   48185   48185       0   48187   48188   48189   48188   48189   48189       0
   48191   48192   48193   48192   48193   48193       0   48195   48196   48197
   48196   48197   48197       0   48199   48200   48201   48200   48201   48201
       0   48203   48204   48205   48204   48205   48205       0   48207   48208
   48209   48208   48209   48209       0   48211   48212   48213   48212   48213
   48213       0   48215   48216   48217   48216   48217   48217       0   48219
   48220   48221   48220   48221   48221       0   48223   48224   48225   48224
   48225   48225       0   48227   48228   48229   48228   48229   48229       0
   48231   48232   48233   48232   48233   48233       0   48235   48236   48237
   48236   48237   48237       0   48239   48240   48241   48240   48241   48241
       0   48243   48244   48245   48244   48245   48245       0   48247   48248
   48249   48248   48249   48249       0   48251   48252   48253   48252   48253
   48253       0   48255   48256   48257   48256   48257   48257       0   48259
   48260   48261   48260   48261   48261       0   48263   48264   48265   48264
   48265   48265       0   48267   48268   48269   48268   48269   48269       0
   48271   48272   48273   48272   48273   48273       0   48275   48276   48277
   48276   48277   48277       0   48279   48280   48281   48280   48281   48281
       0   48283   48284   48285   48284   48285   48285       0   48287   48288
   48289   48288   48289   48289       0   48291   48292   48293   48292   48293
   48293       0   48295   48296   48297   48296   48297   48297       0   48299
   48300   48301   48300   48301   48301       0   48303   48304   48305   48304
   48305   48305       0   48307   48308   48309   48308   48309   48309       0
   48311   48312   48313   48312   48313   48313       0   48315   48316   48317
   48316   48317   48317       0   48319   48320   48321   48320   48321   48321
       0   48323   48324   48325   48324   48325   48325       0   48327   48328
   48329   48328   48329   48329       0   48331   48332   48333   48332   48333
   48333       0   48335   48336   48337   48336   48337   48337       0   48339
   48340   48341   48340   48341   48341       0   48343   48344   48345   48344
   48345   48345       0   48347   48348   48349   48348   48349   48349       0
   48351   48352   48353   48352   48353   48353       0   48355   48356   48357
   48356   48357   48357       0   48359   48360   48361   48360   48361   48361
       0   48363   48364   48365   48364   48365   48365       0   48367   48368
   48369   48368   48369   48369       0   48371   48372   48373   48372   48373
   48373       0   48375   48376   48377   48376   48377   48377       0   48379
   48380   48381   48380   48381   48381       0   48383   48384   48385   48384
   48385   48385       0   48387   48388   48389   48388   48389   48389       0
   48391   48392   48393   48392   48393   48393       0   48395   48396   48397
   48396   48397   48397       0   48399   48400   48401   48400   48401   48401
       0   48403   48404   48405   48404   48405   48405       0   48407   48408
   48409   48408   48409   48409       0   48411   48412   48413   48412   48413
   48413       0   48415   48416   48417   48416   48417   48417       0   48419
   48420   48421   48420   48421   48421       0   48423   48424   48425   48424
   48425   48425       0   48427   48428   48429   48428   48429   48429       0
   48431   48432   48433   48432   48433   48433       0   48435   48436   48437
   48436   48437   48437       0   48439   48440   48441   48440   48441   48441
       0   48443   48444   48445   48444   48445   48445       0   48447   48448
   48449   48448   48449   48449       0   48451   48452   48453   48452   48453
   48453       0   48455   48456   48457   48456   48457   48457       0   48459
   48460   48461   48460   48461   48461       0   48463   48464   48465   48464
   48465   48465       0   48467   48468   48469   48468   48469   48469       0
   48471   48472   48473   48472   48473   48473       0   48475   48476   48477
   48476   48477   48477       0   48479   48480   48481   48480   48481   48481
       0   48483   48484   48485   48484   48485   48485       0   48487   48488
   48489   48488   48489   48489       0   48491   48492   48493   48492   48493
   48493       0   48495   48496   48497   48496   48497   48497       0   48499
   48500   48501   48500   48501   48501       0   48503   48504   48505   48504
   48505   48505       0   48507   48508   48509   48508   48509   48509       0
   48511   48512   48513   48512   48513   48513       0   48515   48516   48517
   48516   48517   48517       0   48519   48520   48521   48520   48521   48521
       0   48523   48524   48525   48524   48525   48525       0   48527   48528
   48529   48528   48529   48529       0   48531   48532   48533   48532   48533
   48533       0   48535   48536   48537   48536   48537   48537       0   48539
   48540   48541   48540   48541   48541       0   48543   48544   48545   48544
   48545   48545       0   48547   48548   48549   48548   48549   48549       0
   48551   48552   48553   48552   48553   48553       0   48555   48556   48557
   48556   48557   48557       0   48559   48560   48561   48560   48561   48561
       0   48563   48564   48565   48564   48565   48565       0   48567   48568
   48569   48568   48569   48569       0   48571   48572   48573   48572   48573
   48573       0   48575   48576   48577   48576   48577   48577       0   48579
   48580   48581   48580   48581   48581       0   48583   48584   48585   48584
   48585   48585       0   48587   48588   48589   48588   48589   48589       0
   48591   48592   48593   48592   48593   48593       0   48595   48596   48597
   48596   48597   48597       0   48599   48600   48601   48600   48601   48601
       0   48603   48604   48605   48604   48605   48605       0   48607   48608
   48609   48608   48609   48609       0   48611   48612   48613   48612   48613
   48613       0   48615   48616   48617   48616   48617   48617       0   48619
   48620   48621   48620   48621   48621       0   48623   48624   48625   48624
   48625   48625       0   48627   48628   48629   48628   48629   48629       0
   48631   48632   48633   48632   48633   48633       0   48635   48636   48637
   48636   48637   48637       0   48639   48640   48641   48640   48641   48641
       0   48643   48644   48645   48644   48645   48645       0   48647   48648
   48649   48648   48649   48649       0   48651   48652   48653   48652   48653
   48653       0   48655   48656   48657   48656   48657   48657       0   48659
   48660   48661   48660   48661   48661       0   48663   48664   48665   48664
   48665   48665       0   48667   48668   48669   48668   48669   48669       0
   48671   48672   48673   48672   48673   48673       0   48675   48676   48677
   48676   48677   48677       0   48679   48680   48681   48680   48681   48681
       0   48683   48684   48685   48684   48685   48685       0   48687   48688
   48689   48688   48689   48689       0   48691   48692   48693   48692   48693
   48693       0   48695   48696   48697   48696   48697   48697       0   48699
   48700   48701   48700   48701   48701       0   48703   48704   48705   48704
   48705   48705       0   48707   48708   48709   48708   48709   48709       0
   48711   48712   48713   48712   48713   48713       0   48715   48716   48717
   48716   48717   48717       0   48719   48720   48721   48720   48721   48721
       0   48723   48724   48725   48724   48725   48725       0   48727   48728
   48729   48728   48729   48729       0   48731   48732   48733   48732   48733
   48733       0   48735   48736   48737   48736   48737   48737       0   48739
   48740   48741   48740   48741   48741       0   48743   48744   48745   48744
   48745   48745       0   48747   48748   48749   48748   48749   48749       0
   48751   48752   48753   48752   48753   48753       0   48755   48756   48757
   48756   48757   48757       0   48759   48760   48761   48760   48761   48761
       0   48763   48764   48765   48764   48765   48765       0   48767   48768
   48769   48768   48769   48769       0   48771   48772   48773   48772   48773
   48773       0   48775   48776   48777   48776   48777   48777       0   48779
   48780   48781   48780   48781   48781       0   48783   48784   48785   48784
   48785   48785       0   48787   48788   48789   48788   48789   48789       0
   48791   48792   48793   48792   48793   48793       0   48795   48796   48797
   48796   48797   48797       0   48799   48800   48801   48800   48801   48801
       0   48803   48804   48805   48804   48805   48805       0   48807   48808
   48809   48808   48809   48809       0   48811   48812   48813   48812   48813
   48813       0   48815   48816   48817   48816   48817   48817       0   48819
   48820   48821   48820   48821   48821       0   48823   48824   48825   48824
   48825   48825       0   48827   48828   48829   48828   48829   48829       0
   48831   48832   48833   48832   48833   48833       0   48835   48836   48837
   48836   48837   48837       0   48839   48840   48841   48840   48841   48841
       0   48843   48844   48845   48844   48845   48845       0   48847   48848
   48849   48848   48849   48849       0   48851   48852   48853   48852   48853
   48853       0   48855   48856   48857   48856   48857   48857       0   48859
   48860   48861   48860   48861   48861       0   48863   48864   48865   48864
   48865   48865       0   48867   48868   48869   48868   48869   48869       0
   48871   48872   48873   48872   48873   48873       0   48875   48876   48877
   48876   48877   48877       0   48879   48880   48881   48880   48881   48881
       0   48883   48884   48885   48884   48885   48885       0   48887   48888
   48889   48888   48889   48889       0   48891   48892   48893   48892   48893
   48893       0   48895   48896   48897   48896   48897   48897       0   48899
   48900   48901   48900   48901   48901       0   48903   48904   48905   48904
   48905   48905       0   48907   48908   48909   48908   48909   48909       0
   48911   48912   48913   48912   48913   48913       0   48915   48916   48917
   48916   48917   48917       0   48919   48920   48921   48920   48921   48921
       0   48923   48924   48925   48924   48925   48925       0   48927   48928
   48929   48928   48929   48929       0   48931   48932   48933   48932   48933
   48933       0   48935   48936   48937   48936   48937   48937       0   48939
   48940   48941   48940   48941   48941       0   48943   48944   48945   48944
   48945   48945       0   48947   48948   48949   48948   48949   48949       0
   48951   48952   48953   48952   48953   48953       0   48955   48956   48957
   48956   48957   48957       0   48959   48960   48961   48960   48961   48961
       0   48963   48964   48965   48964   48965   48965       0   48967   48968
   48969   48968   48969   48969       0   48971   48972   48973   48972   48973
   48973       0   48975   48976   48977   48976   48977   48977       0   48979
   48980   48981   48980   48981   48981       0   48983   48984   48985   48984
   48985   48985       0   48987   48988   48989   48988   48989   48989       0
   48991   48992   48993   48992   48993   48993       0   48995   48996   48997
   48996   48997   48997       0   48999   49000   49001   49000   49001   49001
       0   49003   49004   49005   49004   49005   49005       0   49007   49008
   49009   49008   49009   49009       0   49011   49012   49013   49012   49013
   49013       0   49015   49016   49017   49016   49017   49017       0   49019
   49020   49021   49020   49021   49021       0   49023   49024   49025   49024
   49025   49025       0   49027   49028   49029   49028   49029   49029       0
   49031   49032   49033   49032   49033   49033       0   49035   49036   49037
   49036   49037   49037       0   49039   49040   49041   49040   49041   49041
       0   49043   49044   49045   49044   49045   49045       0   49047   49048
   49049   49048   49049   49049       0   49051   49052   49053   49052   49053
   49053       0   49055   49056   49057   49056   49057   49057       0   49059
   49060   49061   49060   49061   49061       0   49063   49064   49065   49064
   49065   49065       0   49067   49068   49069   49068   49069   49069       0
   49071   49072   49073   49072   49073   49073       0   49075   49076   49077
   49076   49077   49077       0   49079   49080   49081   49080   49081   49081
       0   49083   49084   49085   49084   49085   49085       0   49087   49088
   49089   49088   49089   49089       0   49091   49092   49093   49092   49093
   49093       0   49095   49096   49097   49096   49097   49097       0   49099
   49100   49101   49100   49101   49101       0   49103   49104   49105   49104
   49105   49105       0   49107   49108   49109   49108   49109   49109       0
   49111   49112   49113   49112   49113   49113       0   49115   49116   49117
   49116   49117   49117       0   49119   49120   49121   49120   49121   49121
       0   49123   49124   49125   49124   49125   49125       0   49127   49128
   49129   49128   49129   49129       0   49131   49132   49133   49132   49133
   49133       0   49135   49136   49137   49136   49137   49137       0   49139
   49140   49141   49140   49141   49141       0   49143   49144   49145   49144
   49145   49145       0   49147   49148   49149   49148   49149   49149       0
   49151   49152   49153   49152   49153   49153       0   49155   49156   49157
   49156   49157   49157       0   49159   49160   49161   49160   49161   49161
       0   49163   49164   49165   49164   49165   49165       0   49167   49168
   49169   49168   49169   49169       0   49171   49172   49173   49172   49173
   49173       0   49175   49176   49177   49176   49177   49177       0   49179
   49180   49181   49180   49181   49181       0   49183   49184   49185   49184
   49185   49185       0   49187   49188   49189   49188   49189   49189       0
   49191   49192   49193   49192   49193   49193       0   49195   49196   49197
   49196   49197   49197       0   49199   49200   49201   49200   49201   49201
       0   49203   49204   49205   49204   49205   49205       0   49207   49208
   49209   49208   49209   49209       0   49211   49212   49213   49212   49213
   49213       0   49215   49216   49217   49216   49217   49217       0   49219
   49220   49221   49220   49221   49221       0   49223   49224   49225   49224
   49225   49225       0   49227   49228   49229   49228   49229   49229       0
   49231   49232   49233   49232   49233   49233       0   49235   49236   49237
   49236   49237   49237       0   49239   49240   49241   49240   49241   49241
       0   49243   49244   49245   49244   49245   49245       0   49247   49248
   49249   49248   49249   49249       0   49251   49252   49253   49252   49253
   49253       0   49255   49256   49257   49256   49257   49257       0   49259
   49260   49261   49260   49261   49261       0   49263   49264   49265   49264
   49265   49265       0   49267   49268   49269   49268   49269   49269       0
   49271   49272   49273   49272   49273   49273       0   49275   49276   49277
   49276   49277   49277       0   49279   49280   49281   49280   49281   49281
       0   49283   49284   49285   49284   49285   49285       0   49287   49288
   49289   49288   49289   49289       0   49291   49292   49293   49292   49293
   49293       0   49295   49296   49297   49296   49297   49297       0   49299
   49300   49301   49300   49301   49301       0   49303   49304   49305   49304
   49305   49305       0   49307   49308   49309   49308   49309   49309       0
   49311   49312   49313   49312   49313   49313       0   49315   49316   49317
   49316   49317   49317       0   49319   49320   49321   49320   49321   49321
       0   49323   49324   49325   49324   49325   49325       0   49327   49328
   49329   49328   49329   49329       0   49331   49332   49333   49332   49333
   49333       0   49335   49336   49337   49336   49337   49337       0   49339
   49340   49341   49340   49341   49341       0   49343   49344   49345   49344
   49345   49345       0   49347   49348   49349   49348   49349   49349       0
   49351   49352   49353   49352   49353   49353       0   49355   49356   49357
   49356   49357   49357       0   49359   49360   49361   49360   49361   49361
       0   49363   49364   49365   49364   49365   49365       0   49367   49368
   49369   49368   49369   49369       0   49371   49372   49373   49372   49373
   49373       0   49375   49376   49377   49376   49377   49377       0   49379
   49380   49381   49380   49381   49381       0   49383   49384   49385   49384
   49385   49385       0   49387   49388   49389   49388   49389   49389       0
   49391   49392   49393   49392   49393   49393       0   49395   49396   49397
   49396   49397   49397       0   49399   49400   49401   49400   49401   49401
       0   49403   49404   49405   49404   49405   49405       0   49407   49408
   49409   49408   49409   49409       0   49411   49412   49413   49412   49413
   49413       0   49415   49416   49417   49416   49417   49417       0   49419
   49420   49421   49420   49421   49421       0   49423   49424   49425   49424
   49425   49425       0   49427   49428   49429   49428   49429   49429       0
   49431   49432   49433   49432   49433   49433       0   49435   49436   49437
   49436   49437   49437       0   49439   49440   49441   49440   49441   49441
       0   49443   49444   49445   49444   49445   49445       0   49447   49448
   49449   49448   49449   49449       0   49451   49452   49453   49452   49453
   49453       0   49455   49456   49457   49456   49457   49457       0   49459
   49460   49461   49460   49461   49461       0   49463   49464   49465   49464
   49465   49465       0   49467   49468   49469   49468   49469   49469       0
   49471   49472   49473   49472   49473   49473       0   49475   49476   49477
   49476   49477   49477       0   49479   49480   49481   49480   49481   49481
       0   49483   49484   49485   49484   49485   49485       0   49487   49488
   49489   49488   49489   49489       0   49491   49492   49493   49492   49493
   49493       0   49495   49496   49497   49496   49497   49497       0   49499
   49500   49501   49500   49501   49501       0   49503   49504   49505   49504
   49505   49505       0   49507   49508   49509   49508   49509   49509       0
   49511   49512   49513   49512   49513   49513       0   49515   49516   49517
   49516   49517   49517       0   49519   49520   49521   49520   49521   49521
       0   49523   49524   49525   49524   49525   49525       0   49527   49528
   49529   49528   49529   49529       0   49531   49532   49533   49532   49533
   49533       0   49535   49536   49537   49536   49537   49537       0   49539
   49540   49541   49540   49541   49541       0   49543   49544   49545   49544
   49545   49545       0   49547   49548   49549   49548   49549   49549       0
   49551   49552   49553   49552   49553   49553       0   49555   49556   49557
   49556   49557   49557       0   49559   49560   49561   49560   49561   49561
       0   49563   49564   49565   49564   49565   49565       0   49567   49568
   49569   49568   49569   49569       0   49571   49572   49573   49572   49573
   49573       0   49575   49576   49577   49576   49577   49577       0   49579
   49580   49581   49580   49581   49581       0   49583   49584   49585   49584
   49585   49585       0   49587   49588   49589   49588   49589   49589       0
   49591   49592   49593   49592   49593   49593       0   49595   49596   49597
   49596   49597   49597       0   49599   49600   49601   49600   49601   49601
       0   49603   49604   49605   49604   49605   49605       0   49607   49608
   49609   49608   49609   49609       0   49611   49612   49613   49612   49613
   49613       0   49615   49616   49617   49616   49617   49617       0   49619
   49620   49621   49620   49621   49621       0   49623   49624   49625   49624
   49625   49625       0   49627   49628   49629   49628   49629   49629       0
   49631   49632   49633   49632   49633   49633       0   49635   49636   49637
   49636   49637   49637       0   49639   49640   49641   49640   49641   49641
       0   49643   49644   49645   49644   49645   49645       0   49647   49648
   49649   49648   49649   49649       0   49651   49652   49653   49652   49653
   49653       0   49655   49656   49657   49656   49657   49657       0   49659
   49660   49661   49660   49661   49661       0   49663   49664   49665   49664
   49665   49665       0   49667   49668   49669   49668   49669   49669       0
   49671   49672   49673   49672   49673   49673       0   49675   49676   49677
   49676   49677   49677       0   49679   49680   49681   49680   49681   49681
       0   49683   49684   49685   49684   49685   49685       0   49687   49688
   49689   49688   49689   49689       0   49691   49692   49693   49692   49693
   49693       0   49695   49696   49697   49696   49697   49697       0   49699
   49700   49701   49700   49701   49701       0   49703   49704   49705   49704
   49705   49705       0   49707   49708   49709   49708   49709   49709       0
   49711   49712   49713   49712   49713   49713       0   49715   49716   49717
   49716   49717   49717       0   49719   49720   49721   49720   49721   49721
       0   49723   49724   49725   49724   49725   49725       0   49727   49728
   49729   49728   49729   49729       0   49731   49732   49733   49732   49733
   49733       0   49735   49736   49737   49736   49737   49737       0   49739
   49740   49741   49740   49741   49741       0   49743   49744   49745   49744
   49745   49745       0   49747   49748   49749   49748   49749   49749       0
   49751   49752   49753   49752   49753   49753       0   49755   49756   49757
   49756   49757   49757       0   49759   49760   49761   49760   49761   49761
       0   49763   49764   49765   49764   49765   49765       0   49767   49768
   49769   49768   49769   49769       0   49771   49772   49773   49772   49773
   49773       0   49775   49776   49777   49776   49777   49777       0   49779
   49780   49781   49780   49781   49781       0   49783   49784   49785   49784
   49785   49785       0   49787   49788   49789   49788   49789   49789       0
   49791   49792   49793   49792   49793   49793       0   49795   49796   49797
   49796   49797   49797       0   49799   49800   49801   49800   49801   49801
       0   49803   49804   49805   49804   49805   49805       0   49807   49808
   49809   49808   49809   49809       0   49811   49812   49813   49812   49813
   49813       0   49815   49816   49817   49816   49817   49817       0   49819
   49820   49821   49820   49821   49821       0   49823   49824   49825   49824
   49825   49825       0   49827   49828   49829   49828   49829   49829       0
   49831   49832   49833   49832   49833   49833       0   49835   49836   49837
   49836   49837   49837       0   49839   49840   49841   49840   49841   49841
       0   49843   49844   49845   49844   49845   49845       0   49847   49848
   49849   49848   49849   49849       0   49851   49852   49853   49852   49853
   49853       0   49855   49856   49857   49856   49857   49857       0   49859
   49860   49861   49860   49861   49861       0   49863   49864   49865   49864
   49865   49865       0   49867   49868   49869   49868   49869   49869       0
   49871   49872   49873   49872   49873   49873       0   49875   49876   49877
   49876   49877   49877       0   49879   49880   49881   49880   49881   49881
       0   49883   49884   49885   49884   49885   49885       0   49887   49888
   49889   49888   49889   49889       0   49891   49892   49893   49892   49893
   49893       0   49895   49896   49897   49896   49897   49897       0   49899
   49900   49901   49900   49901   49901       0   49903   49904   49905   49904
   49905   49905       0   49907   49908   49909   49908   49909   49909       0
   49911   49912   49913   49912   49913   49913       0   49915   49916   49917
   49916   49917   49917       0   49919   49920   49921   49920   49921   49921
       0   49923   49924   49925   49924   49925   49925       0   49927   49928
   49929   49928   49929   49929       0   49931   49932   49933   49932   49933
   49933       0   49935   49936   49937   49936   49937   49937       0   49939
   49940   49941   49940   49941   49941       0   49943   49944   49945   49944
   49945   49945       0   49947   49948   49949   49948   49949   49949       0
   49951   49952   49953   49952   49953   49953       0   49955   49956   49957
   49956   49957   49957       0   49959   49960   49961   49960   49961   49961
       0   49963   49964   49965   49964   49965   49965       0   49967   49968
   49969   49968   49969   49969       0   49971   49972   49973   49972   49973
   49973       0   49975   49976   49977   49976   49977   49977       0   49979
   49980   49981   49980   49981   49981       0   49983   49984   49985   49984
   49985   49985       0   49987   49988   49989   49988   49989   49989       0
   49991   49992   49993   49992   49993   49993       0   49995   49996   49997
   49996   49997   49997       0   49999   50000   50001   50000   50001   50001
       0   50003   50004   50005   50004   50005   50005       0   50007   50008
   50009   50008   50009   50009       0   50011   50012   50013   50012   50013
   50013       0   50015   50016   50017   50016   50017   50017       0   50019
   50020   50021   50020   50021   50021       0   50023   50024   50025   50024
   50025   50025       0   50027   50028   50029   50028   50029   50029       0
   50031   50032   50033   50032   50033   50033       0   50035   50036   50037
   50036   50037   50037       0   50039   50040   50041   50040   50041   50041
       0   50043   50044   50045   50044   50045   50045       0   50047   50048
   50049   50048   50049   50049       0   50051   50052   50053   50052   50053
   50053       0   50055   50056   50057   50056   50057   50057       0   50059
   50060   50061   50060   50061   50061       0   50063   50064   50065   50064
   50065   50065       0   50067   50068   50069   50068   50069   50069       0
   50071   50072   50073   50072   50073   50073       0   50075   50076   50077
   50076   50077   50077       0   50079   50080   50081   50080   50081   50081
       0   50083   50084   50085   50084   50085   50085       0   50087   50088
   50089   50088   50089   50089       0   50091   50092   50093   50092   50093
   50093       0   50095   50096   50097   50096   50097   50097       0   50099
   50100   50101   50100   50101   50101       0   50103   50104   50105   50104
   50105   50105       0   50107   50108   50109   50108   50109   50109       0
   50111   50112   50113   50112   50113   50113       0   50115   50116   50117
   50116   50117   50117       0   50119   50120   50121   50120   50121   50121
       0   50123   50124   50125   50124   50125   50125       0   50127   50128
   50129   50128   50129   50129       0   50131   50132   50133   50132   50133
   50133       0   50135   50136   50137   50136   50137   50137       0   50139
   50140   50141   50140   50141   50141       0   50143   50144   50145   50144
   50145   50145       0   50147   50148   50149   50148   50149   50149       0
   50151   50152   50153   50152   50153   50153       0   50155   50156   50157
   50156   50157   50157       0   50159   50160   50161   50160   50161   50161
       0   50163   50164   50165   50164   50165   50165       0   50167   50168
   50169   50168   50169   50169       0   50171   50172   50173   50172   50173
   50173       0   50175   50176   50177   50176   50177   50177       0   50179
   50180   50181   50180   50181   50181       0   50183   50184   50185   50184
   50185   50185       0   50187   50188   50189   50188   50189   50189       0
   50191   50192   50193   50192   50193   50193       0   50195   50196   50197
   50196   50197   50197       0   50199   50200   50201   50200   50201   50201
       0   50203   50204   50205   50204   50205   50205       0   50207   50208
   50209   50208   50209   50209       0   50211   50212   50213   50212   50213
   50213       0   50215   50216   50217   50216   50217   50217       0   50219
   50220   50221   50220   50221   50221       0   50223   50224   50225   50224
   50225   50225       0   50227   50228   50229   50228   50229   50229       0
   50231   50232   50233   50232   50233   50233       0   50235   50236   50237
   50236   50237   50237       0   50239   50240   50241   50240   50241   50241
       0   50243   50244   50245   50244   50245   50245       0   50247   50248
   50249   50248   50249   50249       0   50251   50252   50253   50252   50253
   50253       0   50255   50256   50257   50256   50257   50257       0   50259
   50260   50261   50260   50261   50261       0   50263   50264   50265   50264
   50265   50265       0   50267   50268   50269   50268   50269   50269       0
   50271   50272   50273   50272   50273   50273       0   50275   50276   50277
   50276   50277   50277       0   50279   50280   50281   50280   50281   50281
       0   50283   50284   50285   50284   50285   50285       0   50287   50288
   50289   50288   50289   50289       0   50291   50292   50293   50292   50293
   50293       0   50295   50296   50297   50296   50297   50297       0   50299
   50300   50301   50300   50301   50301       0   50303   50304   50305   50304
   50305   50305       0   50307   50308   50309   50308   50309   50309       0
   50311   50312   50313   50312   50313   50313       0   50315   50316   50317
   50316   50317   50317       0   50319   50320   50321   50320   50321   50321
       0   50323   50324   50325   50324   50325   50325       0   50327   50328
   50329   50328   50329   50329       0   50331   50332   50333   50332   50333
   50333       0   50335   50336   50337   50336   50337   50337       0   50339
   50340   50341   50340   50341   50341       0   50343   50344   50345   50344
   50345   50345       0   50347   50348   50349   50348   50349   50349       0
   50351   50352   50353   50352   50353   50353       0   50355   50356   50357
   50356   50357   50357       0   50359   50360   50361   50360   50361   50361
       0   50363   50364   50365   50364   50365   50365       0   50367   50368
   50369   50368   50369   50369       0   50371   50372   50373   50372   50373
   50373       0   50375   50376   50377   50376   50377   50377       0   50379
   50380   50381   50380   50381   50381       0   50383   50384   50385   50384
   50385   50385       0   50387   50388   50389   50388   50389   50389       0
   50391   50392   50393   50392   50393   50393       0   50395   50396   50397
   50396   50397   50397       0   50399   50400   50401   50400   50401   50401
       0   50403   50404   50405   50404   50405   50405       0   50407   50408
   50409   50408   50409   50409       0   50411   50412   50413   50412   50413
   50413       0   50415   50416   50417   50416   50417   50417       0   50419
   50420   50421   50420   50421   50421       0   50423   50424   50425   50424
   50425   50425       0   50427   50428   50429   50428   50429   50429       0
   50431   50432   50433   50432   50433   50433       0   50435   50436   50437
   50436   50437   50437       0   50439   50440   50441   50440   50441   50441
       0   50443   50444   50445   50444   50445   50445       0   50447   50448
   50449   50448   50449   50449       0   50451   50452   50453   50452   50453
   50453       0   50455   50456   50457   50456   50457   50457       0   50459
   50460   50461   50460   50461   50461       0   50463   50464   50465   50464
   50465   50465       0   50467   50468   50469   50468   50469   50469       0
   50471   50472   50473   50472   50473   50473       0   50475   50476   50477
   50476   50477   50477       0   50479   50480   50481   50480   50481   50481
       0   50483   50484   50485   50484   50485   50485       0   50487   50488
   50489   50488   50489   50489       0   50491   50492   50493   50492   50493
   50493       0   50495   50496   50497   50496   50497   50497       0   50499
   50500   50501   50500   50501   50501       0   50503   50504   50505   50504
   50505   50505       0   50507   50508   50509   50508   50509   50509       0
   50511   50512   50513   50512   50513   50513       0   50515   50516   50517
   50516   50517   50517       0   50519   50520   50521   50520   50521   50521
       0   50523   50524   50525   50524   50525   50525       0   50527   50528
   50529   50528   50529   50529       0   50531   50532   50533   50532   50533
   50533       0   50535   50536   50537   50536   50537   50537       0   50539
   50540   50541   50540   50541   50541       0   50543   50544   50545   50544
   50545   50545       0   50547   50548   50549   50548   50549   50549       0
   50551   50552   50553   50552   50553   50553       0   50555   50556   50557
   50556   50557   50557       0   50559   50560   50561   50560   50561   50561
       0   50563   50564   50565   50564   50565   50565       0   50567   50568
   50569   50568   50569   50569       0   50571   50572   50573   50572   50573
   50573       0   50575   50576   50577   50576   50577   50577       0   50579
   50580   50581   50580   50581   50581       0   50583   50584   50585   50584
   50585   50585       0   50587   50588   50589   50588   50589   50589       0
   50591   50592   50593   50592   50593   50593       0   50595   50596   50597
   50596   50597   50597       0   50599   50600   50601   50600   50601   50601
       0   50603   50604   50605   50604   50605   50605       0   50607   50608
   50609   50608   50609   50609       0   50611   50612   50613   50612   50613
   50613       0   50615   50616   50617   50616   50617   50617       0   50619
   50620   50621   50620   50621   50621       0   50623   50624   50625   50624
   50625   50625       0   50627   50628   50629   50628   50629   50629       0
   50631   50632   50633   50632   50633   50633       0   50635   50636   50637
   50636   50637   50637       0   50639   50640   50641   50640   50641   50641
       0   50643   50644   50645   50644   50645   50645       0   50647   50648
   50649   50648   50649   50649       0   50651   50652   50653   50652   50653
   50653       0   50655   50656   50657   50656   50657   50657       0   50659
   50660   50661   50660   50661   50661       0   50663   50664   50665   50664
   50665   50665       0   50667   50668   50669   50668   50669   50669       0
   50671   50672   50673   50672   50673   50673       0   50675   50676   50677
   50676   50677   50677       0   50679   50680   50681   50680   50681   50681
       0   50683   50684   50685   50684   50685   50685       0   50687   50688
   50689   50688   50689   50689       0   50691   50692   50693   50692   50693
   50693       0   50695   50696   50697   50696   50697   50697       0   50699
   50700   50701   50700   50701   50701       0   50703   50704   50705   50704
   50705   50705       0   50707   50708   50709   50708   50709   50709       0
   50711   50712   50713   50712   50713   50713       0   50715   50716   50717
   50716   50717   50717       0   50719   50720   50721   50720   50721   50721
       0   50723   50724   50725   50724   50725   50725       0   50727   50728
   50729   50728   50729   50729       0   50731   50732   50733   50732   50733
   50733       0   50735   50736   50737   50736   50737   50737       0   50739
   50740   50741   50740   50741   50741       0   50743   50744   50745   50744
   50745   50745       0   50747   50748   50749   50748   50749   50749       0
   50751   50752   50753   50752   50753   50753       0   50755   50756   50757
   50756   50757   50757       0   50759   50760   50761   50760   50761   50761
       0   50763   50764   50765   50764   50765   50765       0   50767   50768
   50769   50768   50769   50769       0   50771   50772   50773   50772   50773
   50773       0   50775   50776   50777   50776   50777   50777       0   50779
   50780   50781   50780   50781   50781       0   50783   50784   50785   50784
   50785   50785       0   50787   50788   50789   50788   50789   50789       0
   50791   50792   50793   50792   50793   50793       0   50795   50796   50797
   50796   50797   50797       0   50799   50800   50801   50800   50801   50801
       0   50803   50804   50805   50804   50805   50805       0   50807   50808
   50809   50808   50809   50809       0   50811   50812   50813   50812   50813
   50813       0   50815   50816   50817   50816   50817   50817       0   50819
   50820   50821   50820   50821   50821       0   50823   50824   50825   50824
   50825   50825       0   50827   50828   50829   50828   50829   50829       0
   50831   50832   50833   50832   50833   50833       0   50835   50836   50837
   50836   50837   50837       0   50839   50840   50841   50840   50841   50841
       0   50843   50844   50845   50844   50845   50845       0   50847   50848
   50849   50848   50849   50849       0   50851   50852   50853   50852   50853
   50853       0   50855   50856   50857   50856   50857   50857       0   50859
   50860   50861   50860   50861   50861       0   50863   50864   50865   50864
   50865   50865       0   50867   50868   50869   50868   50869   50869       0
   50871   50872   50873   50872   50873   50873       0   50875   50876   50877
   50876   50877   50877       0   50879   50880   50881   50880   50881   50881
       0   50883   50884   50885   50884   50885   50885       0   50887   50888
   50889   50888   50889   50889       0   50891   50892   50893   50892   50893
   50893       0   50895   50896   50897   50896   50897   50897       0   50899
   50900   50901   50900   50901   50901       0   50903   50904   50905   50904
   50905   50905       0   50907   50908   50909   50908   50909   50909       0
   50911   50912   50913   50912   50913   50913       0   50915   50916   50917
   50916   50917   50917       0   50919   50920   50921   50920   50921   50921
       0   50923   50924   50925   50924   50925   50925       0   50927   50928
   50929   50928   50929   50929       0   50931   50932   50933   50932   50933
   50933       0   50935   50936   50937   50936   50937   50937       0   50939
   50940   50941   50940   50941   50941       0   50943   50944   50945   50944
   50945   50945       0   50947   50948   50949   50948   50949   50949       0
   50951   50952   50953   50952   50953   50953       0   50955   50956   50957
   50956   50957   50957       0   50959   50960   50961   50960   50961   50961
       0   50963   50964   50965   50964   50965   50965       0   50967   50968
   50969   50968   50969   50969       0   50971   50972   50973   50972   50973
   50973       0   50975   50976   50977   50976   50977   50977       0   50979
   50980   50981   50980   50981   50981       0   50983   50984   50985   50984
   50985   50985       0   50987   50988   50989   50988   50989   50989       0
   50991   50992   50993   50992   50993   50993       0   50995   50996   50997
   50996   50997   50997       0   50999   51000   51001   51000   51001   51001
       0   51003   51004   51005   51004   51005   51005       0   51007   51008
   51009   51008   51009   51009       0   51011   51012   51013   51012   51013
   51013       0   51015   51016   51017   51016   51017   51017       0   51019
   51020   51021   51020   51021   51021       0   51023   51024   51025   51024
   51025   51025       0   51027   51028   51029   51028   51029   51029       0
   51031   51032   51033   51032   51033   51033       0   51035   51036   51037
   51036   51037   51037       0   51039   51040   51041   51040   51041   51041
       0   51043   51044   51045   51044   51045   51045       0   51047   51048
   51049   51048   51049   51049       0   51051   51052   51053   51052   51053
   51053       0   51055   51056   51057   51056   51057   51057       0   51059
   51060   51061   51060   51061   51061       0   51063   51064   51065   51064
   51065   51065       0   51067   51068   51069   51068   51069   51069       0
   51071   51072   51073   51072   51073   51073       0   51075   51076   51077
   51076   51077   51077       0   51079   51080   51081   51080   51081   51081
       0   51083   51084   51085   51084   51085   51085       0   51087   51088
   51089   51088   51089   51089       0   51091   51092   51093   51092   51093
   51093       0   51095   51096   51097   51096   51097   51097       0   51099
   51100   51101   51100   51101   51101       0   51103   51104   51105   51104
   51105   51105       0   51107   51108   51109   51108   51109   51109       0
   51111   51112   51113   51112   51113   51113       0   51115   51116   51117
   51116   51117   51117       0   51119   51120   51121   51120   51121   51121
       0   51123   51124   51125   51124   51125   51125       0   51127   51128
   51129   51128   51129   51129       0   51131   51132   51133   51132   51133
   51133       0   51135   51136   51137   51136   51137   51137       0   51139
   51140   51141   51140   51141   51141       0   51143   51144   51145   51144
   51145   51145       0   51147   51148   51149   51148   51149   51149       0
   51151   51152   51153   51152   51153   51153       0   51155   51156   51157
   51156   51157   51157       0   51159   51160   51161   51160   51161   51161
       0   51163   51164   51165   51164   51165   51165       0   51167   51168
   51169   51168   51169   51169       0   51171   51172   51173   51172   51173
   51173       0   51175   51176   51177   51176   51177   51177       0   51179
   51180   51181   51180   51181   51181       0   51183   51184   51185   51184
   51185   51185       0   51187   51188   51189   51188   51189   51189       0
   51191   51192   51193   51192   51193   51193       0   51195   51196   51197
   51196   51197   51197       0   51199   51200   51201   51200   51201   51201
       0   51203   51204   51205   51204   51205   51205       0   51207   51208
   51209   51208   51209   51209       0   51211   51212   51213   51212   51213
   51213       0   51215   51216   51217   51216   51217   51217       0   51219
   51220   51221   51220   51221   51221       0   51223   51224   51225   51224
   51225   51225       0   51227   51228   51229   51228   51229   51229       0
   51231   51232   51233   51232   51233   51233       0   51235   51236   51237
   51236   51237   51237       0   51239   51240   51241   51240   51241   51241
       0   51243   51244   51245   51244   51245   51245       0   51247   51248
   51249   51248   51249   51249       0   51251   51252   51253   51252   51253
   51253       0   51255   51256   51257   51256   51257   51257       0   51259
   51260   51261   51260   51261   51261       0   51263   51264   51265   51264
   51265   51265       0   51267   51268   51269   51268   51269   51269       0
   51271   51272   51273   51272   51273   51273       0   51275   51276   51277
   51276   51277   51277       0   51279   51280   51281   51280   51281   51281
       0   51283   51284   51285   51284   51285   51285       0   51287   51288
   51289   51288   51289   51289       0   51291   51292   51293   51292   51293
   51293       0   51295   51296   51297   51296   51297   51297       0   51299
   51300   51301   51300   51301   51301       0   51303   51304   51305   51304
   51305   51305       0   51307   51308   51309   51308   51309   51309       0
   51311   51312   51313   51312   51313   51313       0   51315   51316   51317
   51316   51317   51317       0   51319   51320   51321   51320   51321   51321
       0   51323   51324   51325   51324   51325   51325       0   51327   51328
   51329   51328   51329   51329       0   51331   51332   51333   51332   51333
   51333       0   51335   51336   51337   51336   51337   51337       0   51339
   51340   51341   51340   51341   51341       0   51343   51344   51345   51344
   51345   51345       0   51347   51348   51349   51348   51349   51349       0
   51351   51352   51353   51352   51353   51353       0   51355   51356   51357
   51356   51357   51357       0   51359   51360   51361   51360   51361   51361
       0   51363   51364   51365   51364   51365   51365       0   51367   51368
   51369   51368   51369   51369       0   51371   51372   51373   51372   51373
   51373       0   51375   51376   51377   51376   51377   51377       0   51379
   51380   51381   51380   51381   51381       0   51383   51384   51385   51384
   51385   51385       0   51387   51388   51389   51388   51389   51389       0
   51391   51392   51393   51392   51393   51393       0   51395   51396   51397
   51396   51397   51397       0   51399   51400   51401   51400   51401   51401
       0   51403   51404   51405   51404   51405   51405       0   51407   51408
   51409   51408   51409   51409       0   51411   51412   51413   51412   51413
   51413       0   51415   51416   51417   51416   51417   51417       0   51419
   51420   51421   51420   51421   51421       0   51423   51424   51425   51424
   51425   51425       0   51427   51428   51429   51428   51429   51429       0
   51431   51432   51433   51432   51433   51433       0   51435   51436   51437
   51436   51437   51437       0   51439   51440   51441   51440   51441   51441
       0   51443   51444   51445   51444   51445   51445       0   51447   51448
   51449   51448   51449   51449       0   51451   51452   51453   51452   51453
   51453       0   51455   51456   51457   51456   51457   51457       0   51459
   51460   51461   51460   51461   51461       0   51463   51464   51465   51464
   51465   51465       0   51467   51468   51469   51468   51469   51469       0
   51471   51472   51473   51472   51473   51473       0   51475   51476   51477
   51476   51477   51477       0   51479   51480   51481   51480   51481   51481
       0   51483   51484   51485   51484   51485   51485       0   51487   51488
   51489   51488   51489   51489       0   51491   51492   51493   51492   51493
   51493       0   51495   51496   51497   51496   51497   51497       0   51499
   51500   51501   51500   51501   51501       0   51503   51504   51505   51504
   51505   51505       0   51507   51508   51509   51508   51509   51509       0
   51511   51512   51513   51512   51513   51513       0   51515   51516   51517
   51516   51517   51517       0   51519   51520   51521   51520   51521   51521
       0   51523   51524   51525   51524   51525   51525       0   51527   51528
   51529   51528   51529   51529       0   51531   51532   51533   51532   51533
   51533       0   51535   51536   51537   51536   51537   51537       0   51539
   51540   51541   51540   51541   51541       0   51543   51544   51545   51544
   51545   51545       0   51547   51548   51549   51548   51549   51549       0
   51551   51552   51553   51552   51553   51553       0   51555   51556   51557
   51556   51557   51557       0   51559   51560   51561   51560   51561   51561
       0   51563   51564   51565   51564   51565   51565       0   51567   51568
   51569   51568   51569   51569       0   51571   51572   51573   51572   51573
   51573       0   51575   51576   51577   51576   51577   51577       0   51579
   51580   51581   51580   51581   51581       0   51583   51584   51585   51584
   51585   51585       0   51587   51588   51589   51588   51589   51589       0
   51591   51592   51593   51592   51593   51593       0   51595   51596   51597
   51596   51597   51597       0   51599   51600   51601   51600   51601   51601
       0   51603   51604   51605   51604   51605   51605       0   51607   51608
   51609   51608   51609   51609       0   51611   51612   51613   51612   51613
   51613       0   51615   51616   51617   51616   51617   51617       0   51619
   51620   51621   51620   51621   51621       0   51623   51624   51625   51624
   51625   51625       0   51627   51628   51629   51628   51629   51629       0
   51631   51632   51633   51632   51633   51633       0   51635   51636   51637
   51636   51637   51637       0   51639   51640   51641   51640   51641   51641
       0   51643   51644   51645   51644   51645   51645       0   51647   51648
   51649   51648   51649   51649       0   51651   51652   51653   51652   51653
   51653       0   51655   51656   51657   51656   51657   51657       0   51659
   51660   51661   51660   51661   51661       0   51663   51664   51665   51664
   51665   51665       0   51667   51668   51669   51668   51669   51669       0
   51671   51672   51673   51672   51673   51673       0   51675   51676   51677
   51676   51677   51677       0   51679   51680   51681   51680   51681   51681
       0   51683   51684   51685   51684   51685   51685       0   51687   51688
   51689   51688   51689   51689       0   51691   51692   51693   51692   51693
   51693       0   51695   51696   51697   51696   51697   51697       0   51699
   51700   51701   51700   51701   51701       0   51703   51704   51705   51704
   51705   51705       0   51707   51708   51709   51708   51709   51709       0
   51711   51712   51713   51712   51713   51713       0   51715   51716   51717
   51716   51717   51717       0   51719   51720   51721   51720   51721   51721
       0   51723   51724   51725   51724   51725   51725       0   51727   51728
   51729   51728   51729   51729       0   51731   51732   51733   51732   51733
   51733       0   51735   51736   51737   51736   51737   51737       0   51739
   51740   51741   51740   51741   51741       0   51743   51744   51745   51744
   51745   51745       0   51747   51748   51749   51748   51749   51749       0
   51751   51752   51753   51752   51753   51753       0   51755   51756   51757
   51756   51757   51757       0   51759   51760   51761   51760   51761   51761
       0   51763   51764   51765   51764   51765   51765       0   51767   51768
   51769   51768   51769   51769       0
%FLAG HBOND_ACOEF                                                               
%FORMAT(5E16.8)                                                                 
  0.00000000E+00
%FLAG HBOND_BCOEF                                                               
%FORMAT(5E16.8)                                                                 
  0.00000000E+00
%FLAG HBCUT                                                                     
%FORMAT(5E16.8)                                                                 
  0.00000000E+00
%FLAG AMBER_ATOM_TYPE                                                           
%FORMAT(20a4)                                                                   
HC  CT  HC  HC  C   O   N   H   XC  H1  CT  HC  HC  C*  CW  H4  NA  H   CN  CA  
HA  CA  HA  CA  HA  CA  HA  CB  C   O   N   H   XC  H1  3C  HC  CT  HC  HC  HC  
CT  HC  HC  HC  C   O   N   H   XC  H1  3C  H1  CT  HC  HC  HC  OH  HO  C   O   
N   H   XC  H1  CT  HC  HC  CC  NA  H   CR  H5  NB  CV  H4  C   O   N   H   XC  
H1  C8  HC  HC  C8  HC  HC  C8  H1  H1  N2  H   CA  N2  H   H   N2  H   H   C   
O   C   O   CX  CU  CU  CU  CU  CM  CM  CU  N   HC  HC  HC  HC  HC  HC  HC  HC  
HC  HA  HA  HC  HC  H   N   H   XC  H1  CT  HC  HC  HC  C   O   N   H   XC  H1  
H1  C   O   N   H   XC  H1  2C  HC  HC  3C  HC  CT  HC  HC  HC  CT  HC  HC  HC  
C   O   C   O   CX  CU  CU  CU  N   HC  HC  HC  HC  HC  HC  HC  H   N   H   XC  
H1  2C  H1  H1  OH  HO  C   O   N   H   XC  H1  C8  HC  HC  C8  HC  HC  C8  H1  
H1  N2  H   CA  N2  H   H   N2  H   H   C   O   N   H   XC  H1  2C  H1  H1  OH  
HO  C   O   N   H   XC  H1  H1  C   O   N   H   XC  H1  H1  C   O   N   H   XC  
H1  3C  HC  CT  HC  HC  HC  CT  HC  HC  HC  C   O   N   H   XC  H1  3C  HC  CT  
HC  HC  HC  CT  HC  HC  HC  C   O   N   H   XC  H1  C8  HC  HC  C8  HC  HC  C8  
HC  HC  C8  HP  HP  N3  H   H   H   C   O   N   H   XC  H1  2C  HC  HC  C   O   
N   H   H   C   O   N   H   XC  H1  2C  HC  HC  C   O   N   H   H   C   O   N   
H   XC  H1  CT  HC  HC  CA  CA  HA  CA  HA  CA  HA  CA  HA  CA  HA  C   O   N   
H   XC  H1  3C  HC  CT  HC  HC  HC  CT  HC  HC  HC  C   O   N   CT  H1  H1  CT  
HC  HC  CT  HC  HC  XC  H1  C   O   N   H   XC  H1  3C  H1  CT  HC  HC  HC  OH  
HO  C   O   N   H   XC  H1  2C  HC  HC  CO  O2  O2  C   O   N   H   XC  H1  3C  
HC  CT  HC  HC  HC  CT  HC  HC  HC  C   O   N   H   XC  H1  H1  C   O   N   CT  
H1  H1  CT  HC  HC  CT  HC  HC  XC  H1  C   O   N   H   XC  H1  CT  HC  HC  CA  
CA  HA  CA  HA  CA  HA  CA  HA  CA  HA  C   O   N   H   XC  H1  CT  HC  HC  HC  
C   O   N   H   XC  H1  CT  HC  HC  CA  CA  HA  CA  HA  CA  HA  CA  HA  CA  HA  
C   O   N   H   H   Na+ Na+ Na+ Na+ Na+ Na+ Na+ Na+ Na+ Na+ Na+ Na+ Na+ Na+ Na+ 
Na+ Na+ Na+ Na+ Na+ Na+ Cl- Cl- Cl- Cl- Cl- Cl- Cl- Cl- Cl- Cl- Cl- Cl- Cl- Cl- 
Cl- Cl- Cl- Cl- Cl- Cl- Cl- Cl- Cl- OW  HW  HW  EP  OW  HW  HW  EP  OW  HW  HW  
EP  OW  HW  HW  EP  OW  HW  HW  EP  OW  HW  HW  EP  OW  HW  HW  EP  OW  HW  HW  
EP  OW  HW  HW  EP  OW  HW  HW  EP  OW  HW  HW  EP  OW  HW  HW  EP  OW  HW  HW  
EP  OW  HW  HW  EP  OW  HW  HW  EP  OW  HW  HW  EP  OW  HW  HW  EP  OW  HW  HW  
EP  OW  HW  HW  EP  OW  HW  HW  EP  OW  HW  HW  EP  OW  HW  HW  EP  OW  HW  HW  
EP  OW  HW  HW  EP  OW  HW  HW  EP  OW  HW  HW  EP  OW  HW  HW  EP  OW  HW  HW  
EP  OW  HW  HW  EP  OW  HW  HW  EP  OW  HW  HW  EP  OW  HW  HW  EP  OW  HW  HW  
EP  OW  HW  HW  EP  OW  HW  HW  EP  OW  HW  HW  EP  OW  HW  HW  EP  OW  HW  HW  
EP  OW  HW  HW  EP  OW  HW  HW  EP  OW  HW  HW  EP  OW  HW  HW  EP  OW  HW  HW  
EP  OW  HW  HW  EP  OW  HW  HW  EP  OW  HW  HW  EP  OW  HW  HW  EP  OW  HW  HW  
EP  OW  HW  HW  EP  OW  HW  HW  EP  OW  HW  HW  EP  OW  HW  HW  EP  OW  HW  HW  
EP  OW  HW  HW  EP  OW  HW  HW  EP  OW  HW  HW  EP  OW  HW  HW  EP  OW  HW  HW  
EP  OW  HW  HW  EP  OW  HW  HW  EP  OW  HW  HW  EP  OW  HW  HW  EP  OW  HW  HW  
EP  OW  HW  HW  EP  OW  HW  HW  EP  OW  HW  HW  EP  OW  HW  HW  EP  OW  HW  HW  
EP  OW  HW  HW  EP  OW  HW  HW  EP  OW  HW  HW  EP  OW  HW  HW  EP  OW  HW  HW  
EP  OW  HW  HW  EP  OW  HW  HW  EP  OW  HW  HW  EP  OW  HW  HW  EP  OW  HW  HW  
EP  OW  HW  HW  EP  OW  HW  HW  EP  OW  HW  HW  EP  OW  HW  HW  EP  OW  HW  HW  
EP  OW  HW  HW  EP  OW  HW  HW  EP  OW  HW  HW  EP  OW  HW  HW  EP  OW  HW  HW  
EP  OW  HW  HW  EP  OW  HW  HW  EP  OW  HW  HW  EP  OW  HW  HW  EP  OW  HW  HW  
EP  OW  HW  HW  EP  OW  HW  HW  EP  OW  HW  HW  EP  OW  HW  HW  EP  OW  HW  HW  
EP  OW  HW  HW  EP  OW  HW  HW  EP  OW  HW  HW  EP  OW  HW  HW  EP  OW  HW  HW  
EP  OW  HW  HW  EP  OW  HW  HW  EP  OW  HW  HW  EP  OW  HW  HW  EP  OW  HW  HW  
EP  OW  HW  HW  EP  OW  HW  HW  EP  OW  HW  HW  EP  OW  HW  HW  EP  OW  HW  HW  
EP  OW  HW  HW  EP  OW  HW  HW  EP  OW  HW  HW  EP  OW  HW  HW  EP  OW  HW  HW  
EP  OW  HW  HW  EP  OW  HW  HW  EP  OW  HW  HW  EP  OW  HW  HW  EP  OW  HW  HW  
EP  OW  HW  HW  EP  OW  HW  HW  EP  OW  HW  HW  EP  OW  HW  HW  EP  OW  HW  HW  
EP  OW  HW  HW  EP  OW  HW  HW  EP  OW  HW  HW  EP  OW  HW  HW  EP  OW  HW  HW  
EP  OW  HW  HW  EP  OW  HW  HW  EP  OW  HW  HW  EP  OW  HW  HW  EP  OW  HW  HW  
EP  OW  HW  HW  EP  OW  HW  HW  EP  OW  HW  HW  EP  OW  HW  HW  EP  OW  HW  HW  
EP  OW  HW  HW  EP  OW  HW  HW  EP  OW  HW  HW  EP  OW  HW  HW  EP  OW  HW  HW  
EP  OW  HW  HW  EP  OW  HW  HW  EP  OW  HW  HW  EP  OW  HW  HW  EP  OW  HW  HW  
EP  OW  HW  HW  EP  OW  HW  HW  EP  OW  HW  HW  EP  OW  HW  HW  EP  OW  HW  HW  
EP  OW  HW  HW  EP  OW  HW  HW  EP  OW  HW  HW  EP  OW  HW  HW  EP  OW  HW  HW  
EP  OW  HW  HW  EP  OW  HW  HW  EP  OW  HW  HW  EP  OW  HW  HW  EP  OW  HW  HW  
EP  OW  HW  HW  EP  OW  HW  HW  EP  OW  HW  HW  EP  OW  HW  HW  EP  OW  HW  HW  
EP  OW  HW  HW  EP  OW  HW  HW  EP  OW  HW  HW  EP  OW  HW  HW  EP  OW  HW  HW  
EP  OW  HW  HW  EP  OW  HW  HW  EP  OW  HW  HW  EP  OW  HW  HW  EP  OW  HW  HW  
EP  OW  HW  HW  EP  OW  HW  HW  EP  OW  HW  HW  EP  OW  HW  HW  EP  OW  HW  HW  
EP  OW  HW  HW  EP  OW  HW  HW  EP  OW  HW  HW  EP  OW  HW  HW  EP  OW  HW  HW  
EP  OW  HW  HW  EP  OW  HW  HW  EP  OW  HW  HW  EP  OW  HW  HW  EP  OW  HW  HW  
EP  OW  HW  HW  EP  OW  HW  HW  EP  OW  HW  HW  EP  OW  HW  HW  EP  OW  HW  HW  
EP  OW  HW  HW  EP  OW  HW  HW  EP  OW  HW  HW  EP  OW  HW  HW  EP  OW  HW  HW  
EP  OW  HW  HW  EP  OW  HW  HW  EP  OW  HW  HW  EP  OW  HW  HW  EP  OW  HW  HW  
EP  OW  HW  HW  EP  OW  HW  HW  EP  OW  HW  HW  EP  OW  HW  HW  EP  OW  HW  HW  
EP  OW  HW  HW  EP  OW  HW  HW  EP  OW  HW  HW  EP  OW  HW  HW  EP  OW  HW  HW  
EP  OW  HW  HW  EP  OW  HW  HW  EP  OW  HW  HW  EP  OW  HW  HW  EP  OW  HW  HW  
EP  OW  HW  HW  EP  OW  HW  HW  EP  OW  HW  HW  EP  OW  HW  HW  EP  OW  HW  HW  
EP  OW  HW  HW  EP  OW  HW  HW  EP  OW  HW  HW  EP  OW  HW  HW  EP  OW  HW  HW  
EP  OW  HW  HW  EP  OW  HW  HW  EP  OW  HW  HW  EP  OW  HW  HW  EP  OW  HW  HW  
EP  OW  HW  HW  EP  OW  HW  HW  EP  OW  HW  HW  EP  OW  HW  HW  EP  OW  HW  HW  
EP  OW  HW  HW  EP  OW  HW  HW  EP  OW  HW  HW  EP  OW  HW  HW  EP  OW  HW  HW  
EP  OW  HW  HW  EP  OW  HW  HW  EP  OW  HW  HW  EP  OW  HW  HW  EP  OW  HW  HW  
EP  OW  HW  HW  EP  OW  HW  HW  EP  OW  HW  HW  EP  OW  HW  HW  EP  OW  HW  HW  
EP  OW  HW  HW  EP  OW  HW  HW  EP  OW  HW  HW  EP  OW  HW  HW  EP  OW  HW  HW  
EP  OW  HW  HW  EP  OW  HW  HW  EP  OW  HW  HW  EP  OW  HW  HW  EP  OW  HW  HW  
EP  OW  HW  HW  EP  OW  HW  HW  EP  OW  HW  HW  EP  OW  HW  HW  EP  OW  HW  HW  
EP  OW  HW  HW  EP  OW  HW  HW  EP  OW  HW  HW  EP  OW  HW  HW  EP  OW  HW  HW  
EP  OW  HW  HW  EP  OW  HW  HW  EP  OW  HW  HW  EP  OW  HW  HW  EP  OW  HW  HW  
EP  OW  HW  HW  EP  OW  HW  HW  EP  OW  HW  HW  EP  OW  HW  HW  EP  OW  HW  HW  
EP  OW  HW  HW  EP  OW  HW  HW  EP  OW  HW  HW  EP  OW  HW  HW  EP  OW  HW  HW  
EP  OW  HW  HW  EP  OW  HW  HW  EP  OW  HW  HW  EP  OW  HW  HW  EP  OW  HW  HW  
EP  OW  HW  HW  EP  OW  HW  HW  EP  OW  HW  HW  EP  OW  HW  HW  EP  OW  HW  HW  
EP  OW  HW  HW  EP  OW  HW  HW  EP  OW  HW  HW  EP  OW  HW  HW  EP  OW  HW  HW  
EP  OW  HW  HW  EP  OW  HW  HW  EP  OW  HW  HW  EP  OW  HW  HW  EP  OW  HW  HW  
EP  OW  HW  HW  EP  OW  HW  HW  EP  OW  HW  HW  EP  OW  HW  HW  EP  OW  HW  HW  
EP  OW  HW  HW  EP  OW  HW  HW  EP  OW  HW  HW  EP  OW  HW  HW  EP  OW  HW  HW  
EP  OW  HW  HW  EP  OW  HW  HW  EP  OW  HW  HW  EP  OW  HW  HW  EP  OW  HW  HW  
EP  OW  HW  HW  EP  OW  HW  HW  EP  OW  HW  HW  EP  OW  HW  HW  EP  OW  HW  HW  
EP  OW  HW  HW  EP  OW  HW  HW  EP  OW  HW  HW  EP  OW  HW  HW  EP  OW  HW  HW  
EP  OW  HW  HW  EP  OW  HW  HW  EP  OW  HW  HW  EP  OW  HW  HW  EP  OW  HW  HW  
EP  OW  HW  HW  EP  OW  HW  HW  EP  OW  HW  HW  EP  OW  HW  HW  EP  OW  HW  HW  
EP  OW  HW  HW  EP  OW  HW  HW  EP  OW  HW  HW  EP  OW  HW  HW  EP  OW  HW  HW  
EP  OW  HW  HW  EP  OW  HW  HW  EP  OW  HW  HW  EP  OW  HW  HW  EP  OW  HW  HW  
EP  OW  HW  HW  EP  OW  HW  HW  EP  OW  HW  HW  EP  OW  HW  HW  EP  OW  HW  HW  
EP  OW  HW  HW  EP  OW  HW  HW  EP  OW  HW  HW  EP  OW  HW  HW  EP  OW  HW  HW  
EP  OW  HW  HW  EP  OW  HW  HW  EP  OW  HW  HW  EP  OW  HW  HW  EP  OW  HW  HW  
EP  OW  HW  HW  EP  OW  HW  HW  EP  OW  HW  HW  EP  OW  HW  HW  EP  OW  HW  HW  
EP  OW  HW  HW  EP  OW  HW  HW  EP  OW  HW  HW  EP  OW  HW  HW  EP  OW  HW  HW  
EP  OW  HW  HW  EP  OW  HW  HW  EP  OW  HW  HW  EP  OW  HW  HW  EP  OW  HW  HW  
EP  OW  HW  HW  EP  OW  HW  HW  EP  OW  HW  HW  EP  OW  HW  HW  EP  OW  HW  HW  
EP  OW  HW  HW  EP  OW  HW  HW  EP  OW  HW  HW  EP  OW  HW  HW  EP  OW  HW  HW  
EP  OW  HW  HW  EP  OW  HW  HW  EP  OW  HW  HW  EP  OW  HW  HW  EP  OW  HW  HW  
EP  OW  HW  HW  EP  OW  HW  HW  EP  OW  HW  HW  EP  OW  HW  HW  EP  OW  HW  HW  
EP  OW  HW  HW  EP  OW  HW  HW  EP  OW  HW  HW  EP  OW  HW  HW  EP  OW  HW  HW  
EP  OW  HW  HW  EP  OW  HW  HW  EP  OW  HW  HW  EP  OW  HW  HW  EP  OW  HW  HW  
EP  OW  HW  HW  EP  OW  HW  HW  EP  OW  HW  HW  EP  OW  HW  HW  EP  OW  HW  HW  
EP  OW  HW  HW  EP  OW  HW  HW  EP  OW  HW  HW  EP  OW  HW  HW  EP  OW  HW  HW  
EP  OW  HW  HW  EP  OW  HW  HW  EP  OW  HW  HW  EP  OW  HW  HW  EP  OW  HW  HW  
EP  OW  HW  HW  EP  OW  HW  HW  EP  OW  HW  HW  EP  OW  HW  HW  EP  OW  HW  HW  
EP  OW  HW  HW  EP  OW  HW  HW  EP  OW  HW  HW  EP  OW  HW  HW  EP  OW  HW  HW  
EP  OW  HW  HW  EP  OW  HW  HW  EP  OW  HW  HW  EP  OW  HW  HW  EP  OW  HW  HW  
EP  OW  HW  HW  EP  OW  HW  HW  EP  OW  HW  HW  EP  OW  HW  HW  EP  OW  HW  HW  
EP  OW  HW  HW  EP  OW  HW  HW  EP  OW  HW  HW  EP  OW  HW  HW  EP  OW  HW  HW  
EP  OW  HW  HW  EP  OW  HW  HW  EP  OW  HW  HW  EP  OW  HW  HW  EP  OW  HW  HW  
EP  OW  HW  HW  EP  OW  HW  HW  EP  OW  HW  HW  EP  OW  HW  HW  EP  OW  HW  HW  
EP  OW  HW  HW  EP  OW  HW  HW  EP  OW  HW  HW  EP  OW  HW  HW  EP  OW  HW  HW  
EP  OW  HW  HW  EP  OW  HW  HW  EP  OW  HW  HW  EP  OW  HW  HW  EP  OW  HW  HW  
EP  OW  HW  HW  EP  OW  HW  HW  EP  OW  HW  HW  EP  OW  HW  HW  EP  OW  HW  HW  
EP  OW  HW  HW  EP  OW  HW  HW  EP  OW  HW  HW  EP  OW  HW  HW  EP  OW  HW  HW  
EP  OW  HW  HW  EP  OW  HW  HW  EP  OW  HW  HW  EP  OW  HW  HW  EP  OW  HW  HW  
EP  OW  HW  HW  EP  OW  HW  HW  EP  OW  HW  HW  EP  OW  HW  HW  EP  OW  HW  HW  
EP  OW  HW  HW  EP  OW  HW  HW  EP  OW  HW  HW  EP  OW  HW  HW  EP  OW  HW  HW  
EP  OW  HW  HW  EP  OW  HW  HW  EP  OW  HW  HW  EP  OW  HW  HW  EP  OW  HW  HW  
EP  OW  HW  HW  EP  OW  HW  HW  EP  OW  HW  HW  EP  OW  HW  HW  EP  OW  HW  HW  
EP  OW  HW  HW  EP  OW  HW  HW  EP  OW  HW  HW  EP  OW  HW  HW  EP  OW  HW  HW  
EP  OW  HW  HW  EP  OW  HW  HW  EP  OW  HW  HW  EP  OW  HW  HW  EP  OW  HW  HW  
EP  OW  HW  HW  EP  OW  HW  HW  EP  OW  HW  HW  EP  OW  HW  HW  EP  OW  HW  HW  
EP  OW  HW  HW  EP  OW  HW  HW  EP  OW  HW  HW  EP  OW  HW  HW  EP  OW  HW  HW  
EP  OW  HW  HW  EP  OW  HW  HW  EP  OW  HW  HW  EP  OW  HW  HW  EP  OW  HW  HW  
EP  OW  HW  HW  EP  OW  HW  HW  EP  OW  HW  HW  EP  OW  HW  HW  EP  OW  HW  HW  
EP  OW  HW  HW  EP  OW  HW  HW  EP  OW  HW  HW  EP  OW  HW  HW  EP  OW  HW  HW  
EP  OW  HW  HW  EP  OW  HW  HW  EP  OW  HW  HW  EP  OW  HW  HW  EP  OW  HW  HW  
EP  OW  HW  HW  EP  OW  HW  HW  EP  OW  HW  HW  EP  OW  HW  HW  EP  OW  HW  HW  
EP  OW  HW  HW  EP  OW  HW  HW  EP  OW  HW  HW  EP  OW  HW  HW  EP  OW  HW  HW  
EP  OW  HW  HW  EP  OW  HW  HW  EP  OW  HW  HW  EP  OW  HW  HW  EP  OW  HW  HW  
EP  OW  HW  HW  EP  OW  HW  HW  EP  OW  HW  HW  EP  OW  HW  HW  EP  OW  HW  HW  
EP  OW  HW  HW  EP  OW  HW  HW  EP  OW  HW  HW  EP  OW  HW  HW  EP  OW  HW  HW  
EP  OW  HW  HW  EP  OW  HW  HW  EP  OW  HW  HW  EP  OW  HW  HW  EP  OW  HW  HW  
EP  OW  HW  HW  EP  OW  HW  HW  EP  OW  HW  HW  EP  OW  HW  HW  EP  OW  HW  HW  
EP  OW  HW  HW  EP  OW  HW  HW  EP  OW  HW  HW  EP  OW  HW  HW  EP  OW  HW  HW  
EP  OW  HW  HW  EP  OW  HW  HW  EP  OW  HW  HW  EP  OW  HW  HW  EP  OW  HW  HW  
EP  OW  HW  HW  EP  OW  HW  HW  EP  OW  HW  HW  EP  OW  HW  HW  EP  OW  HW  HW  
EP  OW  HW  HW  EP  OW  HW  HW  EP  OW  HW  HW  EP  OW  HW  HW  EP  OW  HW  HW  
EP  OW  HW  HW  EP  OW  HW  HW  EP  OW  HW  HW  EP  OW  HW  HW  EP  OW  HW  HW  
EP  OW  HW  HW  EP  OW  HW  HW  EP  OW  HW  HW  EP  OW  HW  HW  EP  OW  HW  HW  
EP  OW  HW  HW  EP  OW  HW  HW  EP  OW  HW  HW  EP  OW  HW  HW  EP  OW  HW  HW  
EP  OW  HW  HW  EP  OW  HW  HW  EP  OW  HW  HW  EP  OW  HW  HW  EP  OW  HW  HW  
EP  OW  HW  HW  EP  OW  HW  HW  EP  OW  HW  HW  EP  OW  HW  HW  EP  OW  HW  HW  
EP  OW  HW  HW  EP  OW  HW  HW  EP  OW  HW  HW  EP  OW  HW  HW  EP  OW  HW  HW  
EP  OW  HW  HW  EP  OW  HW  HW  EP  OW  HW  HW  EP  OW  HW  HW  EP  OW  HW  HW  
EP  OW  HW  HW  EP  OW  HW  HW  EP  OW  HW  HW  EP  OW  HW  HW  EP  OW  HW  HW  
EP  OW  HW  HW  EP  OW  HW  HW  EP  OW  HW  HW  EP  OW  HW  HW  EP  OW  HW  HW  
EP  OW  HW  HW  EP  OW  HW  HW  EP  OW  HW  HW  EP  OW  HW  HW  EP  OW  HW  HW  
EP  OW  HW  HW  EP  OW  HW  HW  EP  OW  HW  HW  EP  OW  HW  HW  EP  OW  HW  HW  
EP  OW  HW  HW  EP  OW  HW  HW  EP  OW  HW  HW  EP  OW  HW  HW  EP  OW  HW  HW  
EP  OW  HW  HW  EP  OW  HW  HW  EP  OW  HW  HW  EP  OW  HW  HW  EP  OW  HW  HW  
EP  OW  HW  HW  EP  OW  HW  HW  EP  OW  HW  HW  EP  OW  HW  HW  EP  OW  HW  HW  
EP  OW  HW  HW  EP  OW  HW  HW  EP  OW  HW  HW  EP  OW  HW  HW  EP  OW  HW  HW  
EP  OW  HW  HW  EP  OW  HW  HW  EP  OW  HW  HW  EP  OW  HW  HW  EP  OW  HW  HW  
EP  OW  HW  HW  EP  OW  HW  HW  EP  OW  HW  HW  EP  OW  HW  HW  EP  OW  HW  HW  
EP  OW  HW  HW  EP  OW  HW  HW  EP  OW  HW  HW  EP  OW  HW  HW  EP  OW  HW  HW  
EP  OW  HW  HW  EP  OW  HW  HW  EP  OW  HW  HW  EP  OW  HW  HW  EP  OW  HW  HW  
EP  OW  HW  HW  EP  OW  HW  HW  EP  OW  HW  HW  EP  OW  HW  HW  EP  OW  HW  HW  
EP  OW  HW  HW  EP  OW  HW  HW  EP  OW  HW  HW  EP  OW  HW  HW  EP  OW  HW  HW  
EP  OW  HW  HW  EP  OW  HW  HW  EP  OW  HW  HW  EP  OW  HW  HW  EP  OW  HW  HW  
EP  OW  HW  HW  EP  OW  HW  HW  EP  OW  HW  HW  EP  OW  HW  HW  EP  OW  HW  HW  
EP  OW  HW  HW  EP  OW  HW  HW  EP  OW  HW  HW  EP  OW  HW  HW  EP  OW  HW  HW  
EP  OW  HW  HW  EP  OW  HW  HW  EP  OW  HW  HW  EP  OW  HW  HW  EP  OW  HW  HW  
EP  OW  HW  HW  EP  OW  HW  HW  EP  OW  HW  HW  EP  OW  HW  HW  EP  OW  HW  HW  
EP  OW  HW  HW  EP  OW  HW  HW  EP  OW  HW  HW  EP  OW  HW  HW  EP  OW  HW  HW  
EP  OW  HW  HW  EP  OW  HW  HW  EP  OW  HW  HW  EP  OW  HW  HW  EP  OW  HW  HW  
EP  OW  HW  HW  EP  OW  HW  HW  EP  OW  HW  HW  EP  OW  HW  HW  EP  OW  HW  HW  
EP  OW  HW  HW  EP  OW  HW  HW  EP  OW  HW  HW  EP  OW  HW  HW  EP  OW  HW  HW  
EP  OW  HW  HW  EP  OW  HW  HW  EP  OW  HW  HW  EP  OW  HW  HW  EP  OW  HW  HW  
EP  OW  HW  HW  EP  OW  HW  HW  EP  OW  HW  HW  EP  OW  HW  HW  EP  OW  HW  HW  
EP  OW  HW  HW  EP  OW  HW  HW  EP  OW  HW  HW  EP  OW  HW  HW  EP  OW  HW  HW  
EP  OW  HW  HW  EP  OW  HW  HW  EP  OW  HW  HW  EP  OW  HW  HW  EP  OW  HW  HW  
EP  OW  HW  HW  EP  OW  HW  HW  EP  OW  HW  HW  EP  OW  HW  HW  EP  OW  HW  HW  
EP  OW  HW  HW  EP  OW  HW  HW  EP  OW  HW  HW  EP  OW  HW  HW  EP  OW  HW  HW  
EP  OW  HW  HW  EP  OW  HW  HW  EP  OW  HW  HW  EP  OW  HW  HW  EP  OW  HW  HW  
EP  OW  HW  HW  EP  OW  HW  HW  EP  OW  HW  HW  EP  OW  HW  HW  EP  OW  HW  HW  
EP  OW  HW  HW  EP  OW  HW  HW  EP  OW  HW  HW  EP  OW  HW  HW  EP  OW  HW  HW  
EP  OW  HW  HW  EP  OW  HW  HW  EP  OW  HW  HW  EP  OW  HW  HW  EP  OW  HW  HW  
EP  OW  HW  HW  EP  OW  HW  HW  EP  OW  HW  HW  EP  OW  HW  HW  EP  OW  HW  HW  
EP  OW  HW  HW  EP  OW  HW  HW  EP  OW  HW  HW  EP  OW  HW  HW  EP  OW  HW  HW  
EP  OW  HW  HW  EP  OW  HW  HW  EP  OW  HW  HW  EP  OW  HW  HW  EP  OW  HW  HW  
EP  OW  HW  HW  EP  OW  HW  HW  EP  OW  HW  HW  EP  OW  HW  HW  EP  OW  HW  HW  
EP  OW  HW  HW  EP  OW  HW  HW  EP  OW  HW  HW  EP  OW  HW  HW  EP  OW  HW  HW  
EP  OW  HW  HW  EP  OW  HW  HW  EP  OW  HW  HW  EP  OW  HW  HW  EP  OW  HW  HW  
EP  OW  HW  HW  EP  OW  HW  HW  EP  OW  HW  HW  EP  OW  HW  HW  EP  OW  HW  HW  
EP  OW  HW  HW  EP  OW  HW  HW  EP  OW  HW  HW  EP  OW  HW  HW  EP  OW  HW  HW  
EP  OW  HW  HW  EP  OW  HW  HW  EP  OW  HW  HW  EP  OW  HW  HW  EP  OW  HW  HW  
EP  OW  HW  HW  EP  OW  HW  HW  EP  OW  HW  HW  EP  OW  HW  HW  EP  OW  HW  HW  
EP  OW  HW  HW  EP  OW  HW  HW  EP  OW  HW  HW  EP  OW  HW  HW  EP  OW  HW  HW  
EP  OW  HW  HW  EP  OW  HW  HW  EP  OW  HW  HW  EP  OW  HW  HW  EP  OW  HW  HW  
EP  OW  HW  HW  EP  OW  HW  HW  EP  OW  HW  HW  EP  OW  HW  HW  EP  OW  HW  HW  
EP  OW  HW  HW  EP  OW  HW  HW  EP  OW  HW  HW  EP  OW  HW  HW  EP  OW  HW  HW  
EP  OW  HW  HW  EP  OW  HW  HW  EP  OW  HW  HW  EP  OW  HW  HW  EP  OW  HW  HW  
EP  OW  HW  HW  EP  OW  HW  HW  EP  OW  HW  HW  EP  OW  HW  HW  EP  OW  HW  HW  
EP  OW  HW  HW  EP  OW  HW  HW  EP  OW  HW  HW  EP  OW  HW  HW  EP  OW  HW  HW  
EP  OW  HW  HW  EP  OW  HW  HW  EP  OW  HW  HW  EP  OW  HW  HW  EP  OW  HW  HW  
EP  OW  HW  HW  EP  OW  HW  HW  EP  OW  HW  HW  EP  OW  HW  HW  EP  OW  HW  HW  
EP  OW  HW  HW  EP  OW  HW  HW  EP  OW  HW  HW  EP  OW  HW  HW  EP  OW  HW  HW  
EP  OW  HW  HW  EP  OW  HW  HW  EP  OW  HW  HW  EP  OW  HW  HW  EP  OW  HW  HW  
EP  OW  HW  HW  EP  OW  HW  HW  EP  OW  HW  HW  EP  OW  HW  HW  EP  OW  HW  HW  
EP  OW  HW  HW  EP  OW  HW  HW  EP  OW  HW  HW  EP  OW  HW  HW  EP  OW  HW  HW  
EP  OW  HW  HW  EP  OW  HW  HW  EP  OW  HW  HW  EP  OW  HW  HW  EP  OW  HW  HW  
EP  OW  HW  HW  EP  OW  HW  HW  EP  OW  HW  HW  EP  OW  HW  HW  EP  OW  HW  HW  
EP  OW  HW  HW  EP  OW  HW  HW  EP  OW  HW  HW  EP  OW  HW  HW  EP  OW  HW  HW  
EP  OW  HW  HW  EP  OW  HW  HW  EP  OW  HW  HW  EP  OW  HW  HW  EP  OW  HW  HW  
EP  OW  HW  HW  EP  OW  HW  HW  EP  OW  HW  HW  EP  OW  HW  HW  EP  OW  HW  HW  
EP  OW  HW  HW  EP  OW  HW  HW  EP  OW  HW  HW  EP  OW  HW  HW  EP  OW  HW  HW  
EP  OW  HW  HW  EP  OW  HW  HW  EP  OW  HW  HW  EP  OW  HW  HW  EP  OW  HW  HW  
EP  OW  HW  HW  EP  OW  HW  HW  EP  OW  HW  HW  EP  OW  HW  HW  EP  OW  HW  HW  
EP  OW  HW  HW  EP  OW  HW  HW  EP  OW  HW  HW  EP  OW  HW  HW  EP  OW  HW  HW  
EP  OW  HW  HW  EP  OW  HW  HW  EP  OW  HW  HW  EP  OW  HW  HW  EP  OW  HW  HW  
EP  OW  HW  HW  EP  OW  HW  HW  EP  OW  HW  HW  EP  OW  HW  HW  EP  OW  HW  HW  
EP  OW  HW  HW  EP  OW  HW  HW  EP  OW  HW  HW  EP  OW  HW  HW  EP  OW  HW  HW  
EP  OW  HW  HW  EP  OW  HW  HW  EP  OW  HW  HW  EP  OW  HW  HW  EP  OW  HW  HW  
EP  OW  HW  HW  EP  OW  HW  HW  EP  OW  HW  HW  EP  OW  HW  HW  EP  OW  HW  HW  
EP  OW  HW  HW  EP  OW  HW  HW  EP  OW  HW  HW  EP  OW  HW  HW  EP  OW  HW  HW  
EP  OW  HW  HW  EP  OW  HW  HW  EP  OW  HW  HW  EP  OW  HW  HW  EP  OW  HW  HW  
EP  OW  HW  HW  EP  OW  HW  HW  EP  OW  HW  HW  EP  OW  HW  HW  EP  OW  HW  HW  
EP  OW  HW  HW  EP  OW  HW  HW  EP  OW  HW  HW  EP  OW  HW  HW  EP  OW  HW  HW  
EP  OW  HW  HW  EP  OW  HW  HW  EP  OW  HW  HW  EP  OW  HW  HW  EP  OW  HW  HW  
EP  OW  HW  HW  EP  OW  HW  HW  EP  OW  HW  HW  EP  OW  HW  HW  EP  OW  HW  HW  
EP  OW  HW  HW  EP  OW  HW  HW  EP  OW  HW  HW  EP  OW  HW  HW  EP  OW  HW  HW  
EP  OW  HW  HW  EP  OW  HW  HW  EP  OW  HW  HW  EP  OW  HW  HW  EP  OW  HW  HW  
EP  OW  HW  HW  EP  OW  HW  HW  EP  OW  HW  HW  EP  OW  HW  HW  EP  OW  HW  HW  
EP  OW  HW  HW  EP  OW  HW  HW  EP  OW  HW  HW  EP  OW  HW  HW  EP  OW  HW  HW  
EP  OW  HW  HW  EP  OW  HW  HW  EP  OW  HW  HW  EP  OW  HW  HW  EP  OW  HW  HW  
EP  OW  HW  HW  EP  OW  HW  HW  EP  OW  HW  HW  EP  OW  HW  HW  EP  OW  HW  HW  
EP  OW  HW  HW  EP  OW  HW  HW  EP  OW  HW  HW  EP  OW  HW  HW  EP  OW  HW  HW  
EP  OW  HW  HW  EP  OW  HW  HW  EP  OW  HW  HW  EP  OW  HW  HW  EP  OW  HW  HW  
EP  OW  HW  HW  EP  OW  HW  HW  EP  OW  HW  HW  EP  OW  HW  HW  EP  OW  HW  HW  
EP  OW  HW  HW  EP  OW  HW  HW  EP  OW  HW  HW  EP  OW  HW  HW  EP  OW  HW  HW  
EP  OW  HW  HW  EP  OW  HW  HW  EP  OW  HW  HW  EP  OW  HW  HW  EP  OW  HW  HW  
EP  OW  HW  HW  EP  OW  HW  HW  EP  OW  HW  HW  EP  OW  HW  HW  EP  OW  HW  HW  
EP  OW  HW  HW  EP  OW  HW  HW  EP  OW  HW  HW  EP  OW  HW  HW  EP  OW  HW  HW  
EP  OW  HW  HW  EP  OW  HW  HW  EP  OW  HW  HW  EP  OW  HW  HW  EP  OW  HW  HW  
EP  OW  HW  HW  EP  OW  HW  HW  EP  OW  HW  HW  EP  OW  HW  HW  EP  OW  HW  HW  
EP  OW  HW  HW  EP  OW  HW  HW  EP  OW  HW  HW  EP  OW  HW  HW  EP  OW  HW  HW  
EP  OW  HW  HW  EP  OW  HW  HW  EP  OW  HW  HW  EP  OW  HW  HW  EP  OW  HW  HW  
EP  OW  HW  HW  EP  OW  HW  HW  EP  OW  HW  HW  EP  OW  HW  HW  EP  OW  HW  HW  
EP  OW  HW  HW  EP  OW  HW  HW  EP  OW  HW  HW  EP  OW  HW  HW  EP  OW  HW  HW  
EP  OW  HW  HW  EP  OW  HW  HW  EP  OW  HW  HW  EP  OW  HW  HW  EP  OW  HW  HW  
EP  OW  HW  HW  EP  OW  HW  HW  EP  OW  HW  HW  EP  OW  HW  HW  EP  OW  HW  HW  
EP  OW  HW  HW  EP  OW  HW  HW  EP  OW  HW  HW  EP  OW  HW  HW  EP  OW  HW  HW  
EP  OW  HW  HW  EP  OW  HW  HW  EP  OW  HW  HW  EP  OW  HW  HW  EP  OW  HW  HW  
EP  OW  HW  HW  EP  OW  HW  HW  EP  OW  HW  HW  EP  OW  HW  HW  EP  OW  HW  HW  
EP  OW  HW  HW  EP  OW  HW  HW  EP  OW  HW  HW  EP  OW  HW  HW  EP  OW  HW  HW  
EP  OW  HW  HW  EP  OW  HW  HW  EP  OW  HW  HW  EP  OW  HW  HW  EP  OW  HW  HW  
EP  OW  HW  HW  EP  OW  HW  HW  EP  OW  HW  HW  EP  OW  HW  HW  EP  OW  HW  HW  
EP  OW  HW  HW  EP  OW  HW  HW  EP  OW  HW  HW  EP  OW  HW  HW  EP  OW  HW  HW  
EP  OW  HW  HW  EP  OW  HW  HW  EP  OW  HW  HW  EP  OW  HW  HW  EP  OW  HW  HW  
EP  OW  HW  HW  EP  OW  HW  HW  EP  OW  HW  HW  EP  OW  HW  HW  EP  OW  HW  HW  
EP  OW  HW  HW  EP  OW  HW  HW  EP  OW  HW  HW  EP  OW  HW  HW  EP  OW  HW  HW  
EP  OW  HW  HW  EP  OW  HW  HW  EP  OW  HW  HW  EP  OW  HW  HW  EP  OW  HW  HW  
EP  OW  HW  HW  EP  OW  HW  HW  EP  OW  HW  HW  EP  OW  HW  HW  EP  OW  HW  HW  
EP  OW  HW  HW  EP  OW  HW  HW  EP  OW  HW  HW  EP  OW  HW  HW  EP  OW  HW  HW  
EP  OW  HW  HW  EP  OW  HW  HW  EP  OW  HW  HW  EP  OW  HW  HW  EP  OW  HW  HW  
EP  OW  HW  HW  EP  OW  HW  HW  EP  OW  HW  HW  EP  OW  HW  HW  EP  OW  HW  HW  
EP  OW  HW  HW  EP  OW  HW  HW  EP  OW  HW  HW  EP  OW  HW  HW  EP  OW  HW  HW  
EP  OW  HW  HW  EP  OW  HW  HW  EP  OW  HW  HW  EP  OW  HW  HW  EP  OW  HW  HW  
EP  OW  HW  HW  EP  OW  HW  HW  EP  OW  HW  HW  EP  OW  HW  HW  EP  OW  HW  HW  
EP  OW  HW  HW  EP  OW  HW  HW  EP  OW  HW  HW  EP  OW  HW  HW  EP  OW  HW  HW  
EP  OW  HW  HW  EP  OW  HW  HW  EP  OW  HW  HW  EP  OW  HW  HW  EP  OW  HW  HW  
EP  OW  HW  HW  EP  OW  HW  HW  EP  OW  HW  HW  EP  OW  HW  HW  EP  OW  HW  HW  
EP  OW  HW  HW  EP  OW  HW  HW  EP  OW  HW  HW  EP  OW  HW  HW  EP  OW  HW  HW  
EP  OW  HW  HW  EP  OW  HW  HW  EP  OW  HW  HW  EP  OW  HW  HW  EP  OW  HW  HW  
EP  OW  HW  HW  EP  OW  HW  HW  EP  OW  HW  HW  EP  OW  HW  HW  EP  OW  HW  HW  
EP  OW  HW  HW  EP  OW  HW  HW  EP  OW  HW  HW  EP  OW  HW  HW  EP  OW  HW  HW  
EP  OW  HW  HW  EP  OW  HW  HW  EP  OW  HW  HW  EP  OW  HW  HW  EP  OW  HW  HW  
EP  OW  HW  HW  EP  OW  HW  HW  EP  OW  HW  HW  EP  OW  HW  HW  EP  OW  HW  HW  
EP  OW  HW  HW  EP  OW  HW  HW  EP  OW  HW  HW  EP  OW  HW  HW  EP  OW  HW  HW  
EP  OW  HW  HW  EP  OW  HW  HW  EP  OW  HW  HW  EP  OW  HW  HW  EP  OW  HW  HW  
EP  OW  HW  HW  EP  OW  HW  HW  EP  OW  HW  HW  EP  OW  HW  HW  EP  OW  HW  HW  
EP  OW  HW  HW  EP  OW  HW  HW  EP  OW  HW  HW  EP  OW  HW  HW  EP  OW  HW  HW  
EP  OW  HW  HW  EP  OW  HW  HW  EP  OW  HW  HW  EP  OW  HW  HW  EP  OW  HW  HW  
EP  OW  HW  HW  EP  OW  HW  HW  EP  OW  HW  HW  EP  OW  HW  HW  EP  OW  HW  HW  
EP  OW  HW  HW  EP  OW  HW  HW  EP  OW  HW  HW  EP  OW  HW  HW  EP  OW  HW  HW  
EP  OW  HW  HW  EP  OW  HW  HW  EP  OW  HW  HW  EP  OW  HW  HW  EP  OW  HW  HW  
EP  OW  HW  HW  EP  OW  HW  HW  EP  OW  HW  HW  EP  OW  HW  HW  EP  OW  HW  HW  
EP  OW  HW  HW  EP  OW  HW  HW  EP  OW  HW  HW  EP  OW  HW  HW  EP  OW  HW  HW  
EP  OW  HW  HW  EP  OW  HW  HW  EP  OW  HW  HW  EP  OW  HW  HW  EP  OW  HW  HW  
EP  OW  HW  HW  EP  OW  HW  HW  EP  OW  HW  HW  EP  OW  HW  HW  EP  OW  HW  HW  
EP  OW  HW  HW  EP  OW  HW  HW  EP  OW  HW  HW  EP  OW  HW  HW  EP  OW  HW  HW  
EP  OW  HW  HW  EP  OW  HW  HW  EP  OW  HW  HW  EP  OW  HW  HW  EP  OW  HW  HW  
EP  OW  HW  HW  EP  OW  HW  HW  EP  OW  HW  HW  EP  OW  HW  HW  EP  OW  HW  HW  
EP  OW  HW  HW  EP  OW  HW  HW  EP  OW  HW  HW  EP  OW  HW  HW  EP  OW  HW  HW  
EP  OW  HW  HW  EP  OW  HW  HW  EP  OW  HW  HW  EP  OW  HW  HW  EP  OW  HW  HW  
EP  OW  HW  HW  EP  OW  HW  HW  EP  OW  HW  HW  EP  OW  HW  HW  EP  OW  HW  HW  
EP  OW  HW  HW  EP  OW  HW  HW  EP  OW  HW  HW  EP  OW  HW  HW  EP  OW  HW  HW  
EP  OW  HW  HW  EP  OW  HW  HW  EP  OW  HW  HW  EP  OW  HW  HW  EP  OW  HW  HW  
EP  OW  HW  HW  EP  OW  HW  HW  EP  OW  HW  HW  EP  OW  HW  HW  EP  OW  HW  HW  
EP  OW  HW  HW  EP  OW  HW  HW  EP  OW  HW  HW  EP  OW  HW  HW  EP  OW  HW  HW  
EP  OW  HW  HW  EP  OW  HW  HW  EP  OW  HW  HW  EP  OW  HW  HW  EP  OW  HW  HW  
EP  OW  HW  HW  EP  OW  HW  HW  EP  OW  HW  HW  EP  OW  HW  HW  EP  OW  HW  HW  
EP  OW  HW  HW  EP  OW  HW  HW  EP  OW  HW  HW  EP  OW  HW  HW  EP  OW  HW  HW  
EP  OW  HW  HW  EP  OW  HW  HW  EP  OW  HW  HW  EP  OW  HW  HW  EP  OW  HW  HW  
EP  OW  HW  HW  EP  OW  HW  HW  EP  OW  HW  HW  EP  OW  HW  HW  EP  OW  HW  HW  
EP  OW  HW  HW  EP  OW  HW  HW  EP  OW  HW  HW  EP  OW  HW  HW  EP  OW  HW  HW  
EP  OW  HW  HW  EP  OW  HW  HW  EP  OW  HW  HW  EP  OW  HW  HW  EP  OW  HW  HW  
EP  OW  HW  HW  EP  OW  HW  HW  EP  OW  HW  HW  EP  OW  HW  HW  EP  OW  HW  HW  
EP  OW  HW  HW  EP  OW  HW  HW  EP  OW  HW  HW  EP  OW  HW  HW  EP  OW  HW  HW  
EP  OW  HW  HW  EP  OW  HW  HW  EP  OW  HW  HW  EP  OW  HW  HW  EP  OW  HW  HW  
EP  OW  HW  HW  EP  OW  HW  HW  EP  OW  HW  HW  EP  OW  HW  HW  EP  OW  HW  HW  
EP  OW  HW  HW  EP  OW  HW  HW  EP  OW  HW  HW  EP  OW  HW  HW  EP  OW  HW  HW  
EP  OW  HW  HW  EP  OW  HW  HW  EP  OW  HW  HW  EP  OW  HW  HW  EP  OW  HW  HW  
EP  OW  HW  HW  EP  OW  HW  HW  EP  OW  HW  HW  EP  OW  HW  HW  EP  OW  HW  HW  
EP  OW  HW  HW  EP  OW  HW  HW  EP  OW  HW  HW  EP  OW  HW  HW  EP  OW  HW  HW  
EP  OW  HW  HW  EP  OW  HW  HW  EP  OW  HW  HW  EP  OW  HW  HW  EP  OW  HW  HW  
EP  OW  HW  HW  EP  OW  HW  HW  EP  OW  HW  HW  EP  OW  HW  HW  EP  OW  HW  HW  
EP  OW  HW  HW  EP  OW  HW  HW  EP  OW  HW  HW  EP  OW  HW  HW  EP  OW  HW  HW  
EP  OW  HW  HW  EP  OW  HW  HW  EP  OW  HW  HW  EP  OW  HW  HW  EP  OW  HW  HW  
EP  OW  HW  HW  EP  OW  HW  HW  EP  OW  HW  HW  EP  OW  HW  HW  EP  OW  HW  HW  
EP  OW  HW  HW  EP  OW  HW  HW  EP  OW  HW  HW  EP  OW  HW  HW  EP  OW  HW  HW  
EP  OW  HW  HW  EP  OW  HW  HW  EP  OW  HW  HW  EP  OW  HW  HW  EP  OW  HW  HW  
EP  OW  HW  HW  EP  OW  HW  HW  EP  OW  HW  HW  EP  OW  HW  HW  EP  OW  HW  HW  
EP  OW  HW  HW  EP  OW  HW  HW  EP  OW  HW  HW  EP  OW  HW  HW  EP  OW  HW  HW  
EP  OW  HW  HW  EP  OW  HW  HW  EP  OW  HW  HW  EP  OW  HW  HW  EP  OW  HW  HW  
EP  OW  HW  HW  EP  OW  HW  HW  EP  OW  HW  HW  EP  OW  HW  HW  EP  OW  HW  HW  
EP  OW  HW  HW  EP  OW  HW  HW  EP  OW  HW  HW  EP  OW  HW  HW  EP  OW  HW  HW  
EP  OW  HW  HW  EP  OW  HW  HW  EP  OW  HW  HW  EP  OW  HW  HW  EP  OW  HW  HW  
EP  OW  HW  HW  EP  OW  HW  HW  EP  OW  HW  HW  EP  OW  HW  HW  EP  OW  HW  HW  
EP  OW  HW  HW  EP  OW  HW  HW  EP  OW  HW  HW  EP  OW  HW  HW  EP  OW  HW  HW  
EP  OW  HW  HW  EP  OW  HW  HW  EP  OW  HW  HW  EP  OW  HW  HW  EP  OW  HW  HW  
EP  OW  HW  HW  EP  OW  HW  HW  EP  OW  HW  HW  EP  OW  HW  HW  EP  OW  HW  HW  
EP  OW  HW  HW  EP  OW  HW  HW  EP  OW  HW  HW  EP  OW  HW  HW  EP  OW  HW  HW  
EP  OW  HW  HW  EP  OW  HW  HW  EP  OW  HW  HW  EP  OW  HW  HW  EP  OW  HW  HW  
EP  OW  HW  HW  EP  OW  HW  HW  EP  OW  HW  HW  EP  OW  HW  HW  EP  OW  HW  HW  
EP  OW  HW  HW  EP  OW  HW  HW  EP  OW  HW  HW  EP  OW  HW  HW  EP  OW  HW  HW  
EP  OW  HW  HW  EP  OW  HW  HW  EP  OW  HW  HW  EP  OW  HW  HW  EP  OW  HW  HW  
EP  OW  HW  HW  EP  OW  HW  HW  EP  OW  HW  HW  EP  OW  HW  HW  EP  OW  HW  HW  
EP  OW  HW  HW  EP  OW  HW  HW  EP  OW  HW  HW  EP  OW  HW  HW  EP  OW  HW  HW  
EP  OW  HW  HW  EP  OW  HW  HW  EP  OW  HW  HW  EP  OW  HW  HW  EP  OW  HW  HW  
EP  OW  HW  HW  EP  OW  HW  HW  EP  OW  HW  HW  EP  OW  HW  HW  EP  OW  HW  HW  
EP  OW  HW  HW  EP  OW  HW  HW  EP  OW  HW  HW  EP  OW  HW  HW  EP  OW  HW  HW  
EP  OW  HW  HW  EP  OW  HW  HW  EP  OW  HW  HW  EP  OW  HW  HW  EP  OW  HW  HW  
EP  OW  HW  HW  EP  OW  HW  HW  EP  OW  HW  HW  EP  OW  HW  HW  EP  OW  HW  HW  
EP  OW  HW  HW  EP  OW  HW  HW  EP  OW  HW  HW  EP  OW  HW  HW  EP  OW  HW  HW  
EP  OW  HW  HW  EP  OW  HW  HW  EP  OW  HW  HW  EP  OW  HW  HW  EP  OW  HW  HW  
EP  OW  HW  HW  EP  OW  HW  HW  EP  OW  HW  HW  EP  OW  HW  HW  EP  OW  HW  HW  
EP  OW  HW  HW  EP  OW  HW  HW  EP  OW  HW  HW  EP  OW  HW  HW  EP  OW  HW  HW  
EP  OW  HW  HW  EP  OW  HW  HW  EP  OW  HW  HW  EP  OW  HW  HW  EP  OW  HW  HW  
EP  OW  HW  HW  EP  OW  HW  HW  EP  OW  HW  HW  EP  OW  HW  HW  EP  OW  HW  HW  
EP  OW  HW  HW  EP  OW  HW  HW  EP  OW  HW  HW  EP  OW  HW  HW  EP  OW  HW  HW  
EP  OW  HW  HW  EP  OW  HW  HW  EP  OW  HW  HW  EP  OW  HW  HW  EP  OW  HW  HW  
EP  OW  HW  HW  EP  OW  HW  HW  EP  OW  HW  HW  EP  OW  HW  HW  EP  OW  HW  HW  
EP  OW  HW  HW  EP  OW  HW  HW  EP  OW  HW  HW  EP  OW  HW  HW  EP  OW  HW  HW  
EP  OW  HW  HW  EP  OW  HW  HW  EP  OW  HW  HW  EP  OW  HW  HW  EP  OW  HW  HW  
EP  OW  HW  HW  EP  OW  HW  HW  EP  OW  HW  HW  EP  OW  HW  HW  EP  OW  HW  HW  
EP  OW  HW  HW  EP  OW  HW  HW  EP  OW  HW  HW  EP  OW  HW  HW  EP  OW  HW  HW  
EP  OW  HW  HW  EP  OW  HW  HW  EP  OW  HW  HW  EP  OW  HW  HW  EP  OW  HW  HW  
EP  OW  HW  HW  EP  OW  HW  HW  EP  OW  HW  HW  EP  OW  HW  HW  EP  OW  HW  HW  
EP  OW  HW  HW  EP  OW  HW  HW  EP  OW  HW  HW  EP  OW  HW  HW  EP  OW  HW  HW  
EP  OW  HW  HW  EP  OW  HW  HW  EP  OW  HW  HW  EP  OW  HW  HW  EP  OW  HW  HW  
EP  OW  HW  HW  EP  OW  HW  HW  EP  OW  HW  HW  EP  OW  HW  HW  EP  OW  HW  HW  
EP  OW  HW  HW  EP  OW  HW  HW  EP  OW  HW  HW  EP  OW  HW  HW  EP  OW  HW  HW  
EP  OW  HW  HW  EP  OW  HW  HW  EP  OW  HW  HW  EP  OW  HW  HW  EP  OW  HW  HW  
EP  OW  HW  HW  EP  OW  HW  HW  EP  OW  HW  HW  EP  OW  HW  HW  EP  OW  HW  HW  
EP  OW  HW  HW  EP  OW  HW  HW  EP  OW  HW  HW  EP  OW  HW  HW  EP  OW  HW  HW  
EP  OW  HW  HW  EP  OW  HW  HW  EP  OW  HW  HW  EP  OW  HW  HW  EP  OW  HW  HW  
EP  OW  HW  HW  EP  OW  HW  HW  EP  OW  HW  HW  EP  OW  HW  HW  EP  OW  HW  HW  
EP  OW  HW  HW  EP  OW  HW  HW  EP  OW  HW  HW  EP  OW  HW  HW  EP  OW  HW  HW  
EP  OW  HW  HW  EP  OW  HW  HW  EP  OW  HW  HW  EP  OW  HW  HW  EP  OW  HW  HW  
EP  OW  HW  HW  EP  OW  HW  HW  EP  OW  HW  HW  EP  OW  HW  HW  EP  OW  HW  HW  
EP  OW  HW  HW  EP  OW  HW  HW  EP  OW  HW  HW  EP  OW  HW  HW  EP  OW  HW  HW  
EP  OW  HW  HW  EP  OW  HW  HW  EP  OW  HW  HW  EP  OW  HW  HW  EP  OW  HW  HW  
EP  OW  HW  HW  EP  OW  HW  HW  EP  OW  HW  HW  EP  OW  HW  HW  EP  OW  HW  HW  
EP  OW  HW  HW  EP  OW  HW  HW  EP  OW  HW  HW  EP  OW  HW  HW  EP  OW  HW  HW  
EP  OW  HW  HW  EP  OW  HW  HW  EP  OW  HW  HW  EP  OW  HW  HW  EP  OW  HW  HW  
EP  OW  HW  HW  EP  OW  HW  HW  EP  OW  HW  HW  EP  OW  HW  HW  EP  OW  HW  HW  
EP  OW  HW  HW  EP  OW  HW  HW  EP  OW  HW  HW  EP  OW  HW  HW  EP  OW  HW  HW  
EP  OW  HW  HW  EP  OW  HW  HW  EP  OW  HW  HW  EP  OW  HW  HW  EP  OW  HW  HW  
EP  OW  HW  HW  EP  OW  HW  HW  EP  OW  HW  HW  EP  OW  HW  HW  EP  OW  HW  HW  
EP  OW  HW  HW  EP  OW  HW  HW  EP  OW  HW  HW  EP  OW  HW  HW  EP  OW  HW  HW  
EP  OW  HW  HW  EP  OW  HW  HW  EP  OW  HW  HW  EP  OW  HW  HW  EP  OW  HW  HW  
EP  OW  HW  HW  EP  OW  HW  HW  EP  OW  HW  HW  EP  OW  HW  HW  EP  OW  HW  HW  
EP  OW  HW  HW  EP  OW  HW  HW  EP  OW  HW  HW  EP  OW  HW  HW  EP  OW  HW  HW  
EP  OW  HW  HW  EP  OW  HW  HW  EP  OW  HW  HW  EP  OW  HW  HW  EP  OW  HW  HW  
EP  OW  HW  HW  EP  OW  HW  HW  EP  OW  HW  HW  EP  OW  HW  HW  EP  OW  HW  HW  
EP  OW  HW  HW  EP  OW  HW  HW  EP  OW  HW  HW  EP  OW  HW  HW  EP  OW  HW  HW  
EP  OW  HW  HW  EP  OW  HW  HW  EP  OW  HW  HW  EP  OW  HW  HW  EP  OW  HW  HW  
EP  OW  HW  HW  EP  OW  HW  HW  EP  OW  HW  HW  EP  OW  HW  HW  EP  OW  HW  HW  
EP  OW  HW  HW  EP  OW  HW  HW  EP  OW  HW  HW  EP  OW  HW  HW  EP  OW  HW  HW  
EP  OW  HW  HW  EP  OW  HW  HW  EP  OW  HW  HW  EP  OW  HW  HW  EP  OW  HW  HW  
EP  OW  HW  HW  EP  OW  HW  HW  EP  OW  HW  HW  EP  OW  HW  HW  EP  OW  HW  HW  
EP  OW  HW  HW  EP  OW  HW  HW  EP  OW  HW  HW  EP  OW  HW  HW  EP  OW  HW  HW  
EP  OW  HW  HW  EP  OW  HW  HW  EP  OW  HW  HW  EP  OW  HW  HW  EP  OW  HW  HW  
EP  OW  HW  HW  EP  OW  HW  HW  EP  OW  HW  HW  EP  OW  HW  HW  EP  OW  HW  HW  
EP  OW  HW  HW  EP  OW  HW  HW  EP  OW  HW  HW  EP  OW  HW  HW  EP  OW  HW  HW  
EP  OW  HW  HW  EP  OW  HW  HW  EP  OW  HW  HW  EP  OW  HW  HW  EP  OW  HW  HW  
EP  OW  HW  HW  EP  OW  HW  HW  EP  OW  HW  HW  EP  OW  HW  HW  EP  OW  HW  HW  
EP  OW  HW  HW  EP  OW  HW  HW  EP  OW  HW  HW  EP  OW  HW  HW  EP  OW  HW  HW  
EP  OW  HW  HW  EP  OW  HW  HW  EP  OW  HW  HW  EP  OW  HW  HW  EP  OW  HW  HW  
EP  OW  HW  HW  EP  OW  HW  HW  EP  OW  HW  HW  EP  OW  HW  HW  EP  OW  HW  HW  
EP  OW  HW  HW  EP  OW  HW  HW  EP  OW  HW  HW  EP  OW  HW  HW  EP  OW  HW  HW  
EP  OW  HW  HW  EP  OW  HW  HW  EP  OW  HW  HW  EP  OW  HW  HW  EP  OW  HW  HW  
EP  OW  HW  HW  EP  OW  HW  HW  EP  OW  HW  HW  EP  OW  HW  HW  EP  OW  HW  HW  
EP  OW  HW  HW  EP  OW  HW  HW  EP  OW  HW  HW  EP  OW  HW  HW  EP  OW  HW  HW  
EP  OW  HW  HW  EP  OW  HW  HW  EP  OW  HW  HW  EP  OW  HW  HW  EP  OW  HW  HW  
EP  OW  HW  HW  EP  OW  HW  HW  EP  OW  HW  HW  EP  OW  HW  HW  EP  OW  HW  HW  
EP  OW  HW  HW  EP  OW  HW  HW  EP  OW  HW  HW  EP  OW  HW  HW  EP  OW  HW  HW  
EP  OW  HW  HW  EP  OW  HW  HW  EP  OW  HW  HW  EP  OW  HW  HW  EP  OW  HW  HW  
EP  OW  HW  HW  EP  OW  HW  HW  EP  OW  HW  HW  EP  OW  HW  HW  EP  OW  HW  HW  
EP  OW  HW  HW  EP  OW  HW  HW  EP  OW  HW  HW  EP  OW  HW  HW  EP  OW  HW  HW  
EP  OW  HW  HW  EP  OW  HW  HW  EP  OW  HW  HW  EP  OW  HW  HW  EP  OW  HW  HW  
EP  OW  HW  HW  EP  OW  HW  HW  EP  OW  HW  HW  EP  OW  HW  HW  EP  OW  HW  HW  
EP  OW  HW  HW  EP  OW  HW  HW  EP  OW  HW  HW  EP  OW  HW  HW  EP  OW  HW  HW  
EP  OW  HW  HW  EP  OW  HW  HW  EP  OW  HW  HW  EP  OW  HW  HW  EP  OW  HW  HW  
EP  OW  HW  HW  EP  OW  HW  HW  EP  OW  HW  HW  EP  OW  HW  HW  EP  OW  HW  HW  
EP  OW  HW  HW  EP  OW  HW  HW  EP  OW  HW  HW  EP  OW  HW  HW  EP  OW  HW  HW  
EP  OW  HW  HW  EP  OW  HW  HW  EP  OW  HW  HW  EP  OW  HW  HW  EP  OW  HW  HW  
EP  OW  HW  HW  EP  OW  HW  HW  EP  OW  HW  HW  EP  OW  HW  HW  EP  OW  HW  HW  
EP  OW  HW  HW  EP  OW  HW  HW  EP  OW  HW  HW  EP  OW  HW  HW  EP  OW  HW  HW  
EP  OW  HW  HW  EP  OW  HW  HW  EP  OW  HW  HW  EP  OW  HW  HW  EP  OW  HW  HW  
EP  OW  HW  HW  EP  OW  HW  HW  EP  OW  HW  HW  EP  OW  HW  HW  EP  OW  HW  HW  
EP  OW  HW  HW  EP  OW  HW  HW  EP  OW  HW  HW  EP  OW  HW  HW  EP  OW  HW  HW  
EP  OW  HW  HW  EP  OW  HW  HW  EP  OW  HW  HW  EP  OW  HW  HW  EP  OW  HW  HW  
EP  OW  HW  HW  EP  OW  HW  HW  EP  OW  HW  HW  EP  OW  HW  HW  EP  OW  HW  HW  
EP  OW  HW  HW  EP  OW  HW  HW  EP  OW  HW  HW  EP  OW  HW  HW  EP  OW  HW  HW  
EP  OW  HW  HW  EP  OW  HW  HW  EP  OW  HW  HW  EP  OW  HW  HW  EP  OW  HW  HW  
EP  OW  HW  HW  EP  OW  HW  HW  EP  OW  HW  HW  EP  OW  HW  HW  EP  OW  HW  HW  
EP  OW  HW  HW  EP  OW  HW  HW  EP  OW  HW  HW  EP  OW  HW  HW  EP  OW  HW  HW  
EP  OW  HW  HW  EP  OW  HW  HW  EP  OW  HW  HW  EP  OW  HW  HW  EP  OW  HW  HW  
EP  OW  HW  HW  EP  OW  HW  HW  EP  OW  HW  HW  EP  OW  HW  HW  EP  OW  HW  HW  
EP  OW  HW  HW  EP  OW  HW  HW  EP  OW  HW  HW  EP  OW  HW  HW  EP  OW  HW  HW  
EP  OW  HW  HW  EP  OW  HW  HW  EP  OW  HW  HW  EP  OW  HW  HW  EP  OW  HW  HW  
EP  OW  HW  HW  EP  OW  HW  HW  EP  OW  HW  HW  EP  OW  HW  HW  EP  OW  HW  HW  
EP  OW  HW  HW  EP  OW  HW  HW  EP  OW  HW  HW  EP  OW  HW  HW  EP  OW  HW  HW  
EP  OW  HW  HW  EP  OW  HW  HW  EP  OW  HW  HW  EP  OW  HW  HW  EP  OW  HW  HW  
EP  OW  HW  HW  EP  OW  HW  HW  EP  OW  HW  HW  EP  OW  HW  HW  EP  OW  HW  HW  
EP  OW  HW  HW  EP  OW  HW  HW  EP  OW  HW  HW  EP  OW  HW  HW  EP  OW  HW  HW  
EP  OW  HW  HW  EP  OW  HW  HW  EP  OW  HW  HW  EP  OW  HW  HW  EP  OW  HW  HW  
EP  OW  HW  HW  EP  OW  HW  HW  EP  OW  HW  HW  EP  OW  HW  HW  EP  OW  HW  HW  
EP  OW  HW  HW  EP  OW  HW  HW  EP  OW  HW  HW  EP  OW  HW  HW  EP  OW  HW  HW  
EP  OW  HW  HW  EP  OW  HW  HW  EP  OW  HW  HW  EP  OW  HW  HW  EP  OW  HW  HW  
EP  OW  HW  HW  EP  OW  HW  HW  EP  OW  HW  HW  EP  OW  HW  HW  EP  OW  HW  HW  
EP  OW  HW  HW  EP  OW  HW  HW  EP  OW  HW  HW  EP  OW  HW  HW  EP  OW  HW  HW  
EP  OW  HW  HW  EP  OW  HW  HW  EP  OW  HW  HW  EP  OW  HW  HW  EP  OW  HW  HW  
EP  OW  HW  HW  EP  OW  HW  HW  EP  OW  HW  HW  EP  OW  HW  HW  EP  OW  HW  HW  
EP  OW  HW  HW  EP  OW  HW  HW  EP  OW  HW  HW  EP  OW  HW  HW  EP  OW  HW  HW  
EP  OW  HW  HW  EP  OW  HW  HW  EP  OW  HW  HW  EP  OW  HW  HW  EP  OW  HW  HW  
EP  OW  HW  HW  EP  OW  HW  HW  EP  OW  HW  HW  EP  OW  HW  HW  EP  OW  HW  HW  
EP  OW  HW  HW  EP  OW  HW  HW  EP  OW  HW  HW  EP  OW  HW  HW  EP  OW  HW  HW  
EP  OW  HW  HW  EP  OW  HW  HW  EP  OW  HW  HW  EP  OW  HW  HW  EP  OW  HW  HW  
EP  OW  HW  HW  EP  OW  HW  HW  EP  OW  HW  HW  EP  OW  HW  HW  EP  OW  HW  HW  
EP  OW  HW  HW  EP  OW  HW  HW  EP  OW  HW  HW  EP  OW  HW  HW  EP  OW  HW  HW  
EP  OW  HW  HW  EP  OW  HW  HW  EP  OW  HW  HW  EP  OW  HW  HW  EP  OW  HW  HW  
EP  OW  HW  HW  EP  OW  HW  HW  EP  OW  HW  HW  EP  OW  HW  HW  EP  OW  HW  HW  
EP  OW  HW  HW  EP  OW  HW  HW  EP  OW  HW  HW  EP  OW  HW  HW  EP  OW  HW  HW  
EP  OW  HW  HW  EP  OW  HW  HW  EP  OW  HW  HW  EP  OW  HW  HW  EP  OW  HW  HW  
EP  OW  HW  HW  EP  OW  HW  HW  EP  OW  HW  HW  EP  OW  HW  HW  EP  OW  HW  HW  
EP  OW  HW  HW  EP  OW  HW  HW  EP  OW  HW  HW  EP  OW  HW  HW  EP  OW  HW  HW  
EP  OW  HW  HW  EP  OW  HW  HW  EP  OW  HW  HW  EP  OW  HW  HW  EP  OW  HW  HW  
EP  OW  HW  HW  EP  OW  HW  HW  EP  OW  HW  HW  EP  OW  HW  HW  EP  OW  HW  HW  
EP  OW  HW  HW  EP  OW  HW  HW  EP  OW  HW  HW  EP  OW  HW  HW  EP  OW  HW  HW  
EP  OW  HW  HW  EP  OW  HW  HW  EP  OW  HW  HW  EP  OW  HW  HW  EP  OW  HW  HW  
EP  OW  HW  HW  EP  OW  HW  HW  EP  OW  HW  HW  EP  OW  HW  HW  EP  OW  HW  HW  
EP  OW  HW  HW  EP  OW  HW  HW  EP  OW  HW  HW  EP  OW  HW  HW  EP  OW  HW  HW  
EP  OW  HW  HW  EP  OW  HW  HW  EP  OW  HW  HW  EP  OW  HW  HW  EP  OW  HW  HW  
EP  OW  HW  HW  EP  OW  HW  HW  EP  OW  HW  HW  EP  OW  HW  HW  EP  OW  HW  HW  
EP  OW  HW  HW  EP  OW  HW  HW  EP  OW  HW  HW  EP  OW  HW  HW  EP  OW  HW  HW  
EP  OW  HW  HW  EP  OW  HW  HW  EP  OW  HW  HW  EP  OW  HW  HW  EP  OW  HW  HW  
EP  OW  HW  HW  EP  OW  HW  HW  EP  OW  HW  HW  EP  OW  HW  HW  EP  OW  HW  HW  
EP  OW  HW  HW  EP  OW  HW  HW  EP  OW  HW  HW  EP  OW  HW  HW  EP  OW  HW  HW  
EP  OW  HW  HW  EP  OW  HW  HW  EP  OW  HW  HW  EP  OW  HW  HW  EP  OW  HW  HW  
EP  OW  HW  HW  EP  OW  HW  HW  EP  OW  HW  HW  EP  OW  HW  HW  EP  OW  HW  HW  
EP  OW  HW  HW  EP  OW  HW  HW  EP  OW  HW  HW  EP  OW  HW  HW  EP  OW  HW  HW  
EP  OW  HW  HW  EP  OW  HW  HW  EP  OW  HW  HW  EP  OW  HW  HW  EP  OW  HW  HW  
EP  OW  HW  HW  EP  OW  HW  HW  EP  OW  HW  HW  EP  OW  HW  HW  EP  OW  HW  HW  
EP  OW  HW  HW  EP  OW  HW  HW  EP  OW  HW  HW  EP  OW  HW  HW  EP  OW  HW  HW  
EP  OW  HW  HW  EP  OW  HW  HW  EP  OW  HW  HW  EP  OW  HW  HW  EP  OW  HW  HW  
EP  OW  HW  HW  EP  OW  HW  HW  EP  OW  HW  HW  EP  OW  HW  HW  EP  OW  HW  HW  
EP  OW  HW  HW  EP  OW  HW  HW  EP  OW  HW  HW  EP  OW  HW  HW  EP  OW  HW  HW  
EP  OW  HW  HW  EP  OW  HW  HW  EP  OW  HW  HW  EP  OW  HW  HW  EP  OW  HW  HW  
EP  OW  HW  HW  EP  OW  HW  HW  EP  OW  HW  HW  EP  OW  HW  HW  EP  OW  HW  HW  
EP  OW  HW  HW  EP  OW  HW  HW  EP  OW  HW  HW  EP  OW  HW  HW  EP  OW  HW  HW  
EP  OW  HW  HW  EP  OW  HW  HW  EP  OW  HW  HW  EP  OW  HW  HW  EP  OW  HW  HW  
EP  OW  HW  HW  EP  OW  HW  HW  EP  OW  HW  HW  EP  OW  HW  HW  EP  OW  HW  HW  
EP  OW  HW  HW  EP  OW  HW  HW  EP  OW  HW  HW  EP  OW  HW  HW  EP  OW  HW  HW  
EP  OW  HW  HW  EP  OW  HW  HW  EP  OW  HW  HW  EP  OW  HW  HW  EP  OW  HW  HW  
EP  OW  HW  HW  EP  OW  HW  HW  EP  OW  HW  HW  EP  OW  HW  HW  EP  OW  HW  HW  
EP  OW  HW  HW  EP  OW  HW  HW  EP  OW  HW  HW  EP  OW  HW  HW  EP  OW  HW  HW  
EP  OW  HW  HW  EP  OW  HW  HW  EP  OW  HW  HW  EP  OW  HW  HW  EP  OW  HW  HW  
EP  OW  HW  HW  EP  OW  HW  HW  EP  OW  HW  HW  EP  OW  HW  HW  EP  OW  HW  HW  
EP  OW  HW  HW  EP  OW  HW  HW  EP  OW  HW  HW  EP  OW  HW  HW  EP  OW  HW  HW  
EP  OW  HW  HW  EP  OW  HW  HW  EP  OW  HW  HW  EP  OW  HW  HW  EP  OW  HW  HW  
EP  OW  HW  HW  EP  OW  HW  HW  EP  OW  HW  HW  EP  OW  HW  HW  EP  OW  HW  HW  
EP  OW  HW  HW  EP  OW  HW  HW  EP  OW  HW  HW  EP  OW  HW  HW  EP  OW  HW  HW  
EP  OW  HW  HW  EP  OW  HW  HW  EP  OW  HW  HW  EP  OW  HW  HW  EP  OW  HW  HW  
EP  OW  HW  HW  EP  OW  HW  HW  EP  OW  HW  HW  EP  OW  HW  HW  EP  OW  HW  HW  
EP  OW  HW  HW  EP  OW  HW  HW  EP  OW  HW  HW  EP  OW  HW  HW  EP  OW  HW  HW  
EP  OW  HW  HW  EP  OW  HW  HW  EP  OW  HW  HW  EP  OW  HW  HW  EP  OW  HW  HW  
EP  OW  HW  HW  EP  OW  HW  HW  EP  OW  HW  HW  EP  OW  HW  HW  EP  OW  HW  HW  
EP  OW  HW  HW  EP  OW  HW  HW  EP  OW  HW  HW  EP  OW  HW  HW  EP  OW  HW  HW  
EP  OW  HW  HW  EP  OW  HW  HW  EP  OW  HW  HW  EP  OW  HW  HW  EP  OW  HW  HW  
EP  OW  HW  HW  EP  OW  HW  HW  EP  OW  HW  HW  EP  OW  HW  HW  EP  OW  HW  HW  
EP  OW  HW  HW  EP  OW  HW  HW  EP  OW  HW  HW  EP  OW  HW  HW  EP  OW  HW  HW  
EP  OW  HW  HW  EP  OW  HW  HW  EP  OW  HW  HW  EP  OW  HW  HW  EP  OW  HW  HW  
EP  OW  HW  HW  EP  OW  HW  HW  EP  OW  HW  HW  EP  OW  HW  HW  EP  OW  HW  HW  
EP  OW  HW  HW  EP  OW  HW  HW  EP  OW  HW  HW  EP  OW  HW  HW  EP  OW  HW  HW  
EP  OW  HW  HW  EP  OW  HW  HW  EP  OW  HW  HW  EP  OW  HW  HW  EP  OW  HW  HW  
EP  OW  HW  HW  EP  OW  HW  HW  EP  OW  HW  HW  EP  OW  HW  HW  EP  OW  HW  HW  
EP  OW  HW  HW  EP  OW  HW  HW  EP  OW  HW  HW  EP  OW  HW  HW  EP  OW  HW  HW  
EP  OW  HW  HW  EP  OW  HW  HW  EP  OW  HW  HW  EP  OW  HW  HW  EP  OW  HW  HW  
EP  OW  HW  HW  EP  OW  HW  HW  EP  OW  HW  HW  EP  OW  HW  HW  EP  OW  HW  HW  
EP  OW  HW  HW  EP  OW  HW  HW  EP  OW  HW  HW  EP  OW  HW  HW  EP  OW  HW  HW  
EP  OW  HW  HW  EP  OW  HW  HW  EP  OW  HW  HW  EP  OW  HW  HW  EP  OW  HW  HW  
EP  OW  HW  HW  EP  OW  HW  HW  EP  OW  HW  HW  EP  OW  HW  HW  EP  OW  HW  HW  
EP  OW  HW  HW  EP  OW  HW  HW  EP  OW  HW  HW  EP  OW  HW  HW  EP  OW  HW  HW  
EP  OW  HW  HW  EP  OW  HW  HW  EP  OW  HW  HW  EP  OW  HW  HW  EP  OW  HW  HW  
EP  OW  HW  HW  EP  OW  HW  HW  EP  OW  HW  HW  EP  OW  HW  HW  EP  OW  HW  HW  
EP  OW  HW  HW  EP  OW  HW  HW  EP  OW  HW  HW  EP  OW  HW  HW  EP  OW  HW  HW  
EP  OW  HW  HW  EP  OW  HW  HW  EP  OW  HW  HW  EP  OW  HW  HW  EP  OW  HW  HW  
EP  OW  HW  HW  EP  OW  HW  HW  EP  OW  HW  HW  EP  OW  HW  HW  EP  OW  HW  HW  
EP  OW  HW  HW  EP  OW  HW  HW  EP  OW  HW  HW  EP  OW  HW  HW  EP  OW  HW  HW  
EP  OW  HW  HW  EP  OW  HW  HW  EP  OW  HW  HW  EP  OW  HW  HW  EP  OW  HW  HW  
EP  OW  HW  HW  EP  OW  HW  HW  EP  OW  HW  HW  EP  OW  HW  HW  EP  OW  HW  HW  
EP  OW  HW  HW  EP  OW  HW  HW  EP  OW  HW  HW  EP  OW  HW  HW  EP  OW  HW  HW  
EP  OW  HW  HW  EP  OW  HW  HW  EP  OW  HW  HW  EP  OW  HW  HW  EP  OW  HW  HW  
EP  OW  HW  HW  EP  OW  HW  HW  EP  OW  HW  HW  EP  OW  HW  HW  EP  OW  HW  HW  
EP  OW  HW  HW  EP  OW  HW  HW  EP  OW  HW  HW  EP  OW  HW  HW  EP  OW  HW  HW  
EP  OW  HW  HW  EP  OW  HW  HW  EP  OW  HW  HW  EP  OW  HW  HW  EP  OW  HW  HW  
EP  OW  HW  HW  EP  OW  HW  HW  EP  OW  HW  HW  EP  OW  HW  HW  EP  OW  HW  HW  
EP  OW  HW  HW  EP  OW  HW  HW  EP  OW  HW  HW  EP  OW  HW  HW  EP  OW  HW  HW  
EP  OW  HW  HW  EP  OW  HW  HW  EP  OW  HW  HW  EP  OW  HW  HW  EP  OW  HW  HW  
EP  OW  HW  HW  EP  OW  HW  HW  EP  OW  HW  HW  EP  OW  HW  HW  EP  OW  HW  HW  
EP  OW  HW  HW  EP  OW  HW  HW  EP  OW  HW  HW  EP  OW  HW  HW  EP  OW  HW  HW  
EP  OW  HW  HW  EP  OW  HW  HW  EP  OW  HW  HW  EP  OW  HW  HW  EP  OW  HW  HW  
EP  OW  HW  HW  EP  OW  HW  HW  EP  OW  HW  HW  EP  OW  HW  HW  EP  OW  HW  HW  
EP  OW  HW  HW  EP  OW  HW  HW  EP  OW  HW  HW  EP  OW  HW  HW  EP  OW  HW  HW  
EP  OW  HW  HW  EP  OW  HW  HW  EP  OW  HW  HW  EP  OW  HW  HW  EP  OW  HW  HW  
EP  OW  HW  HW  EP  OW  HW  HW  EP  OW  HW  HW  EP  OW  HW  HW  EP  OW  HW  HW  
EP  OW  HW  HW  EP  OW  HW  HW  EP  OW  HW  HW  EP  OW  HW  HW  EP  OW  HW  HW  
EP  OW  HW  HW  EP  OW  HW  HW  EP  OW  HW  HW  EP  OW  HW  HW  EP  OW  HW  HW  
EP  OW  HW  HW  EP  OW  HW  HW  EP  OW  HW  HW  EP  OW  HW  HW  EP  OW  HW  HW  
EP  OW  HW  HW  EP  OW  HW  HW  EP  OW  HW  HW  EP  OW  HW  HW  EP  OW  HW  HW  
EP  OW  HW  HW  EP  OW  HW  HW  EP  OW  HW  HW  EP  OW  HW  HW  EP  OW  HW  HW  
EP  OW  HW  HW  EP  OW  HW  HW  EP  OW  HW  HW  EP  OW  HW  HW  EP  OW  HW  HW  
EP  OW  HW  HW  EP  OW  HW  HW  EP  OW  HW  HW  EP  OW  HW  HW  EP  OW  HW  HW  
EP  OW  HW  HW  EP  OW  HW  HW  EP  OW  HW  HW  EP  OW  HW  HW  EP  OW  HW  HW  
EP  OW  HW  HW  EP  OW  HW  HW  EP  OW  HW  HW  EP  OW  HW  HW  EP  OW  HW  HW  
EP  OW  HW  HW  EP  OW  HW  HW  EP  OW  HW  HW  EP  OW  HW  HW  EP  OW  HW  HW  
EP  OW  HW  HW  EP  OW  HW  HW  EP  OW  HW  HW  EP  OW  HW  HW  EP  OW  HW  HW  
EP  OW  HW  HW  EP  OW  HW  HW  EP  OW  HW  HW  EP  OW  HW  HW  EP  OW  HW  HW  
EP  OW  HW  HW  EP  OW  HW  HW  EP  OW  HW  HW  EP  OW  HW  HW  EP  OW  HW  HW  
EP  OW  HW  HW  EP  OW  HW  HW  EP  OW  HW  HW  EP  OW  HW  HW  EP  OW  HW  HW  
EP  OW  HW  HW  EP  OW  HW  HW  EP  OW  HW  HW  EP  OW  HW  HW  EP  OW  HW  HW  
EP  OW  HW  HW  EP  OW  HW  HW  EP  OW  HW  HW  EP  OW  HW  HW  EP  OW  HW  HW  
EP  OW  HW  HW  EP  OW  HW  HW  EP  OW  HW  HW  EP  OW  HW  HW  EP  OW  HW  HW  
EP  OW  HW  HW  EP  OW  HW  HW  EP  OW  HW  HW  EP  OW  HW  HW  EP  OW  HW  HW  
EP  OW  HW  HW  EP  OW  HW  HW  EP  OW  HW  HW  EP  OW  HW  HW  EP  OW  HW  HW  
EP  OW  HW  HW  EP  OW  HW  HW  EP  OW  HW  HW  EP  OW  HW  HW  EP  OW  HW  HW  
EP  OW  HW  HW  EP  OW  HW  HW  EP  OW  HW  HW  EP  OW  HW  HW  EP  OW  HW  HW  
EP  OW  HW  HW  EP  OW  HW  HW  EP  OW  HW  HW  EP  OW  HW  HW  EP  OW  HW  HW  
EP  OW  HW  HW  EP  OW  HW  HW  EP  OW  HW  HW  EP  OW  HW  HW  EP  OW  HW  HW  
EP  OW  HW  HW  EP  OW  HW  HW  EP  OW  HW  HW  EP  OW  HW  HW  EP  OW  HW  HW  
EP  OW  HW  HW  EP  OW  HW  HW  EP  OW  HW  HW  EP  OW  HW  HW  EP  OW  HW  HW  
EP  OW  HW  HW  EP  OW  HW  HW  EP  OW  HW  HW  EP  OW  HW  HW  EP  OW  HW  HW  
EP  OW  HW  HW  EP  OW  HW  HW  EP  OW  HW  HW  EP  OW  HW  HW  EP  OW  HW  HW  
EP  OW  HW  HW  EP  OW  HW  HW  EP  OW  HW  HW  EP  OW  HW  HW  EP  OW  HW  HW  
EP  OW  HW  HW  EP  OW  HW  HW  EP  OW  HW  HW  EP  OW  HW  HW  EP  OW  HW  HW  
EP  OW  HW  HW  EP  OW  HW  HW  EP  OW  HW  HW  EP  OW  HW  HW  EP  OW  HW  HW  
EP  OW  HW  HW  EP  OW  HW  HW  EP  OW  HW  HW  EP  OW  HW  HW  EP  OW  HW  HW  
EP  OW  HW  HW  EP  OW  HW  HW  EP  OW  HW  HW  EP  OW  HW  HW  EP  OW  HW  HW  
EP  OW  HW  HW  EP  OW  HW  HW  EP  OW  HW  HW  EP  OW  HW  HW  EP  OW  HW  HW  
EP  OW  HW  HW  EP  OW  HW  HW  EP  OW  HW  HW  EP  OW  HW  HW  EP  OW  HW  HW  
EP  OW  HW  HW  EP  OW  HW  HW  EP  OW  HW  HW  EP  OW  HW  HW  EP  OW  HW  HW  
EP  OW  HW  HW  EP  OW  HW  HW  EP  OW  HW  HW  EP  OW  HW  HW  EP  OW  HW  HW  
EP  OW  HW  HW  EP  OW  HW  HW  EP  OW  HW  HW  EP  OW  HW  HW  EP  OW  HW  HW  
EP  OW  HW  HW  EP  OW  HW  HW  EP  OW  HW  HW  EP  OW  HW  HW  EP  OW  HW  HW  
EP  OW  HW  HW  EP  OW  HW  HW  EP  OW  HW  HW  EP  OW  HW  HW  EP  OW  HW  HW  
EP  OW  HW  HW  EP  OW  HW  HW  EP  OW  HW  HW  EP  OW  HW  HW  EP  OW  HW  HW  
EP  OW  HW  HW  EP  OW  HW  HW  EP  OW  HW  HW  EP  OW  HW  HW  EP  OW  HW  HW  
EP  OW  HW  HW  EP  OW  HW  HW  EP  OW  HW  HW  EP  OW  HW  HW  EP  OW  HW  HW  
EP  OW  HW  HW  EP  OW  HW  HW  EP  OW  HW  HW  EP  OW  HW  HW  EP  OW  HW  HW  
EP  OW  HW  HW  EP  OW  HW  HW  EP  OW  HW  HW  EP  OW  HW  HW  EP  OW  HW  HW  
EP  OW  HW  HW  EP  OW  HW  HW  EP  OW  HW  HW  EP  OW  HW  HW  EP  OW  HW  HW  
EP  OW  HW  HW  EP  OW  HW  HW  EP  OW  HW  HW  EP  OW  HW  HW  EP  OW  HW  HW  
EP  OW  HW  HW  EP  OW  HW  HW  EP  OW  HW  HW  EP  OW  HW  HW  EP  OW  HW  HW  
EP  OW  HW  HW  EP  OW  HW  HW  EP  OW  HW  HW  EP  OW  HW  HW  EP  OW  HW  HW  
EP  OW  HW  HW  EP  OW  HW  HW  EP  OW  HW  HW  EP  OW  HW  HW  EP  OW  HW  HW  
EP  OW  HW  HW  EP  OW  HW  HW  EP  OW  HW  HW  EP  OW  HW  HW  EP  OW  HW  HW  
EP  OW  HW  HW  EP  OW  HW  HW  EP  OW  HW  HW  EP  OW  HW  HW  EP  OW  HW  HW  
EP  OW  HW  HW  EP  OW  HW  HW  EP  OW  HW  HW  EP  OW  HW  HW  EP  OW  HW  HW  
EP  OW  HW  HW  EP  OW  HW  HW  EP  OW  HW  HW  EP  OW  HW  HW  EP  OW  HW  HW  
EP  OW  HW  HW  EP  OW  HW  HW  EP  OW  HW  HW  EP  OW  HW  HW  EP  OW  HW  HW  
EP  OW  HW  HW  EP  OW  HW  HW  EP  OW  HW  HW  EP  OW  HW  HW  EP  OW  HW  HW  
EP  OW  HW  HW  EP  OW  HW  HW  EP  OW  HW  HW  EP  OW  HW  HW  EP  OW  HW  HW  
EP  OW  HW  HW  EP  OW  HW  HW  EP  OW  HW  HW  EP  OW  HW  HW  EP  OW  HW  HW  
EP  OW  HW  HW  EP  OW  HW  HW  EP  OW  HW  HW  EP  OW  HW  HW  EP  OW  HW  HW  
EP  OW  HW  HW  EP  OW  HW  HW  EP  OW  HW  HW  EP  OW  HW  HW  EP  OW  HW  HW  
EP  OW  HW  HW  EP  OW  HW  HW  EP  OW  HW  HW  EP  OW  HW  HW  EP  OW  HW  HW  
EP  OW  HW  HW  EP  OW  HW  HW  EP  OW  HW  HW  EP  OW  HW  HW  EP  OW  HW  HW  
EP  OW  HW  HW  EP  OW  HW  HW  EP  OW  HW  HW  EP  OW  HW  HW  EP  OW  HW  HW  
EP  OW  HW  HW  EP  OW  HW  HW  EP  OW  HW  HW  EP  OW  HW  HW  EP  OW  HW  HW  
EP  OW  HW  HW  EP  OW  HW  HW  EP  OW  HW  HW  EP  OW  HW  HW  EP  OW  HW  HW  
EP  OW  HW  HW  EP  OW  HW  HW  EP  OW  HW  HW  EP  OW  HW  HW  EP  OW  HW  HW  
EP  OW  HW  HW  EP  OW  HW  HW  EP  OW  HW  HW  EP  OW  HW  HW  EP  OW  HW  HW  
EP  OW  HW  HW  EP  OW  HW  HW  EP  OW  HW  HW  EP  OW  HW  HW  EP  OW  HW  HW  
EP  OW  HW  HW  EP  OW  HW  HW  EP  OW  HW  HW  EP  OW  HW  HW  EP  OW  HW  HW  
EP  OW  HW  HW  EP  OW  HW  HW  EP  OW  HW  HW  EP  OW  HW  HW  EP  OW  HW  HW  
EP  OW  HW  HW  EP  OW  HW  HW  EP  OW  HW  HW  EP  OW  HW  HW  EP  OW  HW  HW  
EP  OW  HW  HW  EP  OW  HW  HW  EP  OW  HW  HW  EP  OW  HW  HW  EP  OW  HW  HW  
EP  OW  HW  HW  EP  OW  HW  HW  EP  OW  HW  HW  EP  OW  HW  HW  EP  OW  HW  HW  
EP  OW  HW  HW  EP  OW  HW  HW  EP  OW  HW  HW  EP  OW  HW  HW  EP  OW  HW  HW  
EP  OW  HW  HW  EP  OW  HW  HW  EP  OW  HW  HW  EP  OW  HW  HW  EP  OW  HW  HW  
EP  OW  HW  HW  EP  OW  HW  HW  EP  OW  HW  HW  EP  OW  HW  HW  EP  OW  HW  HW  
EP  OW  HW  HW  EP  OW  HW  HW  EP  OW  HW  HW  EP  OW  HW  HW  EP  OW  HW  HW  
EP  OW  HW  HW  EP  OW  HW  HW  EP  OW  HW  HW  EP  OW  HW  HW  EP  OW  HW  HW  
EP  OW  HW  HW  EP  OW  HW  HW  EP  OW  HW  HW  EP  OW  HW  HW  EP  OW  HW  HW  
EP  OW  HW  HW  EP  OW  HW  HW  EP  OW  HW  HW  EP  OW  HW  HW  EP  OW  HW  HW  
EP  OW  HW  HW  EP  OW  HW  HW  EP  OW  HW  HW  EP  OW  HW  HW  EP  OW  HW  HW  
EP  OW  HW  HW  EP  OW  HW  HW  EP  OW  HW  HW  EP  OW  HW  HW  EP  OW  HW  HW  
EP  OW  HW  HW  EP  OW  HW  HW  EP  OW  HW  HW  EP  OW  HW  HW  EP  OW  HW  HW  
EP  OW  HW  HW  EP  OW  HW  HW  EP  OW  HW  HW  EP  OW  HW  HW  EP  OW  HW  HW  
EP  OW  HW  HW  EP  OW  HW  HW  EP  OW  HW  HW  EP  OW  HW  HW  EP  OW  HW  HW  
EP  OW  HW  HW  EP  OW  HW  HW  EP  OW  HW  HW  EP  OW  HW  HW  EP  OW  HW  HW  
EP  OW  HW  HW  EP  OW  HW  HW  EP  OW  HW  HW  EP  OW  HW  HW  EP  OW  HW  HW  
EP  OW  HW  HW  EP  OW  HW  HW  EP  OW  HW  HW  EP  OW  HW  HW  EP  OW  HW  HW  
EP  OW  HW  HW  EP  OW  HW  HW  EP  OW  HW  HW  EP  OW  HW  HW  EP  OW  HW  HW  
EP  OW  HW  HW  EP  OW  HW  HW  EP  OW  HW  HW  EP  OW  HW  HW  EP  OW  HW  HW  
EP  OW  HW  HW  EP  OW  HW  HW  EP  OW  HW  HW  EP  OW  HW  HW  EP  OW  HW  HW  
EP  OW  HW  HW  EP  OW  HW  HW  EP  OW  HW  HW  EP  OW  HW  HW  EP  OW  HW  HW  
EP  OW  HW  HW  EP  OW  HW  HW  EP  OW  HW  HW  EP  OW  HW  HW  EP  OW  HW  HW  
EP  OW  HW  HW  EP  OW  HW  HW  EP  OW  HW  HW  EP  OW  HW  HW  EP  OW  HW  HW  
EP  OW  HW  HW  EP  OW  HW  HW  EP  OW  HW  HW  EP  OW  HW  HW  EP  OW  HW  HW  
EP  OW  HW  HW  EP  OW  HW  HW  EP  OW  HW  HW  EP  OW  HW  HW  EP  OW  HW  HW  
EP  OW  HW  HW  EP  OW  HW  HW  EP  OW  HW  HW  EP  OW  HW  HW  EP  OW  HW  HW  
EP  OW  HW  HW  EP  OW  HW  HW  EP  OW  HW  HW  EP  OW  HW  HW  EP  OW  HW  HW  
EP  OW  HW  HW  EP  OW  HW  HW  EP  OW  HW  HW  EP  OW  HW  HW  EP  OW  HW  HW  
EP  OW  HW  HW  EP  OW  HW  HW  EP  OW  HW  HW  EP  OW  HW  HW  EP  OW  HW  HW  
EP  OW  HW  HW  EP  OW  HW  HW  EP  OW  HW  HW  EP  OW  HW  HW  EP  OW  HW  HW  
EP  OW  HW  HW  EP  OW  HW  HW  EP  OW  HW  HW  EP  OW  HW  HW  EP  OW  HW  HW  
EP  OW  HW  HW  EP  OW  HW  HW  EP  OW  HW  HW  EP  OW  HW  HW  EP  OW  HW  HW  
EP  OW  HW  HW  EP  OW  HW  HW  EP  OW  HW  HW  EP  OW  HW  HW  EP  OW  HW  HW  
EP  OW  HW  HW  EP  OW  HW  HW  EP  OW  HW  HW  EP  OW  HW  HW  EP  OW  HW  HW  
EP  OW  HW  HW  EP  OW  HW  HW  EP  OW  HW  HW  EP  OW  HW  HW  EP  OW  HW  HW  
EP  OW  HW  HW  EP  OW  HW  HW  EP  OW  HW  HW  EP  OW  HW  HW  EP  OW  HW  HW  
EP  OW  HW  HW  EP  OW  HW  HW  EP  OW  HW  HW  EP  OW  HW  HW  EP  OW  HW  HW  
EP  OW  HW  HW  EP  OW  HW  HW  EP  OW  HW  HW  EP  OW  HW  HW  EP  OW  HW  HW  
EP  OW  HW  HW  EP  OW  HW  HW  EP  OW  HW  HW  EP  OW  HW  HW  EP  OW  HW  HW  
EP  OW  HW  HW  EP  OW  HW  HW  EP  OW  HW  HW  EP  OW  HW  HW  EP  OW  HW  HW  
EP  OW  HW  HW  EP  OW  HW  HW  EP  OW  HW  HW  EP  OW  HW  HW  EP  OW  HW  HW  
EP  OW  HW  HW  EP  OW  HW  HW  EP  OW  HW  HW  EP  OW  HW  HW  EP  OW  HW  HW  
EP  OW  HW  HW  EP  OW  HW  HW  EP  OW  HW  HW  EP  OW  HW  HW  EP  OW  HW  HW  
EP  OW  HW  HW  EP  OW  HW  HW  EP  OW  HW  HW  EP  OW  HW  HW  EP  OW  HW  HW  
EP  OW  HW  HW  EP  OW  HW  HW  EP  OW  HW  HW  EP  OW  HW  HW  EP  OW  HW  HW  
EP  OW  HW  HW  EP  OW  HW  HW  EP  OW  HW  HW  EP  OW  HW  HW  EP  OW  HW  HW  
EP  OW  HW  HW  EP  OW  HW  HW  EP  OW  HW  HW  EP  OW  HW  HW  EP  OW  HW  HW  
EP  OW  HW  HW  EP  OW  HW  HW  EP  OW  HW  HW  EP  OW  HW  HW  EP  OW  HW  HW  
EP  OW  HW  HW  EP  OW  HW  HW  EP  OW  HW  HW  EP  OW  HW  HW  EP  OW  HW  HW  
EP  OW  HW  HW  EP  OW  HW  HW  EP  OW  HW  HW  EP  OW  HW  HW  EP  OW  HW  HW  
EP  OW  HW  HW  EP  OW  HW  HW  EP  OW  HW  HW  EP  OW  HW  HW  EP  OW  HW  HW  
EP  OW  HW  HW  EP  OW  HW  HW  EP  OW  HW  HW  EP  OW  HW  HW  EP  OW  HW  HW  
EP  OW  HW  HW  EP  OW  HW  HW  EP  OW  HW  HW  EP  OW  HW  HW  EP  OW  HW  HW  
EP  OW  HW  HW  EP  OW  HW  HW  EP  OW  HW  HW  EP  OW  HW  HW  EP  OW  HW  HW  
EP  OW  HW  HW  EP  OW  HW  HW  EP  OW  HW  HW  EP  OW  HW  HW  EP  OW  HW  HW  
EP  OW  HW  HW  EP  OW  HW  HW  EP  OW  HW  HW  EP  OW  HW  HW  EP  OW  HW  HW  
EP  OW  HW  HW  EP  OW  HW  HW  EP  OW  HW  HW  EP  OW  HW  HW  EP  OW  HW  HW  
EP  OW  HW  HW  EP  OW  HW  HW  EP  OW  HW  HW  EP  OW  HW  HW  EP  OW  HW  HW  
EP  OW  HW  HW  EP  OW  HW  HW  EP  OW  HW  HW  EP  OW  HW  HW  EP  OW  HW  HW  
EP  OW  HW  HW  EP  OW  HW  HW  EP  OW  HW  HW  EP  OW  HW  HW  EP  OW  HW  HW  
EP  OW  HW  HW  EP  OW  HW  HW  EP  OW  HW  HW  EP  OW  HW  HW  EP  OW  HW  HW  
EP  OW  HW  HW  EP  OW  HW  HW  EP  OW  HW  HW  EP  OW  HW  HW  EP  OW  HW  HW  
EP  OW  HW  HW  EP  OW  HW  HW  EP  OW  HW  HW  EP  OW  HW  HW  EP  OW  HW  HW  
EP  OW  HW  HW  EP  OW  HW  HW  EP  OW  HW  HW  EP  OW  HW  HW  EP  OW  HW  HW  
EP  OW  HW  HW  EP  OW  HW  HW  EP  OW  HW  HW  EP  OW  HW  HW  EP  OW  HW  HW  
EP  OW  HW  HW  EP  OW  HW  HW  EP  OW  HW  HW  EP  OW  HW  HW  EP  OW  HW  HW  
EP  OW  HW  HW  EP  OW  HW  HW  EP  OW  HW  HW  EP  OW  HW  HW  EP  OW  HW  HW  
EP  OW  HW  HW  EP  OW  HW  HW  EP  OW  HW  HW  EP  OW  HW  HW  EP  OW  HW  HW  
EP  OW  HW  HW  EP  OW  HW  HW  EP  OW  HW  HW  EP  OW  HW  HW  EP  OW  HW  HW  
EP  OW  HW  HW  EP  OW  HW  HW  EP  OW  HW  HW  EP  OW  HW  HW  EP  OW  HW  HW  
EP  OW  HW  HW  EP  OW  HW  HW  EP  OW  HW  HW  EP  OW  HW  HW  EP  OW  HW  HW  
EP  OW  HW  HW  EP  OW  HW  HW  EP  OW  HW  HW  EP  OW  HW  HW  EP  OW  HW  HW  
EP  OW  HW  HW  EP  OW  HW  HW  EP  OW  HW  HW  EP  OW  HW  HW  EP  OW  HW  HW  
EP  OW  HW  HW  EP  OW  HW  HW  EP  OW  HW  HW  EP  OW  HW  HW  EP  OW  HW  HW  
EP  OW  HW  HW  EP  OW  HW  HW  EP  OW  HW  HW  EP  OW  HW  HW  EP  OW  HW  HW  
EP  OW  HW  HW  EP  OW  HW  HW  EP  OW  HW  HW  EP  OW  HW  HW  EP  OW  HW  HW  
EP  OW  HW  HW  EP  OW  HW  HW  EP  OW  HW  HW  EP  OW  HW  HW  EP  OW  HW  HW  
EP  OW  HW  HW  EP  OW  HW  HW  EP  OW  HW  HW  EP  OW  HW  HW  EP  OW  HW  HW  
EP  OW  HW  HW  EP  OW  HW  HW  EP  OW  HW  HW  EP  OW  HW  HW  EP  OW  HW  HW  
EP  OW  HW  HW  EP  OW  HW  HW  EP  OW  HW  HW  EP  OW  HW  HW  EP  OW  HW  HW  
EP  OW  HW  HW  EP  OW  HW  HW  EP  OW  HW  HW  EP  OW  HW  HW  EP  OW  HW  HW  
EP  OW  HW  HW  EP  OW  HW  HW  EP  OW  HW  HW  EP  OW  HW  HW  EP  OW  HW  HW  
EP  OW  HW  HW  EP  OW  HW  HW  EP  OW  HW  HW  EP  OW  HW  HW  EP  OW  HW  HW  
EP  OW  HW  HW  EP  OW  HW  HW  EP  OW  HW  HW  EP  OW  HW  HW  EP  OW  HW  HW  
EP  OW  HW  HW  EP  OW  HW  HW  EP  OW  HW  HW  EP  OW  HW  HW  EP  OW  HW  HW  
EP  OW  HW  HW  EP  OW  HW  HW  EP  OW  HW  HW  EP  OW  HW  HW  EP  OW  HW  HW  
EP  OW  HW  HW  EP  OW  HW  HW  EP  OW  HW  HW  EP  OW  HW  HW  EP  OW  HW  HW  
EP  OW  HW  HW  EP  OW  HW  HW  EP  OW  HW  HW  EP  OW  HW  HW  EP  OW  HW  HW  
EP  OW  HW  HW  EP  OW  HW  HW  EP  OW  HW  HW  EP  OW  HW  HW  EP  OW  HW  HW  
EP  OW  HW  HW  EP  OW  HW  HW  EP  OW  HW  HW  EP  OW  HW  HW  EP  OW  HW  HW  
EP  OW  HW  HW  EP  OW  HW  HW  EP  OW  HW  HW  EP  OW  HW  HW  EP  OW  HW  HW  
EP  OW  HW  HW  EP  OW  HW  HW  EP  OW  HW  HW  EP  OW  HW  HW  EP  OW  HW  HW  
EP  OW  HW  HW  EP  OW  HW  HW  EP  OW  HW  HW  EP  OW  HW  HW  EP  OW  HW  HW  
EP  OW  HW  HW  EP  OW  HW  HW  EP  OW  HW  HW  EP  OW  HW  HW  EP  OW  HW  HW  
EP  OW  HW  HW  EP  OW  HW  HW  EP  OW  HW  HW  EP  OW  HW  HW  EP  OW  HW  HW  
EP  OW  HW  HW  EP  OW  HW  HW  EP  OW  HW  HW  EP  OW  HW  HW  EP  OW  HW  HW  
EP  OW  HW  HW  EP  OW  HW  HW  EP  OW  HW  HW  EP  OW  HW  HW  EP  OW  HW  HW  
EP  OW  HW  HW  EP  OW  HW  HW  EP  OW  HW  HW  EP  OW  HW  HW  EP  OW  HW  HW  
EP  OW  HW  HW  EP  OW  HW  HW  EP  OW  HW  HW  EP  OW  HW  HW  EP  OW  HW  HW  
EP  OW  HW  HW  EP  OW  HW  HW  EP  OW  HW  HW  EP  OW  HW  HW  EP  OW  HW  HW  
EP  OW  HW  HW  EP  OW  HW  HW  EP  OW  HW  HW  EP  OW  HW  HW  EP  OW  HW  HW  
EP  OW  HW  HW  EP  OW  HW  HW  EP  OW  HW  HW  EP  OW  HW  HW  EP  OW  HW  HW  
EP  OW  HW  HW  EP  OW  HW  HW  EP  OW  HW  HW  EP  OW  HW  HW  EP  OW  HW  HW  
EP  OW  HW  HW  EP  OW  HW  HW  EP  OW  HW  HW  EP  OW  HW  HW  EP  OW  HW  HW  
EP  OW  HW  HW  EP  OW  HW  HW  EP  OW  HW  HW  EP  OW  HW  HW  EP  OW  HW  HW  
EP  OW  HW  HW  EP  OW  HW  HW  EP  OW  HW  HW  EP  OW  HW  HW  EP  OW  HW  HW  
EP  OW  HW  HW  EP  OW  HW  HW  EP  OW  HW  HW  EP  OW  HW  HW  EP  OW  HW  HW  
EP  OW  HW  HW  EP  OW  HW  HW  EP  OW  HW  HW  EP  OW  HW  HW  EP  OW  HW  HW  
EP  OW  HW  HW  EP  OW  HW  HW  EP  OW  HW  HW  EP  OW  HW  HW  EP  OW  HW  HW  
EP  OW  HW  HW  EP  OW  HW  HW  EP  OW  HW  HW  EP  OW  HW  HW  EP  OW  HW  HW  
EP  OW  HW  HW  EP  OW  HW  HW  EP  OW  HW  HW  EP  OW  HW  HW  EP  OW  HW  HW  
EP  OW  HW  HW  EP  OW  HW  HW  EP  OW  HW  HW  EP  OW  HW  HW  EP  OW  HW  HW  
EP  OW  HW  HW  EP  OW  HW  HW  EP  OW  HW  HW  EP  OW  HW  HW  EP  OW  HW  HW  
EP  OW  HW  HW  EP  OW  HW  HW  EP  OW  HW  HW  EP  OW  HW  HW  EP  OW  HW  HW  
EP  OW  HW  HW  EP  OW  HW  HW  EP  OW  HW  HW  EP  OW  HW  HW  EP  OW  HW  HW  
EP  OW  HW  HW  EP  OW  HW  HW  EP  OW  HW  HW  EP  OW  HW  HW  EP  OW  HW  HW  
EP  OW  HW  HW  EP  OW  HW  HW  EP  OW  HW  HW  EP  OW  HW  HW  EP  OW  HW  HW  
EP  OW  HW  HW  EP  OW  HW  HW  EP  OW  HW  HW  EP  OW  HW  HW  EP  OW  HW  HW  
EP  OW  HW  HW  EP  OW  HW  HW  EP  OW  HW  HW  EP  OW  HW  HW  EP  OW  HW  HW  
EP  OW  HW  HW  EP  OW  HW  HW  EP  OW  HW  HW  EP  OW  HW  HW  EP  OW  HW  HW  
EP  OW  HW  HW  EP  OW  HW  HW  EP  OW  HW  HW  EP  OW  HW  HW  EP  OW  HW  HW  
EP  OW  HW  HW  EP  OW  HW  HW  EP  OW  HW  HW  EP  OW  HW  HW  EP  OW  HW  HW  
EP  OW  HW  HW  EP  OW  HW  HW  EP  OW  HW  HW  EP  OW  HW  HW  EP  OW  HW  HW  
EP  OW  HW  HW  EP  OW  HW  HW  EP  OW  HW  HW  EP  OW  HW  HW  EP  OW  HW  HW  
EP  OW  HW  HW  EP  OW  HW  HW  EP  OW  HW  HW  EP  OW  HW  HW  EP  OW  HW  HW  
EP  OW  HW  HW  EP  OW  HW  HW  EP  OW  HW  HW  EP  OW  HW  HW  EP  OW  HW  HW  
EP  OW  HW  HW  EP  OW  HW  HW  EP  OW  HW  HW  EP  OW  HW  HW  EP  OW  HW  HW  
EP  OW  HW  HW  EP  OW  HW  HW  EP  OW  HW  HW  EP  OW  HW  HW  EP  OW  HW  HW  
EP  OW  HW  HW  EP  OW  HW  HW  EP  OW  HW  HW  EP  OW  HW  HW  EP  OW  HW  HW  
EP  OW  HW  HW  EP  OW  HW  HW  EP  OW  HW  HW  EP  OW  HW  HW  EP  OW  HW  HW  
EP  OW  HW  HW  EP  OW  HW  HW  EP  OW  HW  HW  EP  OW  HW  HW  EP  OW  HW  HW  
EP  OW  HW  HW  EP  OW  HW  HW  EP  OW  HW  HW  EP  OW  HW  HW  EP  OW  HW  HW  
EP  OW  HW  HW  EP  OW  HW  HW  EP  OW  HW  HW  EP  OW  HW  HW  EP  OW  HW  HW  
EP  OW  HW  HW  EP  OW  HW  HW  EP  OW  HW  HW  EP  OW  HW  HW  EP  OW  HW  HW  
EP  OW  HW  HW  EP  OW  HW  HW  EP  OW  HW  HW  EP  OW  HW  HW  EP  OW  HW  HW  
EP  OW  HW  HW  EP  OW  HW  HW  EP  OW  HW  HW  EP  OW  HW  HW  EP  OW  HW  HW  
EP  OW  HW  HW  EP  OW  HW  HW  EP  OW  HW  HW  EP  OW  HW  HW  EP  OW  HW  HW  
EP  OW  HW  HW  EP  OW  HW  HW  EP  OW  HW  HW  EP  OW  HW  HW  EP  OW  HW  HW  
EP  OW  HW  HW  EP  OW  HW  HW  EP  OW  HW  HW  EP  OW  HW  HW  EP  OW  HW  HW  
EP  OW  HW  HW  EP  OW  HW  HW  EP  OW  HW  HW  EP  OW  HW  HW  EP  OW  HW  HW  
EP  OW  HW  HW  EP  OW  HW  HW  EP  OW  HW  HW  EP  OW  HW  HW  EP  OW  HW  HW  
EP  OW  HW  HW  EP  OW  HW  HW  EP  OW  HW  HW  EP  OW  HW  HW  EP  OW  HW  HW  
EP  OW  HW  HW  EP  OW  HW  HW  EP  OW  HW  HW  EP  OW  HW  HW  EP  OW  HW  HW  
EP  OW  HW  HW  EP  OW  HW  HW  EP  OW  HW  HW  EP  OW  HW  HW  EP  OW  HW  HW  
EP  OW  HW  HW  EP  OW  HW  HW  EP  OW  HW  HW  EP  OW  HW  HW  EP  OW  HW  HW  
EP  OW  HW  HW  EP  OW  HW  HW  EP  OW  HW  HW  EP  OW  HW  HW  EP  OW  HW  HW  
EP  OW  HW  HW  EP  OW  HW  HW  EP  OW  HW  HW  EP  OW  HW  HW  EP  OW  HW  HW  
EP  OW  HW  HW  EP  OW  HW  HW  EP  OW  HW  HW  EP  OW  HW  HW  EP  OW  HW  HW  
EP  OW  HW  HW  EP  OW  HW  HW  EP  OW  HW  HW  EP  OW  HW  HW  EP  OW  HW  HW  
EP  OW  HW  HW  EP  OW  HW  HW  EP  OW  HW  HW  EP  OW  HW  HW  EP  OW  HW  HW  
EP  OW  HW  HW  EP  OW  HW  HW  EP  OW  HW  HW  EP  OW  HW  HW  EP  OW  HW  HW  
EP  OW  HW  HW  EP  OW  HW  HW  EP  OW  HW  HW  EP  OW  HW  HW  EP  OW  HW  HW  
EP  OW  HW  HW  EP  OW  HW  HW  EP  OW  HW  HW  EP  OW  HW  HW  EP  OW  HW  HW  
EP  OW  HW  HW  EP  OW  HW  HW  EP  OW  HW  HW  EP  OW  HW  HW  EP  OW  HW  HW  
EP  OW  HW  HW  EP  OW  HW  HW  EP  OW  HW  HW  EP  OW  HW  HW  EP  OW  HW  HW  
EP  OW  HW  HW  EP  OW  HW  HW  EP  OW  HW  HW  EP  OW  HW  HW  EP  OW  HW  HW  
EP  OW  HW  HW  EP  OW  HW  HW  EP  OW  HW  HW  EP  OW  HW  HW  EP  OW  HW  HW  
EP  OW  HW  HW  EP  OW  HW  HW  EP  OW  HW  HW  EP  OW  HW  HW  EP  OW  HW  HW  
EP  OW  HW  HW  EP  OW  HW  HW  EP  OW  HW  HW  EP  OW  HW  HW  EP  OW  HW  HW  
EP  OW  HW  HW  EP  OW  HW  HW  EP  OW  HW  HW  EP  OW  HW  HW  EP  OW  HW  HW  
EP  OW  HW  HW  EP  OW  HW  HW  EP  OW  HW  HW  EP  OW  HW  HW  EP  OW  HW  HW  
EP  OW  HW  HW  EP  OW  HW  HW  EP  OW  HW  HW  EP  OW  HW  HW  EP  OW  HW  HW  
EP  OW  HW  HW  EP  OW  HW  HW  EP  OW  HW  HW  EP  OW  HW  HW  EP  OW  HW  HW  
EP  OW  HW  HW  EP  OW  HW  HW  EP  OW  HW  HW  EP  OW  HW  HW  EP  OW  HW  HW  
EP  OW  HW  HW  EP  OW  HW  HW  EP  OW  HW  HW  EP  OW  HW  HW  EP  OW  HW  HW  
EP  OW  HW  HW  EP  OW  HW  HW  EP  OW  HW  HW  EP  OW  HW  HW  EP  OW  HW  HW  
EP  OW  HW  HW  EP  OW  HW  HW  EP  OW  HW  HW  EP  OW  HW  HW  EP  OW  HW  HW  
EP  OW  HW  HW  EP  OW  HW  HW  EP  OW  HW  HW  EP  OW  HW  HW  EP  OW  HW  HW  
EP  OW  HW  HW  EP  OW  HW  HW  EP  OW  HW  HW  EP  OW  HW  HW  EP  OW  HW  HW  
EP  OW  HW  HW  EP  OW  HW  HW  EP  OW  HW  HW  EP  OW  HW  HW  EP  OW  HW  HW  
EP  OW  HW  HW  EP  OW  HW  HW  EP  OW  HW  HW  EP  OW  HW  HW  EP  OW  HW  HW  
EP  OW  HW  HW  EP  OW  HW  HW  EP  OW  HW  HW  EP  OW  HW  HW  EP  OW  HW  HW  
EP  OW  HW  HW  EP  OW  HW  HW  EP  OW  HW  HW  EP  OW  HW  HW  EP  OW  HW  HW  
EP  OW  HW  HW  EP  OW  HW  HW  EP  OW  HW  HW  EP  OW  HW  HW  EP  OW  HW  HW  
EP  OW  HW  HW  EP  OW  HW  HW  EP  OW  HW  HW  EP  OW  HW  HW  EP  OW  HW  HW  
EP  OW  HW  HW  EP  OW  HW  HW  EP  OW  HW  HW  EP  OW  HW  HW  EP  OW  HW  HW  
EP  OW  HW  HW  EP  OW  HW  HW  EP  OW  HW  HW  EP  OW  HW  HW  EP  OW  HW  HW  
EP  OW  HW  HW  EP  OW  HW  HW  EP  OW  HW  HW  EP  OW  HW  HW  EP  OW  HW  HW  
EP  OW  HW  HW  EP  OW  HW  HW  EP  OW  HW  HW  EP  OW  HW  HW  EP  OW  HW  HW  
EP  OW  HW  HW  EP  OW  HW  HW  EP  OW  HW  HW  EP  OW  HW  HW  EP  OW  HW  HW  
EP  OW  HW  HW  EP  OW  HW  HW  EP  OW  HW  HW  EP  OW  HW  HW  EP  OW  HW  HW  
EP  OW  HW  HW  EP  OW  HW  HW  EP  OW  HW  HW  EP  OW  HW  HW  EP  OW  HW  HW  
EP  OW  HW  HW  EP  OW  HW  HW  EP  OW  HW  HW  EP  OW  HW  HW  EP  OW  HW  HW  
EP  OW  HW  HW  EP  OW  HW  HW  EP  OW  HW  HW  EP  OW  HW  HW  EP  OW  HW  HW  
EP  OW  HW  HW  EP  OW  HW  HW  EP  OW  HW  HW  EP  OW  HW  HW  EP  OW  HW  HW  
EP  OW  HW  HW  EP  OW  HW  HW  EP  OW  HW  HW  EP  OW  HW  HW  EP  OW  HW  HW  
EP  OW  HW  HW  EP  OW  HW  HW  EP  OW  HW  HW  EP  OW  HW  HW  EP  OW  HW  HW  
EP  OW  HW  HW  EP  OW  HW  HW  EP  OW  HW  HW  EP  OW  HW  HW  EP  OW  HW  HW  
EP  OW  HW  HW  EP  OW  HW  HW  EP  OW  HW  HW  EP  OW  HW  HW  EP  OW  HW  HW  
EP  OW  HW  HW  EP  OW  HW  HW  EP  OW  HW  HW  EP  OW  HW  HW  EP  OW  HW  HW  
EP  OW  HW  HW  EP  OW  HW  HW  EP  OW  HW  HW  EP  OW  HW  HW  EP  OW  HW  HW  
EP  OW  HW  HW  EP  OW  HW  HW  EP  OW  HW  HW  EP  OW  HW  HW  EP  OW  HW  HW  
EP  OW  HW  HW  EP  OW  HW  HW  EP  OW  HW  HW  EP  OW  HW  HW  EP  OW  HW  HW  
EP  OW  HW  HW  EP  OW  HW  HW  EP  OW  HW  HW  EP  OW  HW  HW  EP  OW  HW  HW  
EP  OW  HW  HW  EP  OW  HW  HW  EP  OW  HW  HW  EP  OW  HW  HW  EP  OW  HW  HW  
EP  OW  HW  HW  EP  OW  HW  HW  EP  OW  HW  HW  EP  OW  HW  HW  EP  OW  HW  HW  
EP  OW  HW  HW  EP  OW  HW  HW  EP  OW  HW  HW  EP  OW  HW  HW  EP  OW  HW  HW  
EP  OW  HW  HW  EP  OW  HW  HW  EP  OW  HW  HW  EP  OW  HW  HW  EP  OW  HW  HW  
EP  OW  HW  HW  EP  OW  HW  HW  EP  OW  HW  HW  EP  OW  HW  HW  EP  OW  HW  HW  
EP  OW  HW  HW  EP  OW  HW  HW  EP  OW  HW  HW  EP  OW  HW  HW  EP  OW  HW  HW  
EP  OW  HW  HW  EP  OW  HW  HW  EP  OW  HW  HW  EP  OW  HW  HW  EP  OW  HW  HW  
EP  OW  HW  HW  EP  OW  HW  HW  EP  OW  HW  HW  EP  OW  HW  HW  EP  OW  HW  HW  
EP  OW  HW  HW  EP  OW  HW  HW  EP  OW  HW  HW  EP  OW  HW  HW  EP  OW  HW  HW  
EP  OW  HW  HW  EP  OW  HW  HW  EP  OW  HW  HW  EP  OW  HW  HW  EP  OW  HW  HW  
EP  OW  HW  HW  EP  OW  HW  HW  EP  OW  HW  HW  EP  OW  HW  HW  EP  OW  HW  HW  
EP  OW  HW  HW  EP  OW  HW  HW  EP  OW  HW  HW  EP  OW  HW  HW  EP  OW  HW  HW  
EP  OW  HW  HW  EP  OW  HW  HW  EP  OW  HW  HW  EP  OW  HW  HW  EP  OW  HW  HW  
EP  OW  HW  HW  EP  OW  HW  HW  EP  OW  HW  HW  EP  OW  HW  HW  EP  OW  HW  HW  
EP  OW  HW  HW  EP  OW  HW  HW  EP  OW  HW  HW  EP  OW  HW  HW  EP  OW  HW  HW  
EP  OW  HW  HW  EP  OW  HW  HW  EP  OW  HW  HW  EP  OW  HW  HW  EP  OW  HW  HW  
EP  OW  HW  HW  EP  OW  HW  HW  EP  OW  HW  HW  EP  OW  HW  HW  EP  OW  HW  HW  
EP  OW  HW  HW  EP  OW  HW  HW  EP  OW  HW  HW  EP  OW  HW  HW  EP  OW  HW  HW  
EP  OW  HW  HW  EP  OW  HW  HW  EP  OW  HW  HW  EP  OW  HW  HW  EP  OW  HW  HW  
EP  OW  HW  HW  EP  OW  HW  HW  EP  OW  HW  HW  EP  OW  HW  HW  EP  OW  HW  HW  
EP  OW  HW  HW  EP  OW  HW  HW  EP  OW  HW  HW  EP  OW  HW  HW  EP  OW  HW  HW  
EP  OW  HW  HW  EP  OW  HW  HW  EP  OW  HW  HW  EP  OW  HW  HW  EP  OW  HW  HW  
EP  OW  HW  HW  EP  OW  HW  HW  EP  OW  HW  HW  EP  OW  HW  HW  EP  OW  HW  HW  
EP  OW  HW  HW  EP  OW  HW  HW  EP  OW  HW  HW  EP  OW  HW  HW  EP  OW  HW  HW  
EP  OW  HW  HW  EP  OW  HW  HW  EP  OW  HW  HW  EP  OW  HW  HW  EP  OW  HW  HW  
EP  OW  HW  HW  EP  OW  HW  HW  EP  OW  HW  HW  EP  OW  HW  HW  EP  OW  HW  HW  
EP  OW  HW  HW  EP  OW  HW  HW  EP  OW  HW  HW  EP  OW  HW  HW  EP  OW  HW  HW  
EP  OW  HW  HW  EP  OW  HW  HW  EP  OW  HW  HW  EP  OW  HW  HW  EP  OW  HW  HW  
EP  OW  HW  HW  EP  OW  HW  HW  EP  OW  HW  HW  EP  OW  HW  HW  EP  OW  HW  HW  
EP  OW  HW  HW  EP  OW  HW  HW  EP  OW  HW  HW  EP  OW  HW  HW  EP  OW  HW  HW  
EP  OW  HW  HW  EP  OW  HW  HW  EP  OW  HW  HW  EP  OW  HW  HW  EP  OW  HW  HW  
EP  OW  HW  HW  EP  OW  HW  HW  EP  OW  HW  HW  EP  OW  HW  HW  EP  OW  HW  HW  
EP  OW  HW  HW  EP  OW  HW  HW  EP  OW  HW  HW  EP  OW  HW  HW  EP  OW  HW  HW  
EP  OW  HW  HW  EP  OW  HW  HW  EP  OW  HW  HW  EP  OW  HW  HW  EP  OW  HW  HW  
EP  OW  HW  HW  EP  OW  HW  HW  EP  OW  HW  HW  EP  OW  HW  HW  EP  OW  HW  HW  
EP  OW  HW  HW  EP  OW  HW  HW  EP  OW  HW  HW  EP  OW  HW  HW  EP  OW  HW  HW  
EP  OW  HW  HW  EP  OW  HW  HW  EP  OW  HW  HW  EP  OW  HW  HW  EP  OW  HW  HW  
EP  OW  HW  HW  EP  OW  HW  HW  EP  OW  HW  HW  EP  OW  HW  HW  EP  OW  HW  HW  
EP  OW  HW  HW  EP  OW  HW  HW  EP  OW  HW  HW  EP  OW  HW  HW  EP  OW  HW  HW  
EP  OW  HW  HW  EP  OW  HW  HW  EP  OW  HW  HW  EP  OW  HW  HW  EP  OW  HW  HW  
EP  OW  HW  HW  EP  OW  HW  HW  EP  OW  HW  HW  EP  OW  HW  HW  EP  OW  HW  HW  
EP  OW  HW  HW  EP  OW  HW  HW  EP  OW  HW  HW  EP  OW  HW  HW  EP  OW  HW  HW  
EP  OW  HW  HW  EP  OW  HW  HW  EP  OW  HW  HW  EP  OW  HW  HW  EP  OW  HW  HW  
EP  OW  HW  HW  EP  OW  HW  HW  EP  OW  HW  HW  EP  OW  HW  HW  EP  OW  HW  HW  
EP  OW  HW  HW  EP  OW  HW  HW  EP  OW  HW  HW  EP  OW  HW  HW  EP  OW  HW  HW  
EP  OW  HW  HW  EP  OW  HW  HW  EP  OW  HW  HW  EP  OW  HW  HW  EP  OW  HW  HW  
EP  OW  HW  HW  EP  OW  HW  HW  EP  OW  HW  HW  EP  OW  HW  HW  EP  OW  HW  HW  
EP  OW  HW  HW  EP  OW  HW  HW  EP  OW  HW  HW  EP  OW  HW  HW  EP  OW  HW  HW  
EP  OW  HW  HW  EP  OW  HW  HW  EP  OW  HW  HW  EP  OW  HW  HW  EP  OW  HW  HW  
EP  OW  HW  HW  EP  OW  HW  HW  EP  OW  HW  HW  EP  OW  HW  HW  EP  OW  HW  HW  
EP  OW  HW  HW  EP  OW  HW  HW  EP  OW  HW  HW  EP  OW  HW  HW  EP  OW  HW  HW  
EP  OW  HW  HW  EP  OW  HW  HW  EP  OW  HW  HW  EP  OW  HW  HW  EP  OW  HW  HW  
EP  OW  HW  HW  EP  OW  HW  HW  EP  OW  HW  HW  EP  OW  HW  HW  EP  OW  HW  HW  
EP  OW  HW  HW  EP  OW  HW  HW  EP  OW  HW  HW  EP  OW  HW  HW  EP  OW  HW  HW  
EP  OW  HW  HW  EP  OW  HW  HW  EP  OW  HW  HW  EP  OW  HW  HW  EP  OW  HW  HW  
EP  OW  HW  HW  EP  OW  HW  HW  EP  OW  HW  HW  EP  OW  HW  HW  EP  OW  HW  HW  
EP  OW  HW  HW  EP  OW  HW  HW  EP  OW  HW  HW  EP  OW  HW  HW  EP  OW  HW  HW  
EP  OW  HW  HW  EP  OW  HW  HW  EP  OW  HW  HW  EP  OW  HW  HW  EP  OW  HW  HW  
EP  OW  HW  HW  EP  OW  HW  HW  EP  OW  HW  HW  EP  OW  HW  HW  EP  OW  HW  HW  
EP  OW  HW  HW  EP  OW  HW  HW  EP  OW  HW  HW  EP  OW  HW  HW  EP  OW  HW  HW  
EP  OW  HW  HW  EP  OW  HW  HW  EP  OW  HW  HW  EP  OW  HW  HW  EP  OW  HW  HW  
EP  OW  HW  HW  EP  OW  HW  HW  EP  OW  HW  HW  EP  OW  HW  HW  EP  OW  HW  HW  
EP  OW  HW  HW  EP  OW  HW  HW  EP  OW  HW  HW  EP  OW  HW  HW  EP  OW  HW  HW  
EP  OW  HW  HW  EP  OW  HW  HW  EP  OW  HW  HW  EP  OW  HW  HW  EP  OW  HW  HW  
EP  OW  HW  HW  EP  OW  HW  HW  EP  OW  HW  HW  EP  OW  HW  HW  EP  OW  HW  HW  
EP  OW  HW  HW  EP  OW  HW  HW  EP  OW  HW  HW  EP  OW  HW  HW  EP  OW  HW  HW  
EP  OW  HW  HW  EP  OW  HW  HW  EP  OW  HW  HW  EP  OW  HW  HW  EP  OW  HW  HW  
EP  OW  HW  HW  EP  OW  HW  HW  EP  OW  HW  HW  EP  OW  HW  HW  EP  OW  HW  HW  
EP  OW  HW  HW  EP  OW  HW  HW  EP  OW  HW  HW  EP  OW  HW  HW  EP  OW  HW  HW  
EP  OW  HW  HW  EP  OW  HW  HW  EP  OW  HW  HW  EP  OW  HW  HW  EP  OW  HW  HW  
EP  OW  HW  HW  EP  OW  HW  HW  EP  OW  HW  HW  EP  OW  HW  HW  EP  OW  HW  HW  
EP  OW  HW  HW  EP  OW  HW  HW  EP  OW  HW  HW  EP  OW  HW  HW  EP  OW  HW  HW  
EP  OW  HW  HW  EP  OW  HW  HW  EP  OW  HW  HW  EP  OW  HW  HW  EP  OW  HW  HW  
EP  OW  HW  HW  EP  OW  HW  HW  EP  OW  HW  HW  EP  OW  HW  HW  EP  OW  HW  HW  
EP  OW  HW  HW  EP  OW  HW  HW  EP  OW  HW  HW  EP  OW  HW  HW  EP  OW  HW  HW  
EP  OW  HW  HW  EP  OW  HW  HW  EP  OW  HW  HW  EP  OW  HW  HW  EP  OW  HW  HW  
EP  OW  HW  HW  EP  OW  HW  HW  EP  OW  HW  HW  EP  OW  HW  HW  EP  OW  HW  HW  
EP  OW  HW  HW  EP  OW  HW  HW  EP  OW  HW  HW  EP  OW  HW  HW  EP  OW  HW  HW  
EP  OW  HW  HW  EP  OW  HW  HW  EP  OW  HW  HW  EP  OW  HW  HW  EP  OW  HW  HW  
EP  OW  HW  HW  EP  OW  HW  HW  EP  OW  HW  HW  EP  OW  HW  HW  EP  OW  HW  HW  
EP  OW  HW  HW  EP  OW  HW  HW  EP  OW  HW  HW  EP  OW  HW  HW  EP  OW  HW  HW  
EP  OW  HW  HW  EP  OW  HW  HW  EP  OW  HW  HW  EP  OW  HW  HW  EP  OW  HW  HW  
EP  OW  HW  HW  EP  OW  HW  HW  EP  OW  HW  HW  EP  OW  HW  HW  EP  OW  HW  HW  
EP  OW  HW  HW  EP  OW  HW  HW  EP  OW  HW  HW  EP  OW  HW  HW  EP  OW  HW  HW  
EP  OW  HW  HW  EP  OW  HW  HW  EP  OW  HW  HW  EP  OW  HW  HW  EP  OW  HW  HW  
EP  OW  HW  HW  EP  OW  HW  HW  EP  OW  HW  HW  EP  OW  HW  HW  EP  OW  HW  HW  
EP  OW  HW  HW  EP  OW  HW  HW  EP  OW  HW  HW  EP  OW  HW  HW  EP  OW  HW  HW  
EP  OW  HW  HW  EP  OW  HW  HW  EP  OW  HW  HW  EP  OW  HW  HW  EP  OW  HW  HW  
EP  OW  HW  HW  EP  OW  HW  HW  EP  OW  HW  HW  EP  OW  HW  HW  EP  OW  HW  HW  
EP  OW  HW  HW  EP  OW  HW  HW  EP  OW  HW  HW  EP  OW  HW  HW  EP  OW  HW  HW  
EP  OW  HW  HW  EP  OW  HW  HW  EP  OW  HW  HW  EP  OW  HW  HW  EP  OW  HW  HW  
EP  OW  HW  HW  EP  OW  HW  HW  EP  OW  HW  HW  EP  OW  HW  HW  EP  OW  HW  HW  
EP  OW  HW  HW  EP  OW  HW  HW  EP  OW  HW  HW  EP  OW  HW  HW  EP  OW  HW  HW  
EP  OW  HW  HW  EP  OW  HW  HW  EP  OW  HW  HW  EP  OW  HW  HW  EP  OW  HW  HW  
EP  OW  HW  HW  EP  OW  HW  HW  EP  OW  HW  HW  EP  OW  HW  HW  EP  OW  HW  HW  
EP  OW  HW  HW  EP  OW  HW  HW  EP  OW  HW  HW  EP  OW  HW  HW  EP  OW  HW  HW  
EP  OW  HW  HW  EP  OW  HW  HW  EP  OW  HW  HW  EP  OW  HW  HW  EP  OW  HW  HW  
EP  OW  HW  HW  EP  OW  HW  HW  EP  OW  HW  HW  EP  OW  HW  HW  EP  OW  HW  HW  
EP  OW  HW  HW  EP  OW  HW  HW  EP  OW  HW  HW  EP  OW  HW  HW  EP  OW  HW  HW  
EP  OW  HW  HW  EP  OW  HW  HW  EP  OW  HW  HW  EP  OW  HW  HW  EP  OW  HW  HW  
EP  OW  HW  HW  EP  OW  HW  HW  EP  OW  HW  HW  EP  OW  HW  HW  EP  OW  HW  HW  
EP  OW  HW  HW  EP  OW  HW  HW  EP  OW  HW  HW  EP  OW  HW  HW  EP  OW  HW  HW  
EP  OW  HW  HW  EP  OW  HW  HW  EP  OW  HW  HW  EP  OW  HW  HW  EP  OW  HW  HW  
EP  OW  HW  HW  EP  OW  HW  HW  EP  OW  HW  HW  EP  OW  HW  HW  EP  OW  HW  HW  
EP  OW  HW  HW  EP  OW  HW  HW  EP  OW  HW  HW  EP  OW  HW  HW  EP  OW  HW  HW  
EP  OW  HW  HW  EP  OW  HW  HW  EP  OW  HW  HW  EP  OW  HW  HW  EP  OW  HW  HW  
EP  OW  HW  HW  EP  OW  HW  HW  EP  OW  HW  HW  EP  OW  HW  HW  EP  OW  HW  HW  
EP  OW  HW  HW  EP  OW  HW  HW  EP  OW  HW  HW  EP  OW  HW  HW  EP  OW  HW  HW  
EP  OW  HW  HW  EP  OW  HW  HW  EP  OW  HW  HW  EP  OW  HW  HW  EP  OW  HW  HW  
EP  OW  HW  HW  EP  OW  HW  HW  EP  OW  HW  HW  EP  OW  HW  HW  EP  OW  HW  HW  
EP  OW  HW  HW  EP  OW  HW  HW  EP  OW  HW  HW  EP  OW  HW  HW  EP  OW  HW  HW  
EP  OW  HW  HW  EP  OW  HW  HW  EP  OW  HW  HW  EP  OW  HW  HW  EP  OW  HW  HW  
EP  OW  HW  HW  EP  OW  HW  HW  EP  OW  HW  HW  EP  OW  HW  HW  EP  OW  HW  HW  
EP  OW  HW  HW  EP  OW  HW  HW  EP  OW  HW  HW  EP  OW  HW  HW  EP  OW  HW  HW  
EP  OW  HW  HW  EP  OW  HW  HW  EP  OW  HW  HW  EP  OW  HW  HW  EP  OW  HW  HW  
EP  OW  HW  HW  EP  OW  HW  HW  EP  OW  HW  HW  EP  OW  HW  HW  EP  OW  HW  HW  
EP  OW  HW  HW  EP  OW  HW  HW  EP  OW  HW  HW  EP  OW  HW  HW  EP  OW  HW  HW  
EP  OW  HW  HW  EP  OW  HW  HW  EP  OW  HW  HW  EP  OW  HW  HW  EP  OW  HW  HW  
EP  OW  HW  HW  EP  OW  HW  HW  EP  OW  HW  HW  EP  OW  HW  HW  EP  OW  HW  HW  
EP  OW  HW  HW  EP  OW  HW  HW  EP  OW  HW  HW  EP  OW  HW  HW  EP  OW  HW  HW  
EP  OW  HW  HW  EP  OW  HW  HW  EP  OW  HW  HW  EP  OW  HW  HW  EP  OW  HW  HW  
EP  OW  HW  HW  EP  OW  HW  HW  EP  OW  HW  HW  EP  OW  HW  HW  EP  OW  HW  HW  
EP  OW  HW  HW  EP  OW  HW  HW  EP  OW  HW  HW  EP  OW  HW  HW  EP  OW  HW  HW  
EP  OW  HW  HW  EP  OW  HW  HW  EP  OW  HW  HW  EP  OW  HW  HW  EP  OW  HW  HW  
EP  OW  HW  HW  EP  OW  HW  HW  EP  OW  HW  HW  EP  OW  HW  HW  EP  OW  HW  HW  
EP  OW  HW  HW  EP  OW  HW  HW  EP  OW  HW  HW  EP  OW  HW  HW  EP  OW  HW  HW  
EP  OW  HW  HW  EP  OW  HW  HW  EP  OW  HW  HW  EP  OW  HW  HW  EP  OW  HW  HW  
EP  OW  HW  HW  EP  OW  HW  HW  EP  OW  HW  HW  EP  OW  HW  HW  EP  OW  HW  HW  
EP  OW  HW  HW  EP  OW  HW  HW  EP  OW  HW  HW  EP  OW  HW  HW  EP  OW  HW  HW  
EP  OW  HW  HW  EP  OW  HW  HW  EP  OW  HW  HW  EP  OW  HW  HW  EP  OW  HW  HW  
EP  OW  HW  HW  EP  OW  HW  HW  EP  OW  HW  HW  EP  OW  HW  HW  EP  OW  HW  HW  
EP  OW  HW  HW  EP  OW  HW  HW  EP  OW  HW  HW  EP  OW  HW  HW  EP  OW  HW  HW  
EP  OW  HW  HW  EP  OW  HW  HW  EP  OW  HW  HW  EP  OW  HW  HW  EP  OW  HW  HW  
EP  OW  HW  HW  EP  OW  HW  HW  EP  OW  HW  HW  EP  OW  HW  HW  EP  OW  HW  HW  
EP  OW  HW  HW  EP  OW  HW  HW  EP  OW  HW  HW  EP  OW  HW  HW  EP  OW  HW  HW  
EP  OW  HW  HW  EP  OW  HW  HW  EP  OW  HW  HW  EP  OW  HW  HW  EP  OW  HW  HW  
EP  OW  HW  HW  EP  OW  HW  HW  EP  OW  HW  HW  EP  OW  HW  HW  EP  OW  HW  HW  
EP  OW  HW  HW  EP  OW  HW  HW  EP  OW  HW  HW  EP  OW  HW  HW  EP  OW  HW  HW  
EP  OW  HW  HW  EP  OW  HW  HW  EP  OW  HW  HW  EP  OW  HW  HW  EP  OW  HW  HW  
EP  OW  HW  HW  EP  OW  HW  HW  EP  OW  HW  HW  EP  OW  HW  HW  EP  OW  HW  HW  
EP  OW  HW  HW  EP  OW  HW  HW  EP  OW  HW  HW  EP  OW  HW  HW  EP  OW  HW  HW  
EP  OW  HW  HW  EP  OW  HW  HW  EP  OW  HW  HW  EP  OW  HW  HW  EP  OW  HW  HW  
EP  OW  HW  HW  EP  OW  HW  HW  EP  OW  HW  HW  EP  OW  HW  HW  EP  OW  HW  HW  
EP  OW  HW  HW  EP  OW  HW  HW  EP  OW  HW  HW  EP  OW  HW  HW  EP  OW  HW  HW  
EP  OW  HW  HW  EP  OW  HW  HW  EP  OW  HW  HW  EP  OW  HW  HW  EP  OW  HW  HW  
EP  OW  HW  HW  EP  OW  HW  HW  EP  OW  HW  HW  EP  OW  HW  HW  EP  OW  HW  HW  
EP  OW  HW  HW  EP  OW  HW  HW  EP  OW  HW  HW  EP  OW  HW  HW  EP  OW  HW  HW  
EP  OW  HW  HW  EP  OW  HW  HW  EP  OW  HW  HW  EP  OW  HW  HW  EP  OW  HW  HW  
EP  OW  HW  HW  EP  OW  HW  HW  EP  OW  HW  HW  EP  OW  HW  HW  EP  OW  HW  HW  
EP  OW  HW  HW  EP  OW  HW  HW  EP  OW  HW  HW  EP  OW  HW  HW  EP  OW  HW  HW  
EP  OW  HW  HW  EP  OW  HW  HW  EP  OW  HW  HW  EP  OW  HW  HW  EP  OW  HW  HW  
EP  OW  HW  HW  EP  OW  HW  HW  EP  OW  HW  HW  EP  OW  HW  HW  EP  OW  HW  HW  
EP  OW  HW  HW  EP  OW  HW  HW  EP  OW  HW  HW  EP  OW  HW  HW  EP  OW  HW  HW  
EP  OW  HW  HW  EP  OW  HW  HW  EP  OW  HW  HW  EP  OW  HW  HW  EP  OW  HW  HW  
EP  OW  HW  HW  EP  OW  HW  HW  EP  OW  HW  HW  EP  OW  HW  HW  EP  OW  HW  HW  
EP  OW  HW  HW  EP  OW  HW  HW  EP  OW  HW  HW  EP  OW  HW  HW  EP  OW  HW  HW  
EP  OW  HW  HW  EP  OW  HW  HW  EP  OW  HW  HW  EP  OW  HW  HW  EP  OW  HW  HW  
EP  OW  HW  HW  EP  OW  HW  HW  EP  OW  HW  HW  EP  OW  HW  HW  EP  OW  HW  HW  
EP  OW  HW  HW  EP  OW  HW  HW  EP  OW  HW  HW  EP  OW  HW  HW  EP  OW  HW  HW  
EP  OW  HW  HW  EP  OW  HW  HW  EP  OW  HW  HW  EP  OW  HW  HW  EP  OW  HW  HW  
EP  OW  HW  HW  EP  OW  HW  HW  EP  OW  HW  HW  EP  OW  HW  HW  EP  OW  HW  HW  
EP  OW  HW  HW  EP  OW  HW  HW  EP  OW  HW  HW  EP  OW  HW  HW  EP  OW  HW  HW  
EP  OW  HW  HW  EP  OW  HW  HW  EP  OW  HW  HW  EP  OW  HW  HW  EP  OW  HW  HW  
EP  OW  HW  HW  EP  OW  HW  HW  EP  OW  HW  HW  EP  OW  HW  HW  EP  OW  HW  HW  
EP  OW  HW  HW  EP  OW  HW  HW  EP  OW  HW  HW  EP  OW  HW  HW  EP  OW  HW  HW  
EP  OW  HW  HW  EP  OW  HW  HW  EP  OW  HW  HW  EP  OW  HW  HW  EP  OW  HW  HW  
EP  OW  HW  HW  EP  OW  HW  HW  EP  OW  HW  HW  EP  OW  HW  HW  EP  OW  HW  HW  
EP  OW  HW  HW  EP  OW  HW  HW  EP  OW  HW  HW  EP  OW  HW  HW  EP  OW  HW  HW  
EP  OW  HW  HW  EP  OW  HW  HW  EP  OW  HW  HW  EP  OW  HW  HW  EP  OW  HW  HW  
EP  OW  HW  HW  EP  OW  HW  HW  EP  OW  HW  HW  EP  OW  HW  HW  EP  OW  HW  HW  
EP  OW  HW  HW  EP  OW  HW  HW  EP  OW  HW  HW  EP  OW  HW  HW  EP  OW  HW  HW  
EP  OW  HW  HW  EP  OW  HW  HW  EP  OW  HW  HW  EP  OW  HW  HW  EP  OW  HW  HW  
EP  OW  HW  HW  EP  OW  HW  HW  EP  OW  HW  HW  EP  OW  HW  HW  EP  OW  HW  HW  
EP  OW  HW  HW  EP  OW  HW  HW  EP  OW  HW  HW  EP  OW  HW  HW  EP  OW  HW  HW  
EP  OW  HW  HW  EP  OW  HW  HW  EP  OW  HW  HW  EP  OW  HW  HW  EP  OW  HW  HW  
EP  OW  HW  HW  EP  OW  HW  HW  EP  OW  HW  HW  EP  OW  HW  HW  EP  OW  HW  HW  
EP  OW  HW  HW  EP  OW  HW  HW  EP  OW  HW  HW  EP  OW  HW  HW  EP  OW  HW  HW  
EP  OW  HW  HW  EP  OW  HW  HW  EP  OW  HW  HW  EP  OW  HW  HW  EP  OW  HW  HW  
EP  OW  HW  HW  EP  OW  HW  HW  EP  OW  HW  HW  EP  OW  HW  HW  EP  OW  HW  HW  
EP  OW  HW  HW  EP  OW  HW  HW  EP  OW  HW  HW  EP  OW  HW  HW  EP  OW  HW  HW  
EP  OW  HW  HW  EP  OW  HW  HW  EP  OW  HW  HW  EP  OW  HW  HW  EP  OW  HW  HW  
EP  OW  HW  HW  EP  OW  HW  HW  EP  OW  HW  HW  EP  OW  HW  HW  EP  OW  HW  HW  
EP  OW  HW  HW  EP  OW  HW  HW  EP  OW  HW  HW  EP  OW  HW  HW  EP  OW  HW  HW  
EP  OW  HW  HW  EP  OW  HW  HW  EP  OW  HW  HW  EP  OW  HW  HW  EP  OW  HW  HW  
EP  OW  HW  HW  EP  OW  HW  HW  EP  OW  HW  HW  EP  OW  HW  HW  EP  OW  HW  HW  
EP  OW  HW  HW  EP  OW  HW  HW  EP  OW  HW  HW  EP  OW  HW  HW  EP  OW  HW  HW  
EP  OW  HW  HW  EP  OW  HW  HW  EP  OW  HW  HW  EP  OW  HW  HW  EP  OW  HW  HW  
EP  OW  HW  HW  EP  OW  HW  HW  EP  OW  HW  HW  EP  OW  HW  HW  EP  OW  HW  HW  
EP  OW  HW  HW  EP  OW  HW  HW  EP  OW  HW  HW  EP  OW  HW  HW  EP  OW  HW  HW  
EP  OW  HW  HW  EP  OW  HW  HW  EP  OW  HW  HW  EP  OW  HW  HW  EP  OW  HW  HW  
EP  OW  HW  HW  EP  OW  HW  HW  EP  OW  HW  HW  EP  OW  HW  HW  EP  OW  HW  HW  
EP  OW  HW  HW  EP  OW  HW  HW  EP  OW  HW  HW  EP  OW  HW  HW  EP  OW  HW  HW  
EP  OW  HW  HW  EP  OW  HW  HW  EP  OW  HW  HW  EP  OW  HW  HW  EP  OW  HW  HW  
EP  OW  HW  HW  EP  OW  HW  HW  EP  OW  HW  HW  EP  OW  HW  HW  EP  OW  HW  HW  
EP  OW  HW  HW  EP  OW  HW  HW  EP  OW  HW  HW  EP  OW  HW  HW  EP  OW  HW  HW  
EP  OW  HW  HW  EP  OW  HW  HW  EP  OW  HW  HW  EP  OW  HW  HW  EP  OW  HW  HW  
EP  OW  HW  HW  EP  OW  HW  HW  EP  OW  HW  HW  EP  OW  HW  HW  EP  OW  HW  HW  
EP  OW  HW  HW  EP  OW  HW  HW  EP  OW  HW  HW  EP  OW  HW  HW  EP  OW  HW  HW  
EP  OW  HW  HW  EP  OW  HW  HW  EP  OW  HW  HW  EP  OW  HW  HW  EP  OW  HW  HW  
EP  OW  HW  HW  EP  OW  HW  HW  EP  OW  HW  HW  EP  OW  HW  HW  EP  OW  HW  HW  
EP  OW  HW  HW  EP  OW  HW  HW  EP  OW  HW  HW  EP  OW  HW  HW  EP  OW  HW  HW  
EP  OW  HW  HW  EP  OW  HW  HW  EP  OW  HW  HW  EP  OW  HW  HW  EP  OW  HW  HW  
EP  OW  HW  HW  EP  OW  HW  HW  EP  OW  HW  HW  EP  OW  HW  HW  EP  OW  HW  HW  
EP  OW  HW  HW  EP  OW  HW  HW  EP  OW  HW  HW  EP  OW  HW  HW  EP  OW  HW  HW  
EP  OW  HW  HW  EP  OW  HW  HW  EP  OW  HW  HW  EP  OW  HW  HW  EP  OW  HW  HW  
EP  OW  HW  HW  EP  OW  HW  HW  EP  OW  HW  HW  EP  OW  HW  HW  EP  OW  HW  HW  
EP  OW  HW  HW  EP  OW  HW  HW  EP  OW  HW  HW  EP  OW  HW  HW  EP  OW  HW  HW  
EP  OW  HW  HW  EP  OW  HW  HW  EP  OW  HW  HW  EP  OW  HW  HW  EP  OW  HW  HW  
EP  OW  HW  HW  EP  OW  HW  HW  EP  OW  HW  HW  EP  OW  HW  HW  EP  OW  HW  HW  
EP  OW  HW  HW  EP  OW  HW  HW  EP  OW  HW  HW  EP  OW  HW  HW  EP  OW  HW  HW  
EP  OW  HW  HW  EP  OW  HW  HW  EP  OW  HW  HW  EP  OW  HW  HW  EP  OW  HW  HW  
EP  OW  HW  HW  EP  OW  HW  HW  EP  OW  HW  HW  EP  OW  HW  HW  EP  OW  HW  HW  
EP  OW  HW  HW  EP  OW  HW  HW  EP  OW  HW  HW  EP  OW  HW  HW  EP  OW  HW  HW  
EP  OW  HW  HW  EP  OW  HW  HW  EP  OW  HW  HW  EP  OW  HW  HW  EP  OW  HW  HW  
EP  OW  HW  HW  EP  OW  HW  HW  EP  OW  HW  HW  EP  OW  HW  HW  EP  OW  HW  HW  
EP  OW  HW  HW  EP  OW  HW  HW  EP  OW  HW  HW  EP  OW  HW  HW  EP  OW  HW  HW  
EP  OW  HW  HW  EP  OW  HW  HW  EP  OW  HW  HW  EP  OW  HW  HW  EP  OW  HW  HW  
EP  OW  HW  HW  EP  OW  HW  HW  EP  OW  HW  HW  EP  OW  HW  HW  EP  OW  HW  HW  
EP  OW  HW  HW  EP  OW  HW  HW  EP  OW  HW  HW  EP  OW  HW  HW  EP  OW  HW  HW  
EP  OW  HW  HW  EP  OW  HW  HW  EP  OW  HW  HW  EP  OW  HW  HW  EP  OW  HW  HW  
EP  OW  HW  HW  EP  OW  HW  HW  EP  OW  HW  HW  EP  OW  HW  HW  EP  OW  HW  HW  
EP  OW  HW  HW  EP  OW  HW  HW  EP  OW  HW  HW  EP  OW  HW  HW  EP  OW  HW  HW  
EP  OW  HW  HW  EP  OW  HW  HW  EP  OW  HW  HW  EP  OW  HW  HW  EP  OW  HW  HW  
EP  OW  HW  HW  EP  OW  HW  HW  EP  OW  HW  HW  EP  OW  HW  HW  EP  OW  HW  HW  
EP  OW  HW  HW  EP  OW  HW  HW  EP  OW  HW  HW  EP  OW  HW  HW  EP  OW  HW  HW  
EP  OW  HW  HW  EP  OW  HW  HW  EP  OW  HW  HW  EP  OW  HW  HW  EP  OW  HW  HW  
EP  OW  HW  HW  EP  OW  HW  HW  EP  OW  HW  HW  EP  OW  HW  HW  EP  OW  HW  HW  
EP  OW  HW  HW  EP  OW  HW  HW  EP  OW  HW  HW  EP  OW  HW  HW  EP  OW  HW  HW  
EP  OW  HW  HW  EP  OW  HW  HW  EP  OW  HW  HW  EP  OW  HW  HW  EP  OW  HW  HW  
EP  OW  HW  HW  EP  OW  HW  HW  EP  OW  HW  HW  EP  OW  HW  HW  EP  OW  HW  HW  
EP  OW  HW  HW  EP  OW  HW  HW  EP  OW  HW  HW  EP  OW  HW  HW  EP  OW  HW  HW  
EP  OW  HW  HW  EP  OW  HW  HW  EP  OW  HW  HW  EP  OW  HW  HW  EP  OW  HW  HW  
EP  OW  HW  HW  EP  OW  HW  HW  EP  OW  HW  HW  EP  OW  HW  HW  EP  OW  HW  HW  
EP  OW  HW  HW  EP  OW  HW  HW  EP  OW  HW  HW  EP  OW  HW  HW  EP  OW  HW  HW  
EP  OW  HW  HW  EP  OW  HW  HW  EP  OW  HW  HW  EP  OW  HW  HW  EP  OW  HW  HW  
EP  OW  HW  HW  EP  OW  HW  HW  EP  OW  HW  HW  EP  OW  HW  HW  EP  OW  HW  HW  
EP  OW  HW  HW  EP  OW  HW  HW  EP  OW  HW  HW  EP  OW  HW  HW  EP  OW  HW  HW  
EP  OW  HW  HW  EP  OW  HW  HW  EP  OW  HW  HW  EP  OW  HW  HW  EP  OW  HW  HW  
EP  OW  HW  HW  EP  OW  HW  HW  EP  OW  HW  HW  EP  OW  HW  HW  EP  OW  HW  HW  
EP  OW  HW  HW  EP  OW  HW  HW  EP  OW  HW  HW  EP  OW  HW  HW  EP  OW  HW  HW  
EP  OW  HW  HW  EP  OW  HW  HW  EP  OW  HW  HW  EP  OW  HW  HW  EP  OW  HW  HW  
EP  OW  HW  HW  EP  OW  HW  HW  EP  OW  HW  HW  EP  OW  HW  HW  EP  OW  HW  HW  
EP  OW  HW  HW  EP  OW  HW  HW  EP  OW  HW  HW  EP  OW  HW  HW  EP  OW  HW  HW  
EP  OW  HW  HW  EP  OW  HW  HW  EP  OW  HW  HW  EP  OW  HW  HW  EP  OW  HW  HW  
EP  OW  HW  HW  EP  OW  HW  HW  EP  OW  HW  HW  EP  OW  HW  HW  EP  OW  HW  HW  
EP  OW  HW  HW  EP  OW  HW  HW  EP  OW  HW  HW  EP  OW  HW  HW  EP  OW  HW  HW  
EP  OW  HW  HW  EP  OW  HW  HW  EP  OW  HW  HW  EP  OW  HW  HW  EP  OW  HW  HW  
EP  OW  HW  HW  EP  OW  HW  HW  EP  OW  HW  HW  EP  OW  HW  HW  EP  OW  HW  HW  
EP  OW  HW  HW  EP  OW  HW  HW  EP  OW  HW  HW  EP  OW  HW  HW  EP  OW  HW  HW  
EP  OW  HW  HW  EP  OW  HW  HW  EP  OW  HW  HW  EP  OW  HW  HW  EP  OW  HW  HW  
EP  OW  HW  HW  EP  OW  HW  HW  EP  OW  HW  HW  EP  OW  HW  HW  EP  OW  HW  HW  
EP  OW  HW  HW  EP  OW  HW  HW  EP  OW  HW  HW  EP  OW  HW  HW  EP  OW  HW  HW  
EP  OW  HW  HW  EP  OW  HW  HW  EP  OW  HW  HW  EP  OW  HW  HW  EP  OW  HW  HW  
EP  OW  HW  HW  EP  OW  HW  HW  EP  OW  HW  HW  EP  OW  HW  HW  EP  OW  HW  HW  
EP  OW  HW  HW  EP  OW  HW  HW  EP  OW  HW  HW  EP  OW  HW  HW  EP  OW  HW  HW  
EP  OW  HW  HW  EP  OW  HW  HW  EP  OW  HW  HW  EP  OW  HW  HW  EP  OW  HW  HW  
EP  OW  HW  HW  EP  OW  HW  HW  EP  OW  HW  HW  EP  OW  HW  HW  EP  OW  HW  HW  
EP  OW  HW  HW  EP  OW  HW  HW  EP  OW  HW  HW  EP  OW  HW  HW  EP  OW  HW  HW  
EP  OW  HW  HW  EP  OW  HW  HW  EP  OW  HW  HW  EP  OW  HW  HW  EP  OW  HW  HW  
EP  OW  HW  HW  EP  OW  HW  HW  EP  OW  HW  HW  EP  OW  HW  HW  EP  OW  HW  HW  
EP  OW  HW  HW  EP  OW  HW  HW  EP  OW  HW  HW  EP  OW  HW  HW  EP  OW  HW  HW  
EP  OW  HW  HW  EP  OW  HW  HW  EP  OW  HW  HW  EP  OW  HW  HW  EP  OW  HW  HW  
EP  OW  HW  HW  EP  OW  HW  HW  EP  OW  HW  HW  EP  OW  HW  HW  EP  OW  HW  HW  
EP  OW  HW  HW  EP  OW  HW  HW  EP  OW  HW  HW  EP  OW  HW  HW  EP  OW  HW  HW  
EP  OW  HW  HW  EP  OW  HW  HW  EP  OW  HW  HW  EP  OW  HW  HW  EP  OW  HW  HW  
EP  OW  HW  HW  EP  OW  HW  HW  EP  OW  HW  HW  EP  OW  HW  HW  EP  OW  HW  HW  
EP  OW  HW  HW  EP  OW  HW  HW  EP  OW  HW  HW  EP  OW  HW  HW  EP  OW  HW  HW  
EP  OW  HW  HW  EP  OW  HW  HW  EP  OW  HW  HW  EP  OW  HW  HW  EP  OW  HW  HW  
EP  OW  HW  HW  EP  OW  HW  HW  EP  OW  HW  HW  EP  OW  HW  HW  EP  OW  HW  HW  
EP  OW  HW  HW  EP  OW  HW  HW  EP  OW  HW  HW  EP  OW  HW  HW  EP  OW  HW  HW  
EP  OW  HW  HW  EP  OW  HW  HW  EP  OW  HW  HW  EP  OW  HW  HW  EP  OW  HW  HW  
EP  OW  HW  HW  EP  OW  HW  HW  EP  OW  HW  HW  EP  OW  HW  HW  EP  OW  HW  HW  
EP  OW  HW  HW  EP  OW  HW  HW  EP  OW  HW  HW  EP  OW  HW  HW  EP  OW  HW  HW  
EP  OW  HW  HW  EP  OW  HW  HW  EP  OW  HW  HW  EP  OW  HW  HW  EP  OW  HW  HW  
EP  OW  HW  HW  EP  OW  HW  HW  EP  OW  HW  HW  EP  OW  HW  HW  EP  OW  HW  HW  
EP  OW  HW  HW  EP  OW  HW  HW  EP  OW  HW  HW  EP  OW  HW  HW  EP  OW  HW  HW  
EP  OW  HW  HW  EP  OW  HW  HW  EP  OW  HW  HW  EP  OW  HW  HW  EP  OW  HW  HW  
EP  OW  HW  HW  EP  OW  HW  HW  EP  OW  HW  HW  EP  OW  HW  HW  EP  OW  HW  HW  
EP  OW  HW  HW  EP  OW  HW  HW  EP  OW  HW  HW  EP  OW  HW  HW  EP  OW  HW  HW  
EP  OW  HW  HW  EP  OW  HW  HW  EP  OW  HW  HW  EP  OW  HW  HW  EP  OW  HW  HW  
EP  OW  HW  HW  EP  OW  HW  HW  EP  OW  HW  HW  EP  OW  HW  HW  EP  OW  HW  HW  
EP  OW  HW  HW  EP  OW  HW  HW  EP  OW  HW  HW  EP  OW  HW  HW  EP  OW  HW  HW  
EP  OW  HW  HW  EP  OW  HW  HW  EP  OW  HW  HW  EP  OW  HW  HW  EP  OW  HW  HW  
EP  OW  HW  HW  EP  OW  HW  HW  EP  OW  HW  HW  EP  OW  HW  HW  EP  OW  HW  HW  
EP  OW  HW  HW  EP  OW  HW  HW  EP  OW  HW  HW  EP  OW  HW  HW  EP  OW  HW  HW  
EP  OW  HW  HW  EP  OW  HW  HW  EP  OW  HW  HW  EP  OW  HW  HW  EP  OW  HW  HW  
EP  OW  HW  HW  EP  OW  HW  HW  EP  OW  HW  HW  EP  OW  HW  HW  EP  OW  HW  HW  
EP  OW  HW  HW  EP  OW  HW  HW  EP  OW  HW  HW  EP  OW  HW  HW  EP  OW  HW  HW  
EP  OW  HW  HW  EP  OW  HW  HW  EP  OW  HW  HW  EP  OW  HW  HW  EP  OW  HW  HW  
EP  OW  HW  HW  EP  OW  HW  HW  EP  OW  HW  HW  EP  OW  HW  HW  EP  OW  HW  HW  
EP  OW  HW  HW  EP  OW  HW  HW  EP  OW  HW  HW  EP  OW  HW  HW  EP  OW  HW  HW  
EP  OW  HW  HW  EP  OW  HW  HW  EP  OW  HW  HW  EP  OW  HW  HW  EP  OW  HW  HW  
EP  OW  HW  HW  EP  OW  HW  HW  EP  OW  HW  HW  EP  OW  HW  HW  EP  OW  HW  HW  
EP  OW  HW  HW  EP  OW  HW  HW  EP  OW  HW  HW  EP  OW  HW  HW  EP  OW  HW  HW  
EP  OW  HW  HW  EP  OW  HW  HW  EP  OW  HW  HW  EP  OW  HW  HW  EP  OW  HW  HW  
EP  OW  HW  HW  EP  OW  HW  HW  EP  OW  HW  HW  EP  OW  HW  HW  EP  OW  HW  HW  
EP  OW  HW  HW  EP  OW  HW  HW  EP  OW  HW  HW  EP  OW  HW  HW  EP  OW  HW  HW  
EP  OW  HW  HW  EP  OW  HW  HW  EP  OW  HW  HW  EP  OW  HW  HW  EP  OW  HW  HW  
EP  OW  HW  HW  EP  OW  HW  HW  EP  OW  HW  HW  EP  OW  HW  HW  EP  OW  HW  HW  
EP  OW  HW  HW  EP  OW  HW  HW  EP  OW  HW  HW  EP  OW  HW  HW  EP  OW  HW  HW  
EP  OW  HW  HW  EP  OW  HW  HW  EP  OW  HW  HW  EP  OW  HW  HW  EP  OW  HW  HW  
EP  OW  HW  HW  EP  OW  HW  HW  EP  OW  HW  HW  EP  OW  HW  HW  EP  OW  HW  HW  
EP  OW  HW  HW  EP  OW  HW  HW  EP  OW  HW  HW  EP  OW  HW  HW  EP  OW  HW  HW  
EP  OW  HW  HW  EP  OW  HW  HW  EP  OW  HW  HW  EP  OW  HW  HW  EP  OW  HW  HW  
EP  OW  HW  HW  EP  OW  HW  HW  EP  OW  HW  HW  EP  OW  HW  HW  EP  OW  HW  HW  
EP  OW  HW  HW  EP  OW  HW  HW  EP  OW  HW  HW  EP  OW  HW  HW  EP  OW  HW  HW  
EP  OW  HW  HW  EP  OW  HW  HW  EP  OW  HW  HW  EP  OW  HW  HW  EP  OW  HW  HW  
EP  OW  HW  HW  EP  OW  HW  HW  EP  OW  HW  HW  EP  OW  HW  HW  EP  OW  HW  HW  
EP  OW  HW  HW  EP  OW  HW  HW  EP  OW  HW  HW  EP  OW  HW  HW  EP  OW  HW  HW  
EP  OW  HW  HW  EP  OW  HW  HW  EP  OW  HW  HW  EP  OW  HW  HW  EP  OW  HW  HW  
EP  OW  HW  HW  EP  OW  HW  HW  EP  OW  HW  HW  EP  OW  HW  HW  EP  OW  HW  HW  
EP  OW  HW  HW  EP  OW  HW  HW  EP  OW  HW  HW  EP  OW  HW  HW  EP  OW  HW  HW  
EP  OW  HW  HW  EP  OW  HW  HW  EP  OW  HW  HW  EP  OW  HW  HW  EP  OW  HW  HW  
EP  OW  HW  HW  EP  OW  HW  HW  EP  OW  HW  HW  EP  OW  HW  HW  EP  OW  HW  HW  
EP  OW  HW  HW  EP  OW  HW  HW  EP  OW  HW  HW  EP  OW  HW  HW  EP  OW  HW  HW  
EP  OW  HW  HW  EP  OW  HW  HW  EP  OW  HW  HW  EP  OW  HW  HW  EP  OW  HW  HW  
EP  OW  HW  HW  EP  OW  HW  HW  EP  OW  HW  HW  EP  OW  HW  HW  EP  OW  HW  HW  
EP  OW  HW  HW  EP  OW  HW  HW  EP  OW  HW  HW  EP  OW  HW  HW  EP  OW  HW  HW  
EP  OW  HW  HW  EP  OW  HW  HW  EP  OW  HW  HW  EP  OW  HW  HW  EP  OW  HW  HW  
EP  OW  HW  HW  EP  OW  HW  HW  EP  OW  HW  HW  EP  OW  HW  HW  EP  OW  HW  HW  
EP  OW  HW  HW  EP  OW  HW  HW  EP  OW  HW  HW  EP  OW  HW  HW  EP  OW  HW  HW  
EP  OW  HW  HW  EP  OW  HW  HW  EP  OW  HW  HW  EP  OW  HW  HW  EP  OW  HW  HW  
EP  OW  HW  HW  EP  OW  HW  HW  EP  OW  HW  HW  EP  OW  HW  HW  EP  OW  HW  HW  
EP  OW  HW  HW  EP  OW  HW  HW  EP  OW  HW  HW  EP  OW  HW  HW  EP  OW  HW  HW  
EP  OW  HW  HW  EP  OW  HW  HW  EP  OW  HW  HW  EP  OW  HW  HW  EP  OW  HW  HW  
EP  OW  HW  HW  EP  OW  HW  HW  EP  OW  HW  HW  EP  OW  HW  HW  EP  OW  HW  HW  
EP  OW  HW  HW  EP  OW  HW  HW  EP  OW  HW  HW  EP  OW  HW  HW  EP  OW  HW  HW  
EP  OW  HW  HW  EP  OW  HW  HW  EP  OW  HW  HW  EP  OW  HW  HW  EP  OW  HW  HW  
EP  OW  HW  HW  EP  OW  HW  HW  EP  OW  HW  HW  EP  OW  HW  HW  EP  OW  HW  HW  
EP  OW  HW  HW  EP  OW  HW  HW  EP  OW  HW  HW  EP  OW  HW  HW  EP  OW  HW  HW  
EP  OW  HW  HW  EP  OW  HW  HW  EP  OW  HW  HW  EP  OW  HW  HW  EP  OW  HW  HW  
EP  OW  HW  HW  EP  OW  HW  HW  EP  OW  HW  HW  EP  OW  HW  HW  EP  OW  HW  HW  
EP  OW  HW  HW  EP  OW  HW  HW  EP  OW  HW  HW  EP  OW  HW  HW  EP  OW  HW  HW  
EP  OW  HW  HW  EP  OW  HW  HW  EP  OW  HW  HW  EP  OW  HW  HW  EP  OW  HW  HW  
EP  OW  HW  HW  EP  OW  HW  HW  EP  OW  HW  HW  EP  OW  HW  HW  EP  OW  HW  HW  
EP  OW  HW  HW  EP  OW  HW  HW  EP  OW  HW  HW  EP  OW  HW  HW  EP  OW  HW  HW  
EP  OW  HW  HW  EP  OW  HW  HW  EP  OW  HW  HW  EP  OW  HW  HW  EP  OW  HW  HW  
EP  OW  HW  HW  EP  OW  HW  HW  EP  OW  HW  HW  EP  OW  HW  HW  EP  OW  HW  HW  
EP  OW  HW  HW  EP  OW  HW  HW  EP  OW  HW  HW  EP  OW  HW  HW  EP  OW  HW  HW  
EP  OW  HW  HW  EP  OW  HW  HW  EP  OW  HW  HW  EP  OW  HW  HW  EP  OW  HW  HW  
EP  OW  HW  HW  EP  OW  HW  HW  EP  OW  HW  HW  EP  OW  HW  HW  EP  OW  HW  HW  
EP  OW  HW  HW  EP  OW  HW  HW  EP  OW  HW  HW  EP  OW  HW  HW  EP  OW  HW  HW  
EP  OW  HW  HW  EP  OW  HW  HW  EP  OW  HW  HW  EP  OW  HW  HW  EP  OW  HW  HW  
EP  OW  HW  HW  EP  OW  HW  HW  EP  OW  HW  HW  EP  OW  HW  HW  EP  OW  HW  HW  
EP  OW  HW  HW  EP  OW  HW  HW  EP  OW  HW  HW  EP  OW  HW  HW  EP  OW  HW  HW  
EP  OW  HW  HW  EP  OW  HW  HW  EP  OW  HW  HW  EP  OW  HW  HW  EP  OW  HW  HW  
EP  OW  HW  HW  EP  OW  HW  HW  EP  OW  HW  HW  EP  OW  HW  HW  EP  OW  HW  HW  
EP  OW  HW  HW  EP  OW  HW  HW  EP  OW  HW  HW  EP  OW  HW  HW  EP  OW  HW  HW  
EP  OW  HW  HW  EP  OW  HW  HW  EP  OW  HW  HW  EP  OW  HW  HW  EP  OW  HW  HW  
EP  OW  HW  HW  EP  OW  HW  HW  EP  OW  HW  HW  EP  OW  HW  HW  EP  OW  HW  HW  
EP  OW  HW  HW  EP  OW  HW  HW  EP  OW  HW  HW  EP  OW  HW  HW  EP  OW  HW  HW  
EP  OW  HW  HW  EP  OW  HW  HW  EP  OW  HW  HW  EP  OW  HW  HW  EP  OW  HW  HW  
EP  OW  HW  HW  EP  OW  HW  HW  EP  OW  HW  HW  EP  OW  HW  HW  EP  OW  HW  HW  
EP  OW  HW  HW  EP  OW  HW  HW  EP  OW  HW  HW  EP  OW  HW  HW  EP  OW  HW  HW  
EP  OW  HW  HW  EP  OW  HW  HW  EP  OW  HW  HW  EP  OW  HW  HW  EP  OW  HW  HW  
EP  OW  HW  HW  EP  OW  HW  HW  EP  OW  HW  HW  EP  OW  HW  HW  EP  OW  HW  HW  
EP  OW  HW  HW  EP  OW  HW  HW  EP  OW  HW  HW  EP  OW  HW  HW  EP  OW  HW  HW  
EP  OW  HW  HW  EP  OW  HW  HW  EP  OW  HW  HW  EP  OW  HW  HW  EP  OW  HW  HW  
EP  OW  HW  HW  EP  OW  HW  HW  EP  OW  HW  HW  EP  OW  HW  HW  EP  OW  HW  HW  
EP  OW  HW  HW  EP  OW  HW  HW  EP  OW  HW  HW  EP  OW  HW  HW  EP  OW  HW  HW  
EP  OW  HW  HW  EP  OW  HW  HW  EP  OW  HW  HW  EP  OW  HW  HW  EP  OW  HW  HW  
EP  OW  HW  HW  EP  OW  HW  HW  EP  OW  HW  HW  EP  OW  HW  HW  EP  OW  HW  HW  
EP  OW  HW  HW  EP  OW  HW  HW  EP  OW  HW  HW  EP  OW  HW  HW  EP  OW  HW  HW  
EP  OW  HW  HW  EP  OW  HW  HW  EP  OW  HW  HW  EP  OW  HW  HW  EP  OW  HW  HW  
EP  OW  HW  HW  EP  OW  HW  HW  EP  OW  HW  HW  EP  OW  HW  HW  EP  OW  HW  HW  
EP  OW  HW  HW  EP  OW  HW  HW  EP  OW  HW  HW  EP  OW  HW  HW  EP  OW  HW  HW  
EP  OW  HW  HW  EP  OW  HW  HW  EP  OW  HW  HW  EP  OW  HW  HW  EP  OW  HW  HW  
EP  OW  HW  HW  EP  OW  HW  HW  EP  OW  HW  HW  EP  OW  HW  HW  EP  OW  HW  HW  
EP  OW  HW  HW  EP  OW  HW  HW  EP  OW  HW  HW  EP  OW  HW  HW  EP  OW  HW  HW  
EP  OW  HW  HW  EP  OW  HW  HW  EP  OW  HW  HW  EP  OW  HW  HW  EP  OW  HW  HW  
EP  OW  HW  HW  EP  OW  HW  HW  EP  OW  HW  HW  EP  OW  HW  HW  EP  OW  HW  HW  
EP  OW  HW  HW  EP  OW  HW  HW  EP  OW  HW  HW  EP  OW  HW  HW  EP  OW  HW  HW  
EP  OW  HW  HW  EP  OW  HW  HW  EP  OW  HW  HW  EP  OW  HW  HW  EP  OW  HW  HW  
EP  OW  HW  HW  EP  OW  HW  HW  EP  OW  HW  HW  EP  OW  HW  HW  EP  OW  HW  HW  
EP  OW  HW  HW  EP  OW  HW  HW  EP  OW  HW  HW  EP  OW  HW  HW  EP  OW  HW  HW  
EP  OW  HW  HW  EP  OW  HW  HW  EP  OW  HW  HW  EP  OW  HW  HW  EP  OW  HW  HW  
EP  OW  HW  HW  EP  OW  HW  HW  EP  OW  HW  HW  EP  OW  HW  HW  EP  OW  HW  HW  
EP  OW  HW  HW  EP  OW  HW  HW  EP  OW  HW  HW  EP  OW  HW  HW  EP  OW  HW  HW  
EP  OW  HW  HW  EP  OW  HW  HW  EP  OW  HW  HW  EP  OW  HW  HW  EP  OW  HW  HW  
EP  OW  HW  HW  EP  OW  HW  HW  EP  OW  HW  HW  EP  OW  HW  HW  EP  OW  HW  HW  
EP  OW  HW  HW  EP  OW  HW  HW  EP  OW  HW  HW  EP  OW  HW  HW  EP  OW  HW  HW  
EP  OW  HW  HW  EP  OW  HW  HW  EP  OW  HW  HW  EP  OW  HW  HW  EP  OW  HW  HW  
EP  OW  HW  HW  EP  OW  HW  HW  EP  OW  HW  HW  EP  OW  HW  HW  EP  OW  HW  HW  
EP  OW  HW  HW  EP  OW  HW  HW  EP  OW  HW  HW  EP  OW  HW  HW  EP  OW  HW  HW  
EP  OW  HW  HW  EP  OW  HW  HW  EP  OW  HW  HW  EP  OW  HW  HW  EP  OW  HW  HW  
EP  OW  HW  HW  EP  OW  HW  HW  EP  OW  HW  HW  EP  OW  HW  HW  EP  OW  HW  HW  
EP  OW  HW  HW  EP  OW  HW  HW  EP  OW  HW  HW  EP  OW  HW  HW  EP  OW  HW  HW  
EP  OW  HW  HW  EP  OW  HW  HW  EP  OW  HW  HW  EP  OW  HW  HW  EP  OW  HW  HW  
EP  OW  HW  HW  EP  OW  HW  HW  EP  OW  HW  HW  EP  OW  HW  HW  EP  OW  HW  HW  
EP  OW  HW  HW  EP  OW  HW  HW  EP  OW  HW  HW  EP  OW  HW  HW  EP  OW  HW  HW  
EP  OW  HW  HW  EP  OW  HW  HW  EP  OW  HW  HW  EP  OW  HW  HW  EP  OW  HW  HW  
EP  OW  HW  HW  EP  OW  HW  HW  EP  OW  HW  HW  EP  OW  HW  HW  EP  OW  HW  HW  
EP  OW  HW  HW  EP  OW  HW  HW  EP  OW  HW  HW  EP  OW  HW  HW  EP  OW  HW  HW  
EP  OW  HW  HW  EP  OW  HW  HW  EP  OW  HW  HW  EP  OW  HW  HW  EP  OW  HW  HW  
EP  OW  HW  HW  EP  OW  HW  HW  EP  OW  HW  HW  EP  OW  HW  HW  EP  OW  HW  HW  
EP  OW  HW  HW  EP  OW  HW  HW  EP  OW  HW  HW  EP  OW  HW  HW  EP  OW  HW  HW  
EP  OW  HW  HW  EP  OW  HW  HW  EP  OW  HW  HW  EP  OW  HW  HW  EP  OW  HW  HW  
EP  OW  HW  HW  EP  OW  HW  HW  EP  OW  HW  HW  EP  OW  HW  HW  EP  OW  HW  HW  
EP  OW  HW  HW  EP  OW  HW  HW  EP  OW  HW  HW  EP  OW  HW  HW  EP  OW  HW  HW  
EP  OW  HW  HW  EP  OW  HW  HW  EP  OW  HW  HW  EP  OW  HW  HW  EP  OW  HW  HW  
EP  OW  HW  HW  EP  OW  HW  HW  EP  OW  HW  HW  EP  OW  HW  HW  EP  OW  HW  HW  
EP  OW  HW  HW  EP  OW  HW  HW  EP  OW  HW  HW  EP  OW  HW  HW  EP  OW  HW  HW  
EP  OW  HW  HW  EP  OW  HW  HW  EP  OW  HW  HW  EP  OW  HW  HW  EP  OW  HW  HW  
EP  OW  HW  HW  EP  OW  HW  HW  EP  OW  HW  HW  EP  OW  HW  HW  EP  OW  HW  HW  
EP  OW  HW  HW  EP  OW  HW  HW  EP  OW  HW  HW  EP  OW  HW  HW  EP  OW  HW  HW  
EP  OW  HW  HW  EP  OW  HW  HW  EP  OW  HW  HW  EP  OW  HW  HW  EP  OW  HW  HW  
EP  OW  HW  HW  EP  OW  HW  HW  EP  OW  HW  HW  EP  OW  HW  HW  EP  OW  HW  HW  
EP  OW  HW  HW  EP  OW  HW  HW  EP  OW  HW  HW  EP  OW  HW  HW  EP  OW  HW  HW  
EP  OW  HW  HW  EP  OW  HW  HW  EP  OW  HW  HW  EP  OW  HW  HW  EP  OW  HW  HW  
EP  OW  HW  HW  EP  OW  HW  HW  EP  OW  HW  HW  EP  OW  HW  HW  EP  OW  HW  HW  
EP  OW  HW  HW  EP  OW  HW  HW  EP  OW  HW  HW  EP  OW  HW  HW  EP  OW  HW  HW  
EP  OW  HW  HW  EP  OW  HW  HW  EP  OW  HW  HW  EP  OW  HW  HW  EP  OW  HW  HW  
EP  OW  HW  HW  EP  OW  HW  HW  EP  OW  HW  HW  EP  OW  HW  HW  EP  OW  HW  HW  
EP  OW  HW  HW  EP  OW  HW  HW  EP  OW  HW  HW  EP  OW  HW  HW  EP  OW  HW  HW  
EP  OW  HW  HW  EP  OW  HW  HW  EP  OW  HW  HW  EP  OW  HW  HW  EP  OW  HW  HW  
EP  OW  HW  HW  EP  OW  HW  HW  EP  OW  HW  HW  EP  OW  HW  HW  EP  OW  HW  HW  
EP  OW  HW  HW  EP  OW  HW  HW  EP  OW  HW  HW  EP  OW  HW  HW  EP  OW  HW  HW  
EP  OW  HW  HW  EP  OW  HW  HW  EP  OW  HW  HW  EP  OW  HW  HW  EP  OW  HW  HW  
EP  OW  HW  HW  EP  OW  HW  HW  EP  OW  HW  HW  EP  OW  HW  HW  EP  OW  HW  HW  
EP  OW  HW  HW  EP  OW  HW  HW  EP  OW  HW  HW  EP  OW  HW  HW  EP  OW  HW  HW  
EP  OW  HW  HW  EP  OW  HW  HW  EP  OW  HW  HW  EP  OW  HW  HW  EP  OW  HW  HW  
EP  OW  HW  HW  EP  OW  HW  HW  EP  OW  HW  HW  EP  OW  HW  HW  EP  OW  HW  HW  
EP  OW  HW  HW  EP  OW  HW  HW  EP  OW  HW  HW  EP  OW  HW  HW  EP  OW  HW  HW  
EP  OW  HW  HW  EP  OW  HW  HW  EP  OW  HW  HW  EP  OW  HW  HW  EP  OW  HW  HW  
EP  OW  HW  HW  EP  OW  HW  HW  EP  OW  HW  HW  EP  OW  HW  HW  EP  OW  HW  HW  
EP  OW  HW  HW  EP  OW  HW  HW  EP  OW  HW  HW  EP  OW  HW  HW  EP  OW  HW  HW  
EP  OW  HW  HW  EP  OW  HW  HW  EP  OW  HW  HW  EP  OW  HW  HW  EP  OW  HW  HW  
EP  OW  HW  HW  EP  OW  HW  HW  EP  OW  HW  HW  EP  OW  HW  HW  EP  OW  HW  HW  
EP  OW  HW  HW  EP  OW  HW  HW  EP  OW  HW  HW  EP  OW  HW  HW  EP  OW  HW  HW  
EP  OW  HW  HW  EP  OW  HW  HW  EP  OW  HW  HW  EP  OW  HW  HW  EP  OW  HW  HW  
EP  OW  HW  HW  EP  OW  HW  HW  EP  OW  HW  HW  EP  OW  HW  HW  EP  OW  HW  HW  
EP  OW  HW  HW  EP  OW  HW  HW  EP  OW  HW  HW  EP  OW  HW  HW  EP  OW  HW  HW  
EP  OW  HW  HW  EP  OW  HW  HW  EP  OW  HW  HW  EP  OW  HW  HW  EP  OW  HW  HW  
EP  OW  HW  HW  EP  OW  HW  HW  EP  OW  HW  HW  EP  OW  HW  HW  EP  OW  HW  HW  
EP  OW  HW  HW  EP  OW  HW  HW  EP  OW  HW  HW  EP  OW  HW  HW  EP  OW  HW  HW  
EP  OW  HW  HW  EP  OW  HW  HW  EP  OW  HW  HW  EP  OW  HW  HW  EP  OW  HW  HW  
EP  OW  HW  HW  EP  OW  HW  HW  EP  OW  HW  HW  EP  OW  HW  HW  EP  OW  HW  HW  
EP  OW  HW  HW  EP  OW  HW  HW  EP  OW  HW  HW  EP  OW  HW  HW  EP  OW  HW  HW  
EP  OW  HW  HW  EP  OW  HW  HW  EP  OW  HW  HW  EP  OW  HW  HW  EP  OW  HW  HW  
EP  OW  HW  HW  EP  OW  HW  HW  EP  OW  HW  HW  EP  OW  HW  HW  EP  OW  HW  HW  
EP  OW  HW  HW  EP  OW  HW  HW  EP  OW  HW  HW  EP  OW  HW  HW  EP  OW  HW  HW  
EP  OW  HW  HW  EP  OW  HW  HW  EP  OW  HW  HW  EP  OW  HW  HW  EP  OW  HW  HW  
EP  OW  HW  HW  EP  OW  HW  HW  EP  OW  HW  HW  EP  OW  HW  HW  EP  OW  HW  HW  
EP  OW  HW  HW  EP  OW  HW  HW  EP  OW  HW  HW  EP  OW  HW  HW  EP  OW  HW  HW  
EP  OW  HW  HW  EP  OW  HW  HW  EP  OW  HW  HW  EP  OW  HW  HW  EP  OW  HW  HW  
EP  OW  HW  HW  EP  OW  HW  HW  EP  OW  HW  HW  EP  OW  HW  HW  EP  OW  HW  HW  
EP  OW  HW  HW  EP  OW  HW  HW  EP  OW  HW  HW  EP  OW  HW  HW  EP  OW  HW  HW  
EP  OW  HW  HW  EP  OW  HW  HW  EP  OW  HW  HW  EP  OW  HW  HW  EP  OW  HW  HW  
EP  OW  HW  HW  EP  OW  HW  HW  EP  OW  HW  HW  EP  OW  HW  HW  EP  OW  HW  HW  
EP  OW  HW  HW  EP  OW  HW  HW  EP  OW  HW  HW  EP  OW  HW  HW  EP  OW  HW  HW  
EP  OW  HW  HW  EP  OW  HW  HW  EP  OW  HW  HW  EP  OW  HW  HW  EP  OW  HW  HW  
EP  OW  HW  HW  EP  OW  HW  HW  EP  OW  HW  HW  EP  OW  HW  HW  EP  OW  HW  HW  
EP  OW  HW  HW  EP  OW  HW  HW  EP  OW  HW  HW  EP  OW  HW  HW  EP  OW  HW  HW  
EP  OW  HW  HW  EP  OW  HW  HW  EP  OW  HW  HW  EP  OW  HW  HW  EP  OW  HW  HW  
EP  OW  HW  HW  EP  OW  HW  HW  EP  OW  HW  HW  EP  OW  HW  HW  EP  OW  HW  HW  
EP  OW  HW  HW  EP  OW  HW  HW  EP  OW  HW  HW  EP  OW  HW  HW  EP  OW  HW  HW  
EP  OW  HW  HW  EP  OW  HW  HW  EP  OW  HW  HW  EP  OW  HW  HW  EP  OW  HW  HW  
EP  OW  HW  HW  EP  OW  HW  HW  EP  OW  HW  HW  EP  OW  HW  HW  EP  OW  HW  HW  
EP  OW  HW  HW  EP  OW  HW  HW  EP  OW  HW  HW  EP  OW  HW  HW  EP  OW  HW  HW  
EP  OW  HW  HW  EP  OW  HW  HW  EP  OW  HW  HW  EP  OW  HW  HW  EP  OW  HW  HW  
EP  OW  HW  HW  EP  OW  HW  HW  EP  OW  HW  HW  EP  OW  HW  HW  EP  OW  HW  HW  
EP  OW  HW  HW  EP  OW  HW  HW  EP  OW  HW  HW  EP  OW  HW  HW  EP  OW  HW  HW  
EP  OW  HW  HW  EP  OW  HW  HW  EP  OW  HW  HW  EP  OW  HW  HW  EP  OW  HW  HW  
EP  OW  HW  HW  EP  OW  HW  HW  EP  OW  HW  HW  EP  OW  HW  HW  EP  OW  HW  HW  
EP  OW  HW  HW  EP  OW  HW  HW  EP  OW  HW  HW  EP  OW  HW  HW  EP  OW  HW  HW  
EP  OW  HW  HW  EP  OW  HW  HW  EP  OW  HW  HW  EP  OW  HW  HW  EP  OW  HW  HW  
EP  OW  HW  HW  EP  OW  HW  HW  EP  OW  HW  HW  EP  OW  HW  HW  EP  OW  HW  HW  
EP  OW  HW  HW  EP  OW  HW  HW  EP  OW  HW  HW  EP  OW  HW  HW  EP  OW  HW  HW  
EP  OW  HW  HW  EP  OW  HW  HW  EP  OW  HW  HW  EP  OW  HW  HW  EP  OW  HW  HW  
EP  OW  HW  HW  EP  OW  HW  HW  EP  OW  HW  HW  EP  OW  HW  HW  EP  OW  HW  HW  
EP  OW  HW  HW  EP  OW  HW  HW  EP  OW  HW  HW  EP  OW  HW  HW  EP  OW  HW  HW  
EP  OW  HW  HW  EP  OW  HW  HW  EP  OW  HW  HW  EP  OW  HW  HW  EP  OW  HW  HW  
EP  OW  HW  HW  EP  OW  HW  HW  EP  OW  HW  HW  EP  OW  HW  HW  EP  OW  HW  HW  
EP  OW  HW  HW  EP  OW  HW  HW  EP  OW  HW  HW  EP  OW  HW  HW  EP  OW  HW  HW  
EP  OW  HW  HW  EP  OW  HW  HW  EP  OW  HW  HW  EP  OW  HW  HW  EP  OW  HW  HW  
EP  OW  HW  HW  EP  OW  HW  HW  EP  OW  HW  HW  EP  OW  HW  HW  EP  OW  HW  HW  
EP  OW  HW  HW  EP  OW  HW  HW  EP  OW  HW  HW  EP  OW  HW  HW  EP  OW  HW  HW  
EP  OW  HW  HW  EP  OW  HW  HW  EP  OW  HW  HW  EP  OW  HW  HW  EP  OW  HW  HW  
EP  OW  HW  HW  EP  OW  HW  HW  EP  OW  HW  HW  EP  OW  HW  HW  EP  OW  HW  HW  
EP  OW  HW  HW  EP  OW  HW  HW  EP  OW  HW  HW  EP  OW  HW  HW  EP  OW  HW  HW  
EP  OW  HW  HW  EP  OW  HW  HW  EP  OW  HW  HW  EP  OW  HW  HW  EP  OW  HW  HW  
EP  OW  HW  HW  EP  OW  HW  HW  EP  OW  HW  HW  EP  OW  HW  HW  EP  OW  HW  HW  
EP  OW  HW  HW  EP  OW  HW  HW  EP  OW  HW  HW  EP  OW  HW  HW  EP  OW  HW  HW  
EP  OW  HW  HW  EP  OW  HW  HW  EP  OW  HW  HW  EP  OW  HW  HW  EP  OW  HW  HW  
EP  OW  HW  HW  EP  OW  HW  HW  EP  OW  HW  HW  EP  OW  HW  HW  EP  OW  HW  HW  
EP  OW  HW  HW  EP  OW  HW  HW  EP  OW  HW  HW  EP  OW  HW  HW  EP  OW  HW  HW  
EP  OW  HW  HW  EP  OW  HW  HW  EP  OW  HW  HW  EP  OW  HW  HW  EP  OW  HW  HW  
EP  OW  HW  HW  EP  OW  HW  HW  EP  OW  HW  HW  EP  OW  HW  HW  EP  OW  HW  HW  
EP  OW  HW  HW  EP  OW  HW  HW  EP  OW  HW  HW  EP  OW  HW  HW  EP  OW  HW  HW  
EP  OW  HW  HW  EP  OW  HW  HW  EP  OW  HW  HW  EP  OW  HW  HW  EP  OW  HW  HW  
EP  OW  HW  HW  EP  OW  HW  HW  EP  OW  HW  HW  EP  OW  HW  HW  EP  OW  HW  HW  
EP  OW  HW  HW  EP  OW  HW  HW  EP  OW  HW  HW  EP  OW  HW  HW  EP  OW  HW  HW  
EP  OW  HW  HW  EP  OW  HW  HW  EP  OW  HW  HW  EP  OW  HW  HW  EP  OW  HW  HW  
EP  OW  HW  HW  EP  OW  HW  HW  EP  OW  HW  HW  EP  OW  HW  HW  EP  OW  HW  HW  
EP  OW  HW  HW  EP  OW  HW  HW  EP  OW  HW  HW  EP  OW  HW  HW  EP  OW  HW  HW  
EP  OW  HW  HW  EP  OW  HW  HW  EP  OW  HW  HW  EP  OW  HW  HW  EP  OW  HW  HW  
EP  OW  HW  HW  EP  OW  HW  HW  EP  OW  HW  HW  EP  OW  HW  HW  EP  OW  HW  HW  
EP  OW  HW  HW  EP  OW  HW  HW  EP  OW  HW  HW  EP  OW  HW  HW  EP  OW  HW  HW  
EP  OW  HW  HW  EP  OW  HW  HW  EP  OW  HW  HW  EP  OW  HW  HW  EP  OW  HW  HW  
EP  OW  HW  HW  EP  OW  HW  HW  EP  OW  HW  HW  EP  OW  HW  HW  EP  OW  HW  HW  
EP  OW  HW  HW  EP  OW  HW  HW  EP  OW  HW  HW  EP  OW  HW  HW  EP  OW  HW  HW  
EP  OW  HW  HW  EP  OW  HW  HW  EP  OW  HW  HW  EP  OW  HW  HW  EP  OW  HW  HW  
EP  OW  HW  HW  EP  OW  HW  HW  EP  OW  HW  HW  EP  OW  HW  HW  EP  OW  HW  HW  
EP  OW  HW  HW  EP  OW  HW  HW  EP  OW  HW  HW  EP  OW  HW  HW  EP  OW  HW  HW  
EP  OW  HW  HW  EP  OW  HW  HW  EP  OW  HW  HW  EP  OW  HW  HW  EP  OW  HW  HW  
EP  OW  HW  HW  EP  OW  HW  HW  EP  OW  HW  HW  EP  OW  HW  HW  EP  OW  HW  HW  
EP  OW  HW  HW  EP  OW  HW  HW  EP  OW  HW  HW  EP  OW  HW  HW  EP  OW  HW  HW  
EP  OW  HW  HW  EP  OW  HW  HW  EP  OW  HW  HW  EP  OW  HW  HW  EP  OW  HW  HW  
EP  OW  HW  HW  EP  OW  HW  HW  EP  OW  HW  HW  EP  OW  HW  HW  EP  OW  HW  HW  
EP  OW  HW  HW  EP  OW  HW  HW  EP  OW  HW  HW  EP  OW  HW  HW  EP  OW  HW  HW  
EP  OW  HW  HW  EP  OW  HW  HW  EP  OW  HW  HW  EP  OW  HW  HW  EP  OW  HW  HW  
EP  OW  HW  HW  EP  OW  HW  HW  EP  OW  HW  HW  EP  OW  HW  HW  EP  OW  HW  HW  
EP  OW  HW  HW  EP  OW  HW  HW  EP  OW  HW  HW  EP  OW  HW  HW  EP  OW  HW  HW  
EP  OW  HW  HW  EP  OW  HW  HW  EP  OW  HW  HW  EP  OW  HW  HW  EP  OW  HW  HW  
EP  OW  HW  HW  EP  OW  HW  HW  EP  OW  HW  HW  EP  OW  HW  HW  EP  OW  HW  HW  
EP  OW  HW  HW  EP  OW  HW  HW  EP  OW  HW  HW  EP  OW  HW  HW  EP  OW  HW  HW  
EP  OW  HW  HW  EP  OW  HW  HW  EP  OW  HW  HW  EP  OW  HW  HW  EP  OW  HW  HW  
EP  OW  HW  HW  EP  OW  HW  HW  EP  OW  HW  HW  EP  OW  HW  HW  EP  OW  HW  HW  
EP  OW  HW  HW  EP  OW  HW  HW  EP  OW  HW  HW  EP  OW  HW  HW  EP  OW  HW  HW  
EP  OW  HW  HW  EP  OW  HW  HW  EP  OW  HW  HW  EP  OW  HW  HW  EP  OW  HW  HW  
EP  OW  HW  HW  EP  OW  HW  HW  EP  OW  HW  HW  EP  OW  HW  HW  EP  OW  HW  HW  
EP  OW  HW  HW  EP  OW  HW  HW  EP  OW  HW  HW  EP  OW  HW  HW  EP  OW  HW  HW  
EP  OW  HW  HW  EP  OW  HW  HW  EP  OW  HW  HW  EP  OW  HW  HW  EP  OW  HW  HW  
EP  OW  HW  HW  EP  OW  HW  HW  EP  OW  HW  HW  EP  OW  HW  HW  EP  OW  HW  HW  
EP  OW  HW  HW  EP  OW  HW  HW  EP  OW  HW  HW  EP  OW  HW  HW  EP  OW  HW  HW  
EP  OW  HW  HW  EP  OW  HW  HW  EP  OW  HW  HW  EP  OW  HW  HW  EP  OW  HW  HW  
EP  OW  HW  HW  EP  OW  HW  HW  EP  OW  HW  HW  EP  OW  HW  HW  EP  OW  HW  HW  
EP  OW  HW  HW  EP  OW  HW  HW  EP  OW  HW  HW  EP  OW  HW  HW  EP  OW  HW  HW  
EP  OW  HW  HW  EP  OW  HW  HW  EP  OW  HW  HW  EP  OW  HW  HW  EP  OW  HW  HW  
EP  OW  HW  HW  EP  OW  HW  HW  EP  OW  HW  HW  EP  OW  HW  HW  EP  OW  HW  HW  
EP  OW  HW  HW  EP  OW  HW  HW  EP  OW  HW  HW  EP  OW  HW  HW  EP  OW  HW  HW  
EP  OW  HW  HW  EP  OW  HW  HW  EP  OW  HW  HW  EP  OW  HW  HW  EP  OW  HW  HW  
EP  OW  HW  HW  EP  OW  HW  HW  EP  OW  HW  HW  EP  OW  HW  HW  EP  OW  HW  HW  
EP  OW  HW  HW  EP  OW  HW  HW  EP  OW  HW  HW  EP  OW  HW  HW  EP  OW  HW  HW  
EP  OW  HW  HW  EP  OW  HW  HW  EP  OW  HW  HW  EP  OW  HW  HW  EP  OW  HW  HW  
EP  OW  HW  HW  EP  OW  HW  HW  EP  OW  HW  HW  EP  OW  HW  HW  EP  OW  HW  HW  
EP  OW  HW  HW  EP  OW  HW  HW  EP  OW  HW  HW  EP  OW  HW  HW  EP  OW  HW  HW  
EP  OW  HW  HW  EP  OW  HW  HW  EP  OW  HW  HW  EP  OW  HW  HW  EP  OW  HW  HW  
EP  OW  HW  HW  EP  OW  HW  HW  EP  OW  HW  HW  EP  OW  HW  HW  EP  OW  HW  HW  
EP  OW  HW  HW  EP  OW  HW  HW  EP  OW  HW  HW  EP  OW  HW  HW  EP  OW  HW  HW  
EP  OW  HW  HW  EP  OW  HW  HW  EP  OW  HW  HW  EP  OW  HW  HW  EP  OW  HW  HW  
EP  OW  HW  HW  EP  OW  HW  HW  EP  OW  HW  HW  EP  OW  HW  HW  EP  OW  HW  HW  
EP  OW  HW  HW  EP  OW  HW  HW  EP  OW  HW  HW  EP  OW  HW  HW  EP  OW  HW  HW  
EP  OW  HW  HW  EP  OW  HW  HW  EP  OW  HW  HW  EP  OW  HW  HW  EP  OW  HW  HW  
EP  OW  HW  HW  EP  OW  HW  HW  EP  OW  HW  HW  EP  OW  HW  HW  EP  OW  HW  HW  
EP  OW  HW  HW  EP  OW  HW  HW  EP  OW  HW  HW  EP  OW  HW  HW  EP  OW  HW  HW  
EP  OW  HW  HW  EP  OW  HW  HW  EP  OW  HW  HW  EP  OW  HW  HW  EP  OW  HW  HW  
EP  OW  HW  HW  EP  OW  HW  HW  EP  OW  HW  HW  EP  OW  HW  HW  EP  OW  HW  HW  
EP  OW  HW  HW  EP  OW  HW  HW  EP  OW  HW  HW  EP  OW  HW  HW  EP  OW  HW  HW  
EP  OW  HW  HW  EP  OW  HW  HW  EP  OW  HW  HW  EP  OW  HW  HW  EP  OW  HW  HW  
EP  OW  HW  HW  EP  OW  HW  HW  EP  OW  HW  HW  EP  OW  HW  HW  EP  OW  HW  HW  
EP  OW  HW  HW  EP  OW  HW  HW  EP  OW  HW  HW  EP  OW  HW  HW  EP  OW  HW  HW  
EP  OW  HW  HW  EP  OW  HW  HW  EP  OW  HW  HW  EP  OW  HW  HW  EP  OW  HW  HW  
EP  OW  HW  HW  EP  OW  HW  HW  EP  OW  HW  HW  EP  OW  HW  HW  EP  OW  HW  HW  
EP  OW  HW  HW  EP  OW  HW  HW  EP  OW  HW  HW  EP  OW  HW  HW  EP  OW  HW  HW  
EP  OW  HW  HW  EP  OW  HW  HW  EP  OW  HW  HW  EP  OW  HW  HW  EP  OW  HW  HW  
EP  OW  HW  HW  EP  OW  HW  HW  EP  OW  HW  HW  EP  OW  HW  HW  EP  OW  HW  HW  
EP  OW  HW  HW  EP  OW  HW  HW  EP  OW  HW  HW  EP  OW  HW  HW  EP  OW  HW  HW  
EP  OW  HW  HW  EP  OW  HW  HW  EP  OW  HW  HW  EP  OW  HW  HW  EP  OW  HW  HW  
EP  OW  HW  HW  EP  OW  HW  HW  EP  OW  HW  HW  EP  OW  HW  HW  EP  OW  HW  HW  
EP  OW  HW  HW  EP  OW  HW  HW  EP  OW  HW  HW  EP  OW  HW  HW  EP  OW  HW  HW  
EP  OW  HW  HW  EP  OW  HW  HW  EP  OW  HW  HW  EP  OW  HW  HW  EP  OW  HW  HW  
EP  OW  HW  HW  EP  OW  HW  HW  EP  OW  HW  HW  EP  OW  HW  HW  EP  OW  HW  HW  
EP  OW  HW  HW  EP  OW  HW  HW  EP  OW  HW  HW  EP  OW  HW  HW  EP  OW  HW  HW  
EP  OW  HW  HW  EP  OW  HW  HW  EP  OW  HW  HW  EP  OW  HW  HW  EP  OW  HW  HW  
EP  OW  HW  HW  EP  OW  HW  HW  EP  OW  HW  HW  EP  OW  HW  HW  EP  OW  HW  HW  
EP  OW  HW  HW  EP  OW  HW  HW  EP  OW  HW  HW  EP  OW  HW  HW  EP  OW  HW  HW  
EP  OW  HW  HW  EP  OW  HW  HW  EP  OW  HW  HW  EP  OW  HW  HW  EP  OW  HW  HW  
EP  OW  HW  HW  EP  OW  HW  HW  EP  OW  HW  HW  EP  OW  HW  HW  EP  OW  HW  HW  
EP  OW  HW  HW  EP  OW  HW  HW  EP  OW  HW  HW  EP  OW  HW  HW  EP  OW  HW  HW  
EP  OW  HW  HW  EP  OW  HW  HW  EP  OW  HW  HW  EP  OW  HW  HW  EP  OW  HW  HW  
EP  OW  HW  HW  EP  OW  HW  HW  EP  OW  HW  HW  EP  OW  HW  HW  EP  OW  HW  HW  
EP  OW  HW  HW  EP  OW  HW  HW  EP  OW  HW  HW  EP  OW  HW  HW  EP  OW  HW  HW  
EP  OW  HW  HW  EP  OW  HW  HW  EP  OW  HW  HW  EP  OW  HW  HW  EP  OW  HW  HW  
EP  OW  HW  HW  EP  OW  HW  HW  EP  OW  HW  HW  EP  OW  HW  HW  EP  OW  HW  HW  
EP  OW  HW  HW  EP  OW  HW  HW  EP  OW  HW  HW  EP  OW  HW  HW  EP  OW  HW  HW  
EP  OW  HW  HW  EP  OW  HW  HW  EP  OW  HW  HW  EP  OW  HW  HW  EP  OW  HW  HW  
EP  OW  HW  HW  EP  OW  HW  HW  EP  OW  HW  HW  EP  OW  HW  HW  EP  OW  HW  HW  
EP  OW  HW  HW  EP  OW  HW  HW  EP  OW  HW  HW  EP  OW  HW  HW  EP  OW  HW  HW  
EP  OW  HW  HW  EP  OW  HW  HW  EP  OW  HW  HW  EP  OW  HW  HW  EP  OW  HW  HW  
EP  OW  HW  HW  EP  OW  HW  HW  EP  OW  HW  HW  EP  OW  HW  HW  EP  OW  HW  HW  
EP  OW  HW  HW  EP  OW  HW  HW  EP  OW  HW  HW  EP  OW  HW  HW  EP  OW  HW  HW  
EP  OW  HW  HW  EP  OW  HW  HW  EP  OW  HW  HW  EP  OW  HW  HW  EP  OW  HW  HW  
EP  OW  HW  HW  EP  OW  HW  HW  EP  OW  HW  HW  EP  OW  HW  HW  EP  OW  HW  HW  
EP  OW  HW  HW  EP  OW  HW  HW  EP  OW  HW  HW  EP  OW  HW  HW  EP  OW  HW  HW  
EP  OW  HW  HW  EP  OW  HW  HW  EP  OW  HW  HW  EP  OW  HW  HW  EP  OW  HW  HW  
EP  OW  HW  HW  EP  OW  HW  HW  EP  OW  HW  HW  EP  OW  HW  HW  EP  OW  HW  HW  
EP  OW  HW  HW  EP  OW  HW  HW  EP  OW  HW  HW  EP  OW  HW  HW  EP  OW  HW  HW  
EP  OW  HW  HW  EP  OW  HW  HW  EP  OW  HW  HW  EP  OW  HW  HW  EP  OW  HW  HW  
EP  OW  HW  HW  EP  OW  HW  HW  EP  OW  HW  HW  EP  OW  HW  HW  EP  OW  HW  HW  
EP  OW  HW  HW  EP  OW  HW  HW  EP  OW  HW  HW  EP  OW  HW  HW  EP  OW  HW  HW  
EP  OW  HW  HW  EP  OW  HW  HW  EP  OW  HW  HW  EP  OW  HW  HW  EP  OW  HW  HW  
EP  OW  HW  HW  EP  OW  HW  HW  EP  OW  HW  HW  EP  OW  HW  HW  EP  OW  HW  HW  
EP  OW  HW  HW  EP  OW  HW  HW  EP  OW  HW  HW  EP  OW  HW  HW  EP  OW  HW  HW  
EP  OW  HW  HW  EP  OW  HW  HW  EP  OW  HW  HW  EP  OW  HW  HW  EP  OW  HW  HW  
EP  OW  HW  HW  EP  OW  HW  HW  EP  OW  HW  HW  EP  OW  HW  HW  EP  OW  HW  HW  
EP  OW  HW  HW  EP  OW  HW  HW  EP  OW  HW  HW  EP  OW  HW  HW  EP  OW  HW  HW  
EP  OW  HW  HW  EP  OW  HW  HW  EP  OW  HW  HW  EP  OW  HW  HW  EP  OW  HW  HW  
EP  OW  HW  HW  EP  OW  HW  HW  EP  OW  HW  HW  EP  OW  HW  HW  EP  OW  HW  HW  
EP  OW  HW  HW  EP  OW  HW  HW  EP  OW  HW  HW  EP  OW  HW  HW  EP  OW  HW  HW  
EP  OW  HW  HW  EP  OW  HW  HW  EP  OW  HW  HW  EP  OW  HW  HW  EP  OW  HW  HW  
EP  OW  HW  HW  EP  OW  HW  HW  EP  OW  HW  HW  EP  OW  HW  HW  EP  OW  HW  HW  
EP  OW  HW  HW  EP  OW  HW  HW  EP  OW  HW  HW  EP  OW  HW  HW  EP  OW  HW  HW  
EP  OW  HW  HW  EP  OW  HW  HW  EP  OW  HW  HW  EP  OW  HW  HW  EP  OW  HW  HW  
EP  OW  HW  HW  EP  OW  HW  HW  EP  OW  HW  HW  EP  OW  HW  HW  EP  OW  HW  HW  
EP  OW  HW  HW  EP  OW  HW  HW  EP  OW  HW  HW  EP  OW  HW  HW  EP  OW  HW  HW  
EP  OW  HW  HW  EP  OW  HW  HW  EP  OW  HW  HW  EP  OW  HW  HW  EP  OW  HW  HW  
EP  OW  HW  HW  EP  OW  HW  HW  EP  OW  HW  HW  EP  OW  HW  HW  EP  OW  HW  HW  
EP  OW  HW  HW  EP  OW  HW  HW  EP  OW  HW  HW  EP  OW  HW  HW  EP  OW  HW  HW  
EP  OW  HW  HW  EP  OW  HW  HW  EP  OW  HW  HW  EP  OW  HW  HW  EP  OW  HW  HW  
EP  OW  HW  HW  EP  OW  HW  HW  EP  OW  HW  HW  EP  OW  HW  HW  EP  OW  HW  HW  
EP  OW  HW  HW  EP  OW  HW  HW  EP  OW  HW  HW  EP  OW  HW  HW  EP  OW  HW  HW  
EP  OW  HW  HW  EP  OW  HW  HW  EP  OW  HW  HW  EP  OW  HW  HW  EP  OW  HW  HW  
EP  OW  HW  HW  EP  OW  HW  HW  EP  OW  HW  HW  EP  OW  HW  HW  EP  OW  HW  HW  
EP  OW  HW  HW  EP  OW  HW  HW  EP  OW  HW  HW  EP  OW  HW  HW  EP  OW  HW  HW  
EP  OW  HW  HW  EP  OW  HW  HW  EP  OW  HW  HW  EP  OW  HW  HW  EP  OW  HW  HW  
EP  OW  HW  HW  EP  OW  HW  HW  EP  OW  HW  HW  EP  OW  HW  HW  EP  OW  HW  HW  
EP  OW  HW  HW  EP  OW  HW  HW  EP  OW  HW  HW  EP  OW  HW  HW  EP  OW  HW  HW  
EP  OW  HW  HW  EP  OW  HW  HW  EP  OW  HW  HW  EP  OW  HW  HW  EP  OW  HW  HW  
EP  OW  HW  HW  EP  OW  HW  HW  EP  OW  HW  HW  EP  OW  HW  HW  EP  OW  HW  HW  
EP  OW  HW  HW  EP  OW  HW  HW  EP  OW  HW  HW  EP  OW  HW  HW  EP  OW  HW  HW  
EP  OW  HW  HW  EP  OW  HW  HW  EP  OW  HW  HW  EP  OW  HW  HW  EP  OW  HW  HW  
EP  OW  HW  HW  EP  OW  HW  HW  EP  OW  HW  HW  EP  OW  HW  HW  EP  OW  HW  HW  
EP  OW  HW  HW  EP  OW  HW  HW  EP  OW  HW  HW  EP  OW  HW  HW  EP  OW  HW  HW  
EP  OW  HW  HW  EP  OW  HW  HW  EP  OW  HW  HW  EP  OW  HW  HW  EP  OW  HW  HW  
EP  OW  HW  HW  EP  OW  HW  HW  EP  OW  HW  HW  EP  OW  HW  HW  EP  OW  HW  HW  
EP  OW  HW  HW  EP  OW  HW  HW  EP  OW  HW  HW  EP  OW  HW  HW  EP  OW  HW  HW  
EP  OW  HW  HW  EP  OW  HW  HW  EP  OW  HW  HW  EP  OW  HW  HW  EP  OW  HW  HW  
EP  OW  HW  HW  EP  OW  HW  HW  EP  OW  HW  HW  EP  OW  HW  HW  EP  OW  HW  HW  
EP  OW  HW  HW  EP  OW  HW  HW  EP  OW  HW  HW  EP  OW  HW  HW  EP  OW  HW  HW  
EP  OW  HW  HW  EP  OW  HW  HW  EP  OW  HW  HW  EP  OW  HW  HW  EP  OW  HW  HW  
EP  OW  HW  HW  EP  OW  HW  HW  EP  OW  HW  HW  EP  OW  HW  HW  EP  OW  HW  HW  
EP  OW  HW  HW  EP  OW  HW  HW  EP  OW  HW  HW  EP  OW  HW  HW  EP  OW  HW  HW  
EP  OW  HW  HW  EP  OW  HW  HW  EP  OW  HW  HW  EP  OW  HW  HW  EP  OW  HW  HW  
EP  OW  HW  HW  EP  OW  HW  HW  EP  OW  HW  HW  EP  OW  HW  HW  EP  OW  HW  HW  
EP  OW  HW  HW  EP  OW  HW  HW  EP  OW  HW  HW  EP  OW  HW  HW  EP  OW  HW  HW  
EP  OW  HW  HW  EP  OW  HW  HW  EP  OW  HW  HW  EP  OW  HW  HW  EP  OW  HW  HW  
EP  OW  HW  HW  EP  OW  HW  HW  EP  OW  HW  HW  EP  OW  HW  HW  EP  OW  HW  HW  
EP  OW  HW  HW  EP  OW  HW  HW  EP  OW  HW  HW  EP  OW  HW  HW  EP  OW  HW  HW  
EP  OW  HW  HW  EP  OW  HW  HW  EP  OW  HW  HW  EP  OW  HW  HW  EP  OW  HW  HW  
EP  OW  HW  HW  EP  OW  HW  HW  EP  OW  HW  HW  EP  OW  HW  HW  EP  OW  HW  HW  
EP  OW  HW  HW  EP  OW  HW  HW  EP  OW  HW  HW  EP  OW  HW  HW  EP  OW  HW  HW  
EP  OW  HW  HW  EP  OW  HW  HW  EP  OW  HW  HW  EP  OW  HW  HW  EP  OW  HW  HW  
EP  OW  HW  HW  EP  OW  HW  HW  EP  OW  HW  HW  EP  OW  HW  HW  EP  OW  HW  HW  
EP  OW  HW  HW  EP  OW  HW  HW  EP  OW  HW  HW  EP  OW  HW  HW  EP  OW  HW  HW  
EP  OW  HW  HW  EP  OW  HW  HW  EP  OW  HW  HW  EP  OW  HW  HW  EP  OW  HW  HW  
EP  OW  HW  HW  EP  OW  HW  HW  EP  OW  HW  HW  EP  OW  HW  HW  EP  OW  HW  HW  
EP  OW  HW  HW  EP  OW  HW  HW  EP  OW  HW  HW  EP  OW  HW  HW  EP  OW  HW  HW  
EP  OW  HW  HW  EP  OW  HW  HW  EP  OW  HW  HW  EP  OW  HW  HW  EP  OW  HW  HW  
EP  OW  HW  HW  EP  OW  HW  HW  EP  OW  HW  HW  EP  OW  HW  HW  EP  OW  HW  HW  
EP  OW  HW  HW  EP  OW  HW  HW  EP  OW  HW  HW  EP  OW  HW  HW  EP  OW  HW  HW  
EP  OW  HW  HW  EP  OW  HW  HW  EP  OW  HW  HW  EP  OW  HW  HW  EP  OW  HW  HW  
EP  OW  HW  HW  EP  OW  HW  HW  EP  OW  HW  HW  EP  OW  HW  HW  EP  OW  HW  HW  
EP  OW  HW  HW  EP  OW  HW  HW  EP  OW  HW  HW  EP  OW  HW  HW  EP  OW  HW  HW  
EP  OW  HW  HW  EP  OW  HW  HW  EP  OW  HW  HW  EP  OW  HW  HW  EP  OW  HW  HW  
EP  OW  HW  HW  EP  OW  HW  HW  EP  OW  HW  HW  EP  OW  HW  HW  EP  OW  HW  HW  
EP  OW  HW  HW  EP  OW  HW  HW  EP  OW  HW  HW  EP  OW  HW  HW  EP  OW  HW  HW  
EP  OW  HW  HW  EP  OW  HW  HW  EP  OW  HW  HW  EP  OW  HW  HW  EP  OW  HW  HW  
EP  OW  HW  HW  EP  OW  HW  HW  EP  OW  HW  HW  EP  OW  HW  HW  EP  OW  HW  HW  
EP  OW  HW  HW  EP  OW  HW  HW  EP  OW  HW  HW  EP  OW  HW  HW  EP  OW  HW  HW  
EP  OW  HW  HW  EP  OW  HW  HW  EP  OW  HW  HW  EP  OW  HW  HW  EP  OW  HW  HW  
EP  OW  HW  HW  EP  OW  HW  HW  EP  OW  HW  HW  EP  OW  HW  HW  EP  OW  HW  HW  
EP  OW  HW  HW  EP  OW  HW  HW  EP  OW  HW  HW  EP  OW  HW  HW  EP  OW  HW  HW  
EP  OW  HW  HW  EP  OW  HW  HW  EP  OW  HW  HW  EP  OW  HW  HW  EP  OW  HW  HW  
EP  OW  HW  HW  EP  OW  HW  HW  EP  OW  HW  HW  EP  OW  HW  HW  EP  OW  HW  HW  
EP  OW  HW  HW  EP  OW  HW  HW  EP  OW  HW  HW  EP  OW  HW  HW  EP  OW  HW  HW  
EP  OW  HW  HW  EP  OW  HW  HW  EP  OW  HW  HW  EP  OW  HW  HW  EP  OW  HW  HW  
EP  OW  HW  HW  EP  OW  HW  HW  EP  OW  HW  HW  EP  OW  HW  HW  EP  OW  HW  HW  
EP  OW  HW  HW  EP  OW  HW  HW  EP  OW  HW  HW  EP  OW  HW  HW  EP  OW  HW  HW  
EP  OW  HW  HW  EP  OW  HW  HW  EP  OW  HW  HW  EP  OW  HW  HW  EP  OW  HW  HW  
EP  OW  HW  HW  EP  OW  HW  HW  EP  OW  HW  HW  EP  OW  HW  HW  EP  OW  HW  HW  
EP  OW  HW  HW  EP  OW  HW  HW  EP  OW  HW  HW  EP  OW  HW  HW  EP  OW  HW  HW  
EP  OW  HW  HW  EP  OW  HW  HW  EP  OW  HW  HW  EP  OW  HW  HW  EP  OW  HW  HW  
EP  OW  HW  HW  EP  OW  HW  HW  EP  OW  HW  HW  EP  OW  HW  HW  EP  OW  HW  HW  
EP  OW  HW  HW  EP  OW  HW  HW  EP  OW  HW  HW  EP  OW  HW  HW  EP  OW  HW  HW  
EP  OW  HW  HW  EP  OW  HW  HW  EP  OW  HW  HW  EP  OW  HW  HW  EP  OW  HW  HW  
EP  OW  HW  HW  EP  OW  HW  HW  EP  OW  HW  HW  EP  OW  HW  HW  EP  OW  HW  HW  
EP  OW  HW  HW  EP  OW  HW  HW  EP  OW  HW  HW  EP  OW  HW  HW  EP  OW  HW  HW  
EP  OW  HW  HW  EP  OW  HW  HW  EP  OW  HW  HW  EP  OW  HW  HW  EP  OW  HW  HW  
EP  OW  HW  HW  EP  OW  HW  HW  EP  OW  HW  HW  EP  OW  HW  HW  EP  OW  HW  HW  
EP  OW  HW  HW  EP  OW  HW  HW  EP  OW  HW  HW  EP  OW  HW  HW  EP  OW  HW  HW  
EP  OW  HW  HW  EP  OW  HW  HW  EP  OW  HW  HW  EP  OW  HW  HW  EP  OW  HW  HW  
EP  OW  HW  HW  EP  OW  HW  HW  EP  OW  HW  HW  EP  OW  HW  HW  EP  OW  HW  HW  
EP  OW  HW  HW  EP  OW  HW  HW  EP  OW  HW  HW  EP  OW  HW  HW  EP  OW  HW  HW  
EP  OW  HW  HW  EP  OW  HW  HW  EP  OW  HW  HW  EP  OW  HW  HW  EP  OW  HW  HW  
EP  OW  HW  HW  EP  OW  HW  HW  EP  OW  HW  HW  EP  OW  HW  HW  EP  OW  HW  HW  
EP  OW  HW  HW  EP  OW  HW  HW  EP  OW  HW  HW  EP  OW  HW  HW  EP  OW  HW  HW  
EP  OW  HW  HW  EP  OW  HW  HW  EP  OW  HW  HW  EP  OW  HW  HW  EP  OW  HW  HW  
EP  OW  HW  HW  EP  OW  HW  HW  EP  OW  HW  HW  EP  OW  HW  HW  EP  OW  HW  HW  
EP  OW  HW  HW  EP  OW  HW  HW  EP  OW  HW  HW  EP  OW  HW  HW  EP  OW  HW  HW  
EP  OW  HW  HW  EP  OW  HW  HW  EP  OW  HW  HW  EP  OW  HW  HW  EP  OW  HW  HW  
EP  OW  HW  HW  EP  OW  HW  HW  EP  OW  HW  HW  EP  OW  HW  HW  EP  OW  HW  HW  
EP  OW  HW  HW  EP  OW  HW  HW  EP  OW  HW  HW  EP  OW  HW  HW  EP  OW  HW  HW  
EP  OW  HW  HW  EP  OW  HW  HW  EP  OW  HW  HW  EP  OW  HW  HW  EP  OW  HW  HW  
EP  OW  HW  HW  EP  OW  HW  HW  EP  OW  HW  HW  EP  OW  HW  HW  EP  OW  HW  HW  
EP  OW  HW  HW  EP  OW  HW  HW  EP  OW  HW  HW  EP  OW  HW  HW  EP  OW  HW  HW  
EP  OW  HW  HW  EP  OW  HW  HW  EP  OW  HW  HW  EP  OW  HW  HW  EP  OW  HW  HW  
EP  OW  HW  HW  EP  OW  HW  HW  EP  OW  HW  HW  EP  OW  HW  HW  EP  OW  HW  HW  
EP  OW  HW  HW  EP  OW  HW  HW  EP  OW  HW  HW  EP  OW  HW  HW  EP  OW  HW  HW  
EP  OW  HW  HW  EP  OW  HW  HW  EP  OW  HW  HW  EP  OW  HW  HW  EP  OW  HW  HW  
EP  OW  HW  HW  EP  OW  HW  HW  EP  OW  HW  HW  EP  OW  HW  HW  EP  OW  HW  HW  
EP  OW  HW  HW  EP  OW  HW  HW  EP  OW  HW  HW  EP  OW  HW  HW  EP  OW  HW  HW  
EP  OW  HW  HW  EP  OW  HW  HW  EP  OW  HW  HW  EP  OW  HW  HW  EP  OW  HW  HW  
EP  OW  HW  HW  EP  OW  HW  HW  EP  OW  HW  HW  EP  OW  HW  HW  EP  OW  HW  HW  
EP  OW  HW  HW  EP  OW  HW  HW  EP  OW  HW  HW  EP  OW  HW  HW  EP  OW  HW  HW  
EP  OW  HW  HW  EP  OW  HW  HW  EP  OW  HW  HW  EP  OW  HW  HW  EP  OW  HW  HW  
EP  OW  HW  HW  EP  OW  HW  HW  EP  OW  HW  HW  EP  OW  HW  HW  EP  OW  HW  HW  
EP  OW  HW  HW  EP  OW  HW  HW  EP  OW  HW  HW  EP  OW  HW  HW  EP  OW  HW  HW  
EP  OW  HW  HW  EP  OW  HW  HW  EP  OW  HW  HW  EP  OW  HW  HW  EP  OW  HW  HW  
EP  OW  HW  HW  EP  OW  HW  HW  EP  OW  HW  HW  EP  OW  HW  HW  EP  OW  HW  HW  
EP  OW  HW  HW  EP  OW  HW  HW  EP  OW  HW  HW  EP  OW  HW  HW  EP  OW  HW  HW  
EP  OW  HW  HW  EP  OW  HW  HW  EP  OW  HW  HW  EP  OW  HW  HW  EP  OW  HW  HW  
EP  OW  HW  HW  EP  OW  HW  HW  EP  OW  HW  HW  EP  OW  HW  HW  EP  OW  HW  HW  
EP  OW  HW  HW  EP  OW  HW  HW  EP  OW  HW  HW  EP  OW  HW  HW  EP  OW  HW  HW  
EP  OW  HW  HW  EP  OW  HW  HW  EP  OW  HW  HW  EP  OW  HW  HW  EP  OW  HW  HW  
EP  OW  HW  HW  EP  OW  HW  HW  EP  OW  HW  HW  EP  OW  HW  HW  EP  OW  HW  HW  
EP  OW  HW  HW  EP  OW  HW  HW  EP  OW  HW  HW  EP  OW  HW  HW  EP  OW  HW  HW  
EP  OW  HW  HW  EP  OW  HW  HW  EP  OW  HW  HW  EP  OW  HW  HW  EP  OW  HW  HW  
EP  OW  HW  HW  EP  OW  HW  HW  EP  OW  HW  HW  EP  OW  HW  HW  EP  OW  HW  HW  
EP  OW  HW  HW  EP  OW  HW  HW  EP  OW  HW  HW  EP  OW  HW  HW  EP  OW  HW  HW  
EP  OW  HW  HW  EP  OW  HW  HW  EP  OW  HW  HW  EP  OW  HW  HW  EP  OW  HW  HW  
EP  OW  HW  HW  EP  OW  HW  HW  EP  OW  HW  HW  EP  OW  HW  HW  EP  OW  HW  HW  
EP  OW  HW  HW  EP  OW  HW  HW  EP  OW  HW  HW  EP  OW  HW  HW  EP  OW  HW  HW  
EP  OW  HW  HW  EP  OW  HW  HW  EP  OW  HW  HW  EP  OW  HW  HW  EP  OW  HW  HW  
EP  OW  HW  HW  EP  OW  HW  HW  EP  OW  HW  HW  EP  OW  HW  HW  EP  OW  HW  HW  
EP  OW  HW  HW  EP  OW  HW  HW  EP  OW  HW  HW  EP  OW  HW  HW  EP  OW  HW  HW  
EP  OW  HW  HW  EP  OW  HW  HW  EP  OW  HW  HW  EP  OW  HW  HW  EP  OW  HW  HW  
EP  OW  HW  HW  EP  OW  HW  HW  EP  OW  HW  HW  EP  OW  HW  HW  EP  OW  HW  HW  
EP  OW  HW  HW  EP  OW  HW  HW  EP  OW  HW  HW  EP  OW  HW  HW  EP  OW  HW  HW  
EP  OW  HW  HW  EP  OW  HW  HW  EP  OW  HW  HW  EP  OW  HW  HW  EP  OW  HW  HW  
EP  OW  HW  HW  EP  OW  HW  HW  EP  OW  HW  HW  EP  OW  HW  HW  EP  OW  HW  HW  
EP  OW  HW  HW  EP  OW  HW  HW  EP  OW  HW  HW  EP  OW  HW  HW  EP  OW  HW  HW  
EP  OW  HW  HW  EP  OW  HW  HW  EP  OW  HW  HW  EP  OW  HW  HW  EP  OW  HW  HW  
EP  OW  HW  HW  EP  OW  HW  HW  EP  OW  HW  HW  EP  OW  HW  HW  EP  OW  HW  HW  
EP  OW  HW  HW  EP  OW  HW  HW  EP  OW  HW  HW  EP  OW  HW  HW  EP  OW  HW  HW  
EP  OW  HW  HW  EP  OW  HW  HW  EP  OW  HW  HW  EP  OW  HW  HW  EP  OW  HW  HW  
EP  OW  HW  HW  EP  OW  HW  HW  EP  OW  HW  HW  EP  OW  HW  HW  EP  OW  HW  HW  
EP  OW  HW  HW  EP  OW  HW  HW  EP  OW  HW  HW  EP  OW  HW  HW  EP  OW  HW  HW  
EP  OW  HW  HW  EP  OW  HW  HW  EP  OW  HW  HW  EP  OW  HW  HW  EP  OW  HW  HW  
EP  OW  HW  HW  EP  OW  HW  HW  EP  OW  HW  HW  EP  OW  HW  HW  EP  OW  HW  HW  
EP  OW  HW  HW  EP  OW  HW  HW  EP  OW  HW  HW  EP  OW  HW  HW  EP  OW  HW  HW  
EP  OW  HW  HW  EP  OW  HW  HW  EP  OW  HW  HW  EP  OW  HW  HW  EP  OW  HW  HW  
EP  OW  HW  HW  EP  OW  HW  HW  EP  OW  HW  HW  EP  OW  HW  HW  EP  OW  HW  HW  
EP  OW  HW  HW  EP  OW  HW  HW  EP  OW  HW  HW  EP  OW  HW  HW  EP  OW  HW  HW  
EP  OW  HW  HW  EP  OW  HW  HW  EP  OW  HW  HW  EP  OW  HW  HW  EP  OW  HW  HW  
EP  OW  HW  HW  EP  OW  HW  HW  EP  OW  HW  HW  EP  OW  HW  HW  EP  OW  HW  HW  
EP  OW  HW  HW  EP  OW  HW  HW  EP  OW  HW  HW  EP  OW  HW  HW  EP  OW  HW  HW  
EP  OW  HW  HW  EP  OW  HW  HW  EP  OW  HW  HW  EP  OW  HW  HW  EP  OW  HW  HW  
EP  OW  HW  HW  EP  OW  HW  HW  EP  OW  HW  HW  EP  OW  HW  HW  EP  OW  HW  HW  
EP  OW  HW  HW  EP  OW  HW  HW  EP  OW  HW  HW  EP  OW  HW  HW  EP  OW  HW  HW  
EP  OW  HW  HW  EP  OW  HW  HW  EP  OW  HW  HW  EP  OW  HW  HW  EP  OW  HW  HW  
EP  OW  HW  HW  EP  OW  HW  HW  EP  OW  HW  HW  EP  OW  HW  HW  EP  OW  HW  HW  
EP  OW  HW  HW  EP  OW  HW  HW  EP  OW  HW  HW  EP  OW  HW  HW  EP  OW  HW  HW  
EP  OW  HW  HW  EP  OW  HW  HW  EP  OW  HW  HW  EP  OW  HW  HW  EP  OW  HW  HW  
EP  OW  HW  HW  EP  OW  HW  HW  EP  OW  HW  HW  EP  OW  HW  HW  EP  OW  HW  HW  
EP  OW  HW  HW  EP  OW  HW  HW  EP  OW  HW  HW  EP  OW  HW  HW  EP  OW  HW  HW  
EP  OW  HW  HW  EP  OW  HW  HW  EP  OW  HW  HW  EP  OW  HW  HW  EP  OW  HW  HW  
EP  OW  HW  HW  EP  OW  HW  HW  EP  OW  HW  HW  EP  OW  HW  HW  EP  OW  HW  HW  
EP  OW  HW  HW  EP  OW  HW  HW  EP  OW  HW  HW  EP  OW  HW  HW  EP  OW  HW  HW  
EP  OW  HW  HW  EP  OW  HW  HW  EP  OW  HW  HW  EP  OW  HW  HW  EP  OW  HW  HW  
EP  OW  HW  HW  EP  OW  HW  HW  EP  OW  HW  HW  EP  OW  HW  HW  EP  OW  HW  HW  
EP  OW  HW  HW  EP  OW  HW  HW  EP  OW  HW  HW  EP  OW  HW  HW  EP  OW  HW  HW  
EP  OW  HW  HW  EP  OW  HW  HW  EP  OW  HW  HW  EP  OW  HW  HW  EP  OW  HW  HW  
EP  OW  HW  HW  EP  OW  HW  HW  EP  OW  HW  HW  EP  OW  HW  HW  EP  OW  HW  HW  
EP  OW  HW  HW  EP  OW  HW  HW  EP  OW  HW  HW  EP  OW  HW  HW  EP  OW  HW  HW  
EP  OW  HW  HW  EP  OW  HW  HW  EP  OW  HW  HW  EP  OW  HW  HW  EP  OW  HW  HW  
EP  OW  HW  HW  EP  OW  HW  HW  EP  OW  HW  HW  EP  OW  HW  HW  EP  OW  HW  HW  
EP  OW  HW  HW  EP  OW  HW  HW  EP  OW  HW  HW  EP  OW  HW  HW  EP  OW  HW  HW  
EP  OW  HW  HW  EP  OW  HW  HW  EP  OW  HW  HW  EP  OW  HW  HW  EP  OW  HW  HW  
EP  OW  HW  HW  EP  OW  HW  HW  EP  OW  HW  HW  EP  OW  HW  HW  EP  OW  HW  HW  
EP  OW  HW  HW  EP  OW  HW  HW  EP  OW  HW  HW  EP  OW  HW  HW  EP  OW  HW  HW  
EP  OW  HW  HW  EP  OW  HW  HW  EP  OW  HW  HW  EP  OW  HW  HW  EP  OW  HW  HW  
EP  OW  HW  HW  EP  OW  HW  HW  EP  OW  HW  HW  EP  OW  HW  HW  EP  OW  HW  HW  
EP  OW  HW  HW  EP  OW  HW  HW  EP  OW  HW  HW  EP  OW  HW  HW  EP  OW  HW  HW  
EP  OW  HW  HW  EP  OW  HW  HW  EP  OW  HW  HW  EP  OW  HW  HW  EP  OW  HW  HW  
EP  OW  HW  HW  EP  OW  HW  HW  EP  OW  HW  HW  EP  OW  HW  HW  EP  OW  HW  HW  
EP  OW  HW  HW  EP  OW  HW  HW  EP  OW  HW  HW  EP  OW  HW  HW  EP  OW  HW  HW  
EP  OW  HW  HW  EP  OW  HW  HW  EP  OW  HW  HW  EP  OW  HW  HW  EP  OW  HW  HW  
EP  OW  HW  HW  EP  OW  HW  HW  EP  OW  HW  HW  EP  OW  HW  HW  EP  OW  HW  HW  
EP  OW  HW  HW  EP  OW  HW  HW  EP  OW  HW  HW  EP  OW  HW  HW  EP  OW  HW  HW  
EP  OW  HW  HW  EP  OW  HW  HW  EP  OW  HW  HW  EP  OW  HW  HW  EP  OW  HW  HW  
EP  OW  HW  HW  EP  OW  HW  HW  EP  OW  HW  HW  EP  OW  HW  HW  EP  OW  HW  HW  
EP  OW  HW  HW  EP  OW  HW  HW  EP  OW  HW  HW  EP  OW  HW  HW  EP  OW  HW  HW  
EP  OW  HW  HW  EP  OW  HW  HW  EP  OW  HW  HW  EP  OW  HW  HW  EP  OW  HW  HW  
EP  OW  HW  HW  EP  OW  HW  HW  EP  OW  HW  HW  EP  OW  HW  HW  EP  OW  HW  HW  
EP  OW  HW  HW  EP  OW  HW  HW  EP  OW  HW  HW  EP  OW  HW  HW  EP  OW  HW  HW  
EP  OW  HW  HW  EP  OW  HW  HW  EP  OW  HW  HW  EP  OW  HW  HW  EP  OW  HW  HW  
EP  OW  HW  HW  EP  OW  HW  HW  EP  OW  HW  HW  EP  OW  HW  HW  EP  OW  HW  HW  
EP  OW  HW  HW  EP  OW  HW  HW  EP  OW  HW  HW  EP  OW  HW  HW  EP  OW  HW  HW  
EP  OW  HW  HW  EP  OW  HW  HW  EP  OW  HW  HW  EP  OW  HW  HW  EP  OW  HW  HW  
EP  OW  HW  HW  EP  OW  HW  HW  EP  OW  HW  HW  EP  OW  HW  HW  EP  OW  HW  HW  
EP  OW  HW  HW  EP  OW  HW  HW  EP  OW  HW  HW  EP  OW  HW  HW  EP  OW  HW  HW  
EP  OW  HW  HW  EP  OW  HW  HW  EP  OW  HW  HW  EP  OW  HW  HW  EP  OW  HW  HW  
EP  OW  HW  HW  EP  OW  HW  HW  EP  OW  HW  HW  EP  OW  HW  HW  EP  OW  HW  HW  
EP  OW  HW  HW  EP  OW  HW  HW  EP  OW  HW  HW  EP  OW  HW  HW  EP  OW  HW  HW  
EP  OW  HW  HW  EP  OW  HW  HW  EP  OW  HW  HW  EP  OW  HW  HW  EP  OW  HW  HW  
EP  OW  HW  HW  EP  OW  HW  HW  EP  OW  HW  HW  EP  OW  HW  HW  EP  OW  HW  HW  
EP  OW  HW  HW  EP  OW  HW  HW  EP  OW  HW  HW  EP  OW  HW  HW  EP  OW  HW  HW  
EP  OW  HW  HW  EP  OW  HW  HW  EP  OW  HW  HW  EP  OW  HW  HW  EP  OW  HW  HW  
EP  OW  HW  HW  EP  OW  HW  HW  EP  OW  HW  HW  EP  OW  HW  HW  EP  OW  HW  HW  
EP  OW  HW  HW  EP  OW  HW  HW  EP  OW  HW  HW  EP  OW  HW  HW  EP  OW  HW  HW  
EP  OW  HW  HW  EP  OW  HW  HW  EP  OW  HW  HW  EP  OW  HW  HW  EP  OW  HW  HW  
EP  OW  HW  HW  EP  OW  HW  HW  EP  OW  HW  HW  EP  OW  HW  HW  EP  OW  HW  HW  
EP  OW  HW  HW  EP  OW  HW  HW  EP  OW  HW  HW  EP  OW  HW  HW  EP  OW  HW  HW  
EP  OW  HW  HW  EP  OW  HW  HW  EP  OW  HW  HW  EP  OW  HW  HW  EP  OW  HW  HW  
EP  OW  HW  HW  EP  OW  HW  HW  EP  OW  HW  HW  EP  OW  HW  HW  EP  OW  HW  HW  
EP  OW  HW  HW  EP  OW  HW  HW  EP  OW  HW  HW  EP  OW  HW  HW  EP  OW  HW  HW  
EP  OW  HW  HW  EP  OW  HW  HW  EP  OW  HW  HW  EP  OW  HW  HW  EP  OW  HW  HW  
EP  OW  HW  HW  EP  OW  HW  HW  EP  OW  HW  HW  EP  OW  HW  HW  EP  OW  HW  HW  
EP  OW  HW  HW  EP  OW  HW  HW  EP  OW  HW  HW  EP  OW  HW  HW  EP  OW  HW  HW  
EP  OW  HW  HW  EP  OW  HW  HW  EP  OW  HW  HW  EP  OW  HW  HW  EP  OW  HW  HW  
EP  OW  HW  HW  EP  OW  HW  HW  EP  OW  HW  HW  EP  OW  HW  HW  EP  OW  HW  HW  
EP  OW  HW  HW  EP  OW  HW  HW  EP  OW  HW  HW  EP  OW  HW  HW  EP  OW  HW  HW  
EP  OW  HW  HW  EP  OW  HW  HW  EP  OW  HW  HW  EP  OW  HW  HW  EP  OW  HW  HW  
EP  OW  HW  HW  EP  OW  HW  HW  EP  OW  HW  HW  EP  OW  HW  HW  EP  OW  HW  HW  
EP  OW  HW  HW  EP  OW  HW  HW  EP  OW  HW  HW  EP  OW  HW  HW  EP  OW  HW  HW  
EP  OW  HW  HW  EP  OW  HW  HW  EP  OW  HW  HW  EP  OW  HW  HW  EP  OW  HW  HW  
EP  OW  HW  HW  EP  OW  HW  HW  EP  OW  HW  HW  EP  OW  HW  HW  EP  OW  HW  HW  
EP  OW  HW  HW  EP  OW  HW  HW  EP  OW  HW  HW  EP  OW  HW  HW  EP  OW  HW  HW  
EP  OW  HW  HW  EP  OW  HW  HW  EP  OW  HW  HW  EP  OW  HW  HW  EP  OW  HW  HW  
EP  OW  HW  HW  EP  OW  HW  HW  EP  OW  HW  HW  EP  OW  HW  HW  EP  OW  HW  HW  
EP  OW  HW  HW  EP  OW  HW  HW  EP  OW  HW  HW  EP  OW  HW  HW  EP  OW  HW  HW  
EP  OW  HW  HW  EP  OW  HW  HW  EP  OW  HW  HW  EP  OW  HW  HW  EP  OW  HW  HW  
EP  OW  HW  HW  EP  OW  HW  HW  EP  OW  HW  HW  EP  OW  HW  HW  EP  OW  HW  HW  
EP  OW  HW  HW  EP  OW  HW  HW  EP  OW  HW  HW  EP  OW  HW  HW  EP  OW  HW  HW  
EP  OW  HW  HW  EP  OW  HW  HW  EP  OW  HW  HW  EP  OW  HW  HW  EP  OW  HW  HW  
EP  OW  HW  HW  EP  OW  HW  HW  EP  OW  HW  HW  EP  OW  HW  HW  EP  OW  HW  HW  
EP  OW  HW  HW  EP  OW  HW  HW  EP  OW  HW  HW  EP  OW  HW  HW  EP  OW  HW  HW  
EP  OW  HW  HW  EP  OW  HW  HW  EP  OW  HW  HW  EP  OW  HW  HW  EP  OW  HW  HW  
EP  OW  HW  HW  EP  OW  HW  HW  EP  OW  HW  HW  EP  OW  HW  HW  EP  OW  HW  HW  
EP  OW  HW  HW  EP  OW  HW  HW  EP  OW  HW  HW  EP  OW  HW  HW  EP  OW  HW  HW  
EP  OW  HW  HW  EP  OW  HW  HW  EP  OW  HW  HW  EP  OW  HW  HW  EP  OW  HW  HW  
EP  OW  HW  HW  EP  OW  HW  HW  EP  OW  HW  HW  EP  OW  HW  HW  EP  OW  HW  HW  
EP  OW  HW  HW  EP  OW  HW  HW  EP  OW  HW  HW  EP  OW  HW  HW  EP  OW  HW  HW  
EP  OW  HW  HW  EP  OW  HW  HW  EP  OW  HW  HW  EP  OW  HW  HW  EP  OW  HW  HW  
EP  OW  HW  HW  EP  OW  HW  HW  EP  OW  HW  HW  EP  OW  HW  HW  EP  OW  HW  HW  
EP  OW  HW  HW  EP  OW  HW  HW  EP  OW  HW  HW  EP  OW  HW  HW  EP  OW  HW  HW  
EP  OW  HW  HW  EP  OW  HW  HW  EP  OW  HW  HW  EP  OW  HW  HW  EP  OW  HW  HW  
EP  OW  HW  HW  EP  OW  HW  HW  EP  OW  HW  HW  EP  OW  HW  HW  EP  OW  HW  HW  
EP  OW  HW  HW  EP  OW  HW  HW  EP  OW  HW  HW  EP  OW  HW  HW  EP  OW  HW  HW  
EP  OW  HW  HW  EP  OW  HW  HW  EP  OW  HW  HW  EP  OW  HW  HW  EP  OW  HW  HW  
EP  OW  HW  HW  EP  OW  HW  HW  EP  OW  HW  HW  EP  OW  HW  HW  EP  OW  HW  HW  
EP  OW  HW  HW  EP  OW  HW  HW  EP  OW  HW  HW  EP  OW  HW  HW  EP  OW  HW  HW  
EP  OW  HW  HW  EP  OW  HW  HW  EP  OW  HW  HW  EP  OW  HW  HW  EP  OW  HW  HW  
EP  OW  HW  HW  EP  OW  HW  HW  EP  OW  HW  HW  EP  OW  HW  HW  EP  OW  HW  HW  
EP  OW  HW  HW  EP  OW  HW  HW  EP  OW  HW  HW  EP  OW  HW  HW  EP  OW  HW  HW  
EP  OW  HW  HW  EP  OW  HW  HW  EP  OW  HW  HW  EP  OW  HW  HW  EP  OW  HW  HW  
EP  OW  HW  HW  EP  OW  HW  HW  EP  OW  HW  HW  EP  OW  HW  HW  EP  OW  HW  HW  
EP  OW  HW  HW  EP  OW  HW  HW  EP  OW  HW  HW  EP  OW  HW  HW  EP  OW  HW  HW  
EP  OW  HW  HW  EP  OW  HW  HW  EP  OW  HW  HW  EP  OW  HW  HW  EP  OW  HW  HW  
EP  OW  HW  HW  EP  OW  HW  HW  EP  OW  HW  HW  EP  OW  HW  HW  EP  OW  HW  HW  
EP  OW  HW  HW  EP  OW  HW  HW  EP  OW  HW  HW  EP  OW  HW  HW  EP  OW  HW  HW  
EP  OW  HW  HW  EP  OW  HW  HW  EP  OW  HW  HW  EP  OW  HW  HW  EP  OW  HW  HW  
EP  OW  HW  HW  EP  OW  HW  HW  EP  OW  HW  HW  EP  OW  HW  HW  EP  OW  HW  HW  
EP  OW  HW  HW  EP  OW  HW  HW  EP  OW  HW  HW  EP  OW  HW  HW  EP  OW  HW  HW  
EP  OW  HW  HW  EP  OW  HW  HW  EP  OW  HW  HW  EP  OW  HW  HW  EP  OW  HW  HW  
EP  OW  HW  HW  EP  OW  HW  HW  EP  OW  HW  HW  EP  OW  HW  HW  EP  OW  HW  HW  
EP  OW  HW  HW  EP  OW  HW  HW  EP  OW  HW  HW  EP  OW  HW  HW  EP  OW  HW  HW  
EP  OW  HW  HW  EP  OW  HW  HW  EP  OW  HW  HW  EP  OW  HW  HW  EP  OW  HW  HW  
EP  OW  HW  HW  EP  OW  HW  HW  EP  OW  HW  HW  EP  OW  HW  HW  EP  OW  HW  HW  
EP  OW  HW  HW  EP  OW  HW  HW  EP  OW  HW  HW  EP  OW  HW  HW  EP  OW  HW  HW  
EP  OW  HW  HW  EP  OW  HW  HW  EP  OW  HW  HW  EP  OW  HW  HW  EP  OW  HW  HW  
EP  OW  HW  HW  EP  OW  HW  HW  EP  OW  HW  HW  EP  OW  HW  HW  EP  OW  HW  HW  
EP  OW  HW  HW  EP  OW  HW  HW  EP  OW  HW  HW  EP  OW  HW  HW  EP  OW  HW  HW  
EP  OW  HW  HW  EP  OW  HW  HW  EP  OW  HW  HW  EP  OW  HW  HW  EP  OW  HW  HW  
EP  OW  HW  HW  EP  OW  HW  HW  EP  OW  HW  HW  EP  OW  HW  HW  EP  OW  HW  HW  
EP  OW  HW  HW  EP  OW  HW  HW  EP  OW  HW  HW  EP  OW  HW  HW  EP  OW  HW  HW  
EP  OW  HW  HW  EP  OW  HW  HW  EP  OW  HW  HW  EP  OW  HW  HW  EP  OW  HW  HW  
EP  OW  HW  HW  EP  OW  HW  HW  EP  OW  HW  HW  EP  OW  HW  HW  EP  OW  HW  HW  
EP  OW  HW  HW  EP  OW  HW  HW  EP  OW  HW  HW  EP  OW  HW  HW  EP  OW  HW  HW  
EP  OW  HW  HW  EP  OW  HW  HW  EP  OW  HW  HW  EP  OW  HW  HW  EP  OW  HW  HW  
EP  OW  HW  HW  EP  OW  HW  HW  EP  OW  HW  HW  EP  OW  HW  HW  EP  OW  HW  HW  
EP  OW  HW  HW  EP  OW  HW  HW  EP  OW  HW  HW  EP  OW  HW  HW  EP  OW  HW  HW  
EP  OW  HW  HW  EP  OW  HW  HW  EP  OW  HW  HW  EP  OW  HW  HW  EP  OW  HW  HW  
EP  OW  HW  HW  EP  OW  HW  HW  EP  OW  HW  HW  EP  OW  HW  HW  EP  OW  HW  HW  
EP  OW  HW  HW  EP  OW  HW  HW  EP  OW  HW  HW  EP  OW  HW  HW  EP  OW  HW  HW  
EP  OW  HW  HW  EP  OW  HW  HW  EP  OW  HW  HW  EP  OW  HW  HW  EP  OW  HW  HW  
EP  OW  HW  HW  EP  OW  HW  HW  EP  OW  HW  HW  EP  OW  HW  HW  EP  OW  HW  HW  
EP  OW  HW  HW  EP  OW  HW  HW  EP  OW  HW  HW  EP  OW  HW  HW  EP  OW  HW  HW  
EP  OW  HW  HW  EP  OW  HW  HW  EP  OW  HW  HW  EP  OW  HW  HW  EP  OW  HW  HW  
EP  OW  HW  HW  EP  OW  HW  HW  EP  OW  HW  HW  EP  OW  HW  HW  EP  OW  HW  HW  
EP  OW  HW  HW  EP  OW  HW  HW  EP  OW  HW  HW  EP  OW  HW  HW  EP  OW  HW  HW  
EP  OW  HW  HW  EP  OW  HW  HW  EP  OW  HW  HW  EP  OW  HW  HW  EP  OW  HW  HW  
EP  OW  HW  HW  EP  OW  HW  HW  EP  OW  HW  HW  EP  OW  HW  HW  EP  OW  HW  HW  
EP  OW  HW  HW  EP  OW  HW  HW  EP  OW  HW  HW  EP  OW  HW  HW  EP  OW  HW  HW  
EP  OW  HW  HW  EP  OW  HW  HW  EP  OW  HW  HW  EP  OW  HW  HW  EP  OW  HW  HW  
EP  OW  HW  HW  EP  OW  HW  HW  EP  OW  HW  HW  EP  OW  HW  HW  EP  OW  HW  HW  
EP  OW  HW  HW  EP  OW  HW  HW  EP  OW  HW  HW  EP  OW  HW  HW  EP  OW  HW  HW  
EP  OW  HW  HW  EP  OW  HW  HW  EP  OW  HW  HW  EP  OW  HW  HW  EP  OW  HW  HW  
EP  OW  HW  HW  EP  OW  HW  HW  EP  OW  HW  HW  EP  OW  HW  HW  EP  OW  HW  HW  
EP  OW  HW  HW  EP  OW  HW  HW  EP  OW  HW  HW  EP  OW  HW  HW  EP  OW  HW  HW  
EP  OW  HW  HW  EP  OW  HW  HW  EP  OW  HW  HW  EP  OW  HW  HW  EP  OW  HW  HW  
EP  OW  HW  HW  EP  OW  HW  HW  EP  OW  HW  HW  EP  OW  HW  HW  EP  OW  HW  HW  
EP  OW  HW  HW  EP  OW  HW  HW  EP  OW  HW  HW  EP  OW  HW  HW  EP  OW  HW  HW  
EP  OW  HW  HW  EP  OW  HW  HW  EP  OW  HW  HW  EP  OW  HW  HW  EP  OW  HW  HW  
EP  OW  HW  HW  EP  OW  HW  HW  EP  OW  HW  HW  EP  OW  HW  HW  EP  OW  HW  HW  
EP  OW  HW  HW  EP  OW  HW  HW  EP  OW  HW  HW  EP  OW  HW  HW  EP  OW  HW  HW  
EP  OW  HW  HW  EP  OW  HW  HW  EP  OW  HW  HW  EP  OW  HW  HW  EP  OW  HW  HW  
EP  OW  HW  HW  EP  OW  HW  HW  EP  OW  HW  HW  EP  OW  HW  HW  EP  OW  HW  HW  
EP  OW  HW  HW  EP  OW  HW  HW  EP  OW  HW  HW  EP  OW  HW  HW  EP  OW  HW  HW  
EP  OW  HW  HW  EP  OW  HW  HW  EP  OW  HW  HW  EP  OW  HW  HW  EP  OW  HW  HW  
EP  OW  HW  HW  EP  OW  HW  HW  EP  OW  HW  HW  EP  OW  HW  HW  EP  OW  HW  HW  
EP  OW  HW  HW  EP  OW  HW  HW  EP  OW  HW  HW  EP  OW  HW  HW  EP  OW  HW  HW  
EP  OW  HW  HW  EP  OW  HW  HW  EP  OW  HW  HW  EP  OW  HW  HW  EP  OW  HW  HW  
EP  OW  HW  HW  EP  OW  HW  HW  EP  OW  HW  HW  EP  OW  HW  HW  EP  OW  HW  HW  
EP  OW  HW  HW  EP  OW  HW  HW  EP  OW  HW  HW  EP  OW  HW  HW  EP  OW  HW  HW  
EP  OW  HW  HW  EP  OW  HW  HW  EP  OW  HW  HW  EP  OW  HW  HW  EP  OW  HW  HW  
EP  OW  HW  HW  EP  OW  HW  HW  EP  OW  HW  HW  EP  OW  HW  HW  EP  OW  HW  HW  
EP  OW  HW  HW  EP  OW  HW  HW  EP  OW  HW  HW  EP  OW  HW  HW  EP  OW  HW  HW  
EP  OW  HW  HW  EP  OW  HW  HW  EP  OW  HW  HW  EP  OW  HW  HW  EP  OW  HW  HW  
EP  OW  HW  HW  EP  OW  HW  HW  EP  OW  HW  HW  EP  OW  HW  HW  EP  OW  HW  HW  
EP  OW  HW  HW  EP  OW  HW  HW  EP  OW  HW  HW  EP  OW  HW  HW  EP  OW  HW  HW  
EP  OW  HW  HW  EP  OW  HW  HW  EP  OW  HW  HW  EP  OW  HW  HW  EP  OW  HW  HW  
EP  OW  HW  HW  EP  OW  HW  HW  EP  OW  HW  HW  EP  OW  HW  HW  EP  OW  HW  HW  
EP  OW  HW  HW  EP  OW  HW  HW  EP  OW  HW  HW  EP  OW  HW  HW  EP  OW  HW  HW  
EP  OW  HW  HW  EP  OW  HW  HW  EP  OW  HW  HW  EP  OW  HW  HW  EP  OW  HW  HW  
EP  OW  HW  HW  EP  OW  HW  HW  EP  OW  HW  HW  EP  OW  HW  HW  EP  OW  HW  HW  
EP  OW  HW  HW  EP  OW  HW  HW  EP  OW  HW  HW  EP  OW  HW  HW  EP  OW  HW  HW  
EP  OW  HW  HW  EP  OW  HW  HW  EP  OW  HW  HW  EP  OW  HW  HW  EP  OW  HW  HW  
EP  OW  HW  HW  EP  OW  HW  HW  EP  OW  HW  HW  EP  OW  HW  HW  EP  OW  HW  HW  
EP  OW  HW  HW  EP  OW  HW  HW  EP  OW  HW  HW  EP  OW  HW  HW  EP  OW  HW  HW  
EP  OW  HW  HW  EP  OW  HW  HW  EP  OW  HW  HW  EP  OW  HW  HW  EP  OW  HW  HW  
EP  OW  HW  HW  EP  OW  HW  HW  EP  OW  HW  HW  EP  OW  HW  HW  EP  OW  HW  HW  
EP  OW  HW  HW  EP  OW  HW  HW  EP  OW  HW  HW  EP  OW  HW  HW  EP  OW  HW  HW  
EP  OW  HW  HW  EP  OW  HW  HW  EP  OW  HW  HW  EP  OW  HW  HW  EP  OW  HW  HW  
EP  OW  HW  HW  EP  OW  HW  HW  EP  OW  HW  HW  EP  OW  HW  HW  EP  OW  HW  HW  
EP  OW  HW  HW  EP  OW  HW  HW  EP  OW  HW  HW  EP  OW  HW  HW  EP  OW  HW  HW  
EP  OW  HW  HW  EP  OW  HW  HW  EP  OW  HW  HW  EP  OW  HW  HW  EP  OW  HW  HW  
EP  OW  HW  HW  EP  OW  HW  HW  EP  OW  HW  HW  EP  OW  HW  HW  EP  OW  HW  HW  
EP  OW  HW  HW  EP  OW  HW  HW  EP  OW  HW  HW  EP  OW  HW  HW  EP  OW  HW  HW  
EP  OW  HW  HW  EP  OW  HW  HW  EP  OW  HW  HW  EP  OW  HW  HW  EP  OW  HW  HW  
EP  OW  HW  HW  EP  OW  HW  HW  EP  OW  HW  HW  EP  OW  HW  HW  EP  OW  HW  HW  
EP  OW  HW  HW  EP  OW  HW  HW  EP  OW  HW  HW  EP  OW  HW  HW  EP  OW  HW  HW  
EP  OW  HW  HW  EP  OW  HW  HW  EP  OW  HW  HW  EP  OW  HW  HW  EP  OW  HW  HW  
EP  OW  HW  HW  EP  OW  HW  HW  EP  OW  HW  HW  EP  OW  HW  HW  EP  OW  HW  HW  
EP  OW  HW  HW  EP  OW  HW  HW  EP  OW  HW  HW  EP  OW  HW  HW  EP  OW  HW  HW  
EP  OW  HW  HW  EP  OW  HW  HW  EP  OW  HW  HW  EP  OW  HW  HW  EP  OW  HW  HW  
EP  OW  HW  HW  EP  OW  HW  HW  EP  OW  HW  HW  EP  OW  HW  HW  EP  OW  HW  HW  
EP  OW  HW  HW  EP  OW  HW  HW  EP  OW  HW  HW  EP  OW  HW  HW  EP  OW  HW  HW  
EP  OW  HW  HW  EP  OW  HW  HW  EP  OW  HW  HW  EP  OW  HW  HW  EP  OW  HW  HW  
EP  OW  HW  HW  EP  OW  HW  HW  EP  OW  HW  HW  EP  OW  HW  HW  EP  OW  HW  HW  
EP  OW  HW  HW  EP  OW  HW  HW  EP  OW  HW  HW  EP  OW  HW  HW  EP  OW  HW  HW  
EP  OW  HW  HW  EP  OW  HW  HW  EP  OW  HW  HW  EP  OW  HW  HW  EP  OW  HW  HW  
EP  OW  HW  HW  EP  OW  HW  HW  EP  OW  HW  HW  EP  OW  HW  HW  EP  OW  HW  HW  
EP  OW  HW  HW  EP  OW  HW  HW  EP  OW  HW  HW  EP  OW  HW  HW  EP  OW  HW  HW  
EP  OW  HW  HW  EP  OW  HW  HW  EP  OW  HW  HW  EP  OW  HW  HW  EP  OW  HW  HW  
EP  OW  HW  HW  EP  OW  HW  HW  EP  OW  HW  HW  EP  OW  HW  HW  EP  OW  HW  HW  
EP  OW  HW  HW  EP  OW  HW  HW  EP  OW  HW  HW  EP  OW  HW  HW  EP  OW  HW  HW  
EP  OW  HW  HW  EP  OW  HW  HW  EP  OW  HW  HW  EP  OW  HW  HW  EP  OW  HW  HW  
EP  OW  HW  HW  EP  OW  HW  HW  EP  OW  HW  HW  EP  OW  HW  HW  EP  OW  HW  HW  
EP  OW  HW  HW  EP  OW  HW  HW  EP  OW  HW  HW  EP  OW  HW  HW  EP  OW  HW  HW  
EP  OW  HW  HW  EP  OW  HW  HW  EP  OW  HW  HW  EP  OW  HW  HW  EP  OW  HW  HW  
EP  OW  HW  HW  EP  OW  HW  HW  EP  OW  HW  HW  EP  OW  HW  HW  EP  OW  HW  HW  
EP  OW  HW  HW  EP  OW  HW  HW  EP  OW  HW  HW  EP  OW  HW  HW  EP  OW  HW  HW  
EP  OW  HW  HW  EP  OW  HW  HW  EP  OW  HW  HW  EP  OW  HW  HW  EP  OW  HW  HW  
EP  OW  HW  HW  EP  OW  HW  HW  EP  OW  HW  HW  EP  OW  HW  HW  EP  OW  HW  HW  
EP  OW  HW  HW  EP  OW  HW  HW  EP  OW  HW  HW  EP  OW  HW  HW  EP  OW  HW  HW  
EP  OW  HW  HW  EP  OW  HW  HW  EP  OW  HW  HW  EP  OW  HW  HW  EP  OW  HW  HW  
EP  OW  HW  HW  EP  OW  HW  HW  EP  OW  HW  HW  EP  OW  HW  HW  EP  OW  HW  HW  
EP  OW  HW  HW  EP  OW  HW  HW  EP  OW  HW  HW  EP  OW  HW  HW  EP  OW  HW  HW  
EP  OW  HW  HW  EP  OW  HW  HW  EP  OW  HW  HW  EP  OW  HW  HW  EP  OW  HW  HW  
EP  OW  HW  HW  EP  OW  HW  HW  EP  OW  HW  HW  EP  OW  HW  HW  EP  OW  HW  HW  
EP  OW  HW  HW  EP  OW  HW  HW  EP  OW  HW  HW  EP  OW  HW  HW  EP  OW  HW  HW  
EP  OW  HW  HW  EP  OW  HW  HW  EP  OW  HW  HW  EP  OW  HW  HW  EP  OW  HW  HW  
EP  OW  HW  HW  EP  OW  HW  HW  EP  OW  HW  HW  EP  OW  HW  HW  EP  OW  HW  HW  
EP  OW  HW  HW  EP  OW  HW  HW  EP  OW  HW  HW  EP  OW  HW  HW  EP  OW  HW  HW  
EP  OW  HW  HW  EP  OW  HW  HW  EP  OW  HW  HW  EP  OW  HW  HW  EP  OW  HW  HW  
EP  OW  HW  HW  EP  OW  HW  HW  EP  OW  HW  HW  EP  OW  HW  HW  EP  OW  HW  HW  
EP  OW  HW  HW  EP  OW  HW  HW  EP  OW  HW  HW  EP  OW  HW  HW  EP  OW  HW  HW  
EP  OW  HW  HW  EP  OW  HW  HW  EP  OW  HW  HW  EP  OW  HW  HW  EP  OW  HW  HW  
EP  OW  HW  HW  EP  OW  HW  HW  EP  OW  HW  HW  EP  OW  HW  HW  EP  OW  HW  HW  
EP  OW  HW  HW  EP  OW  HW  HW  EP  OW  HW  HW  EP  OW  HW  HW  EP  OW  HW  HW  
EP  OW  HW  HW  EP  OW  HW  HW  EP  OW  HW  HW  EP  OW  HW  HW  EP  OW  HW  HW  
EP  OW  HW  HW  EP  OW  HW  HW  EP  OW  HW  HW  EP  OW  HW  HW  EP  OW  HW  HW  
EP  OW  HW  HW  EP  OW  HW  HW  EP  OW  HW  HW  EP  OW  HW  HW  EP  OW  HW  HW  
EP  OW  HW  HW  EP  OW  HW  HW  EP  OW  HW  HW  EP  OW  HW  HW  EP  OW  HW  HW  
EP  OW  HW  HW  EP  OW  HW  HW  EP  OW  HW  HW  EP  OW  HW  HW  EP  OW  HW  HW  
EP  OW  HW  HW  EP  OW  HW  HW  EP  OW  HW  HW  EP  OW  HW  HW  EP  OW  HW  HW  
EP  OW  HW  HW  EP  OW  HW  HW  EP  OW  HW  HW  EP  OW  HW  HW  EP  OW  HW  HW  
EP  OW  HW  HW  EP  OW  HW  HW  EP  OW  HW  HW  EP  OW  HW  HW  EP  OW  HW  HW  
EP  OW  HW  HW  EP  OW  HW  HW  EP  OW  HW  HW  EP  OW  HW  HW  EP  OW  HW  HW  
EP  OW  HW  HW  EP  OW  HW  HW  EP  OW  HW  HW  EP  OW  HW  HW  EP  OW  HW  HW  
EP  OW  HW  HW  EP  OW  HW  HW  EP  OW  HW  HW  EP  OW  HW  HW  EP  OW  HW  HW  
EP  OW  HW  HW  EP  OW  HW  HW  EP  OW  HW  HW  EP  OW  HW  HW  EP  OW  HW  HW  
EP  OW  HW  HW  EP  OW  HW  HW  EP  OW  HW  HW  EP  OW  HW  HW  EP  OW  HW  HW  
EP  OW  HW  HW  EP  OW  HW  HW  EP  OW  HW  HW  EP  OW  HW  HW  EP  OW  HW  HW  
EP  OW  HW  HW  EP  OW  HW  HW  EP  OW  HW  HW  EP  OW  HW  HW  EP  OW  HW  HW  
EP  OW  HW  HW  EP  OW  HW  HW  EP  OW  HW  HW  EP  OW  HW  HW  EP  OW  HW  HW  
EP  OW  HW  HW  EP  OW  HW  HW  EP  OW  HW  HW  EP  OW  HW  HW  EP  OW  HW  HW  
EP  OW  HW  HW  EP  OW  HW  HW  EP  OW  HW  HW  EP  OW  HW  HW  EP  OW  HW  HW  
EP  OW  HW  HW  EP  OW  HW  HW  EP  OW  HW  HW  EP  OW  HW  HW  EP  OW  HW  HW  
EP  OW  HW  HW  EP  OW  HW  HW  EP  OW  HW  HW  EP  OW  HW  HW  EP  OW  HW  HW  
EP  OW  HW  HW  EP  OW  HW  HW  EP  OW  HW  HW  EP  OW  HW  HW  EP  OW  HW  HW  
EP  OW  HW  HW  EP  OW  HW  HW  EP  OW  HW  HW  EP  OW  HW  HW  EP  OW  HW  HW  
EP  OW  HW  HW  EP  OW  HW  HW  EP  OW  HW  HW  EP  OW  HW  HW  EP  OW  HW  HW  
EP  OW  HW  HW  EP  OW  HW  HW  EP  OW  HW  HW  EP  OW  HW  HW  EP  OW  HW  HW  
EP  OW  HW  HW  EP  OW  HW  HW  EP  OW  HW  HW  EP  OW  HW  HW  EP  OW  HW  HW  
EP  OW  HW  HW  EP  OW  HW  HW  EP  OW  HW  HW  EP  OW  HW  HW  EP  OW  HW  HW  
EP  OW  HW  HW  EP  OW  HW  HW  EP  OW  HW  HW  EP  OW  HW  HW  EP  OW  HW  HW  
EP  OW  HW  HW  EP  OW  HW  HW  EP  OW  HW  HW  EP  OW  HW  HW  EP  OW  HW  HW  
EP  OW  HW  HW  EP  OW  HW  HW  EP  OW  HW  HW  EP  OW  HW  HW  EP  OW  HW  HW  
EP  OW  HW  HW  EP  OW  HW  HW  EP  OW  HW  HW  EP  OW  HW  HW  EP  OW  HW  HW  
EP  OW  HW  HW  EP  OW  HW  HW  EP  OW  HW  HW  EP  OW  HW  HW  EP  OW  HW  HW  
EP  OW  HW  HW  EP  OW  HW  HW  EP  OW  HW  HW  EP  OW  HW  HW  EP  OW  HW  HW  
EP  OW  HW  HW  EP  OW  HW  HW  EP  OW  HW  HW  EP  OW  HW  HW  EP  OW  HW  HW  
EP  OW  HW  HW  EP  OW  HW  HW  EP  OW  HW  HW  EP  OW  HW  HW  EP  OW  HW  HW  
EP  OW  HW  HW  EP  OW  HW  HW  EP  OW  HW  HW  EP  OW  HW  HW  EP  OW  HW  HW  
EP  OW  HW  HW  EP  OW  HW  HW  EP  OW  HW  HW  EP  OW  HW  HW  EP  OW  HW  HW  
EP  OW  HW  HW  EP  OW  HW  HW  EP  OW  HW  HW  EP  OW  HW  HW  EP  OW  HW  HW  
EP  OW  HW  HW  EP  OW  HW  HW  EP  OW  HW  HW  EP  OW  HW  HW  EP  OW  HW  HW  
EP  OW  HW  HW  EP  OW  HW  HW  EP  OW  HW  HW  EP  OW  HW  HW  EP  OW  HW  HW  
EP  OW  HW  HW  EP  OW  HW  HW  EP  OW  HW  HW  EP  OW  HW  HW  EP  OW  HW  HW  
EP  OW  HW  HW  EP  OW  HW  HW  EP  OW  HW  HW  EP  OW  HW  HW  EP  OW  HW  HW  
EP  OW  HW  HW  EP  OW  HW  HW  EP  OW  HW  HW  EP  OW  HW  HW  EP  OW  HW  HW  
EP  OW  HW  HW  EP  OW  HW  HW  EP  OW  HW  HW  EP  OW  HW  HW  EP  OW  HW  HW  
EP  OW  HW  HW  EP  OW  HW  HW  EP  OW  HW  HW  EP  OW  HW  HW  EP  OW  HW  HW  
EP  OW  HW  HW  EP  OW  HW  HW  EP  OW  HW  HW  EP  OW  HW  HW  EP  OW  HW  HW  
EP  OW  HW  HW  EP  OW  HW  HW  EP  OW  HW  HW  EP  OW  HW  HW  EP  OW  HW  HW  
EP  OW  HW  HW  EP  OW  HW  HW  EP  OW  HW  HW  EP  OW  HW  HW  EP  OW  HW  HW  
EP  OW  HW  HW  EP  OW  HW  HW  EP  OW  HW  HW  EP  OW  HW  HW  EP  OW  HW  HW  
EP  OW  HW  HW  EP  OW  HW  HW  EP  OW  HW  HW  EP  OW  HW  HW  EP  OW  HW  HW  
EP  OW  HW  HW  EP  OW  HW  HW  EP  OW  HW  HW  EP  OW  HW  HW  EP  OW  HW  HW  
EP  OW  HW  HW  EP  OW  HW  HW  EP  OW  HW  HW  EP  OW  HW  HW  EP  OW  HW  HW  
EP  OW  HW  HW  EP  OW  HW  HW  EP  OW  HW  HW  EP  OW  HW  HW  EP  OW  HW  HW  
EP  OW  HW  HW  EP  OW  HW  HW  EP  OW  HW  HW  EP  OW  HW  HW  EP  OW  HW  HW  
EP  OW  HW  HW  EP  OW  HW  HW  EP  OW  HW  HW  EP  OW  HW  HW  EP  OW  HW  HW  
EP  OW  HW  HW  EP  OW  HW  HW  EP  OW  HW  HW  EP  OW  HW  HW  EP  OW  HW  HW  
EP  OW  HW  HW  EP  OW  HW  HW  EP  OW  HW  HW  EP  OW  HW  HW  EP  OW  HW  HW  
EP  OW  HW  HW  EP  OW  HW  HW  EP  OW  HW  HW  EP  OW  HW  HW  EP  OW  HW  HW  
EP  OW  HW  HW  EP  OW  HW  HW  EP  OW  HW  HW  EP  OW  HW  HW  EP  OW  HW  HW  
EP  OW  HW  HW  EP  OW  HW  HW  EP  OW  HW  HW  EP  OW  HW  HW  EP  OW  HW  HW  
EP  OW  HW  HW  EP  OW  HW  HW  EP  OW  HW  HW  EP  OW  HW  HW  EP  OW  HW  HW  
EP  OW  HW  HW  EP  OW  HW  HW  EP  OW  HW  HW  EP  OW  HW  HW  EP  OW  HW  HW  
EP  OW  HW  HW  EP  OW  HW  HW  EP  OW  HW  HW  EP  OW  HW  HW  EP  OW  HW  HW  
EP  OW  HW  HW  EP  OW  HW  HW  EP  OW  HW  HW  EP  OW  HW  HW  EP  OW  HW  HW  
EP  OW  HW  HW  EP  OW  HW  HW  EP  OW  HW  HW  EP  OW  HW  HW  EP  OW  HW  HW  
EP  OW  HW  HW  EP  OW  HW  HW  EP  OW  HW  HW  EP  OW  HW  HW  EP  OW  HW  HW  
EP  OW  HW  HW  EP  OW  HW  HW  EP  OW  HW  HW  EP  OW  HW  HW  EP  OW  HW  HW  
EP  OW  HW  HW  EP  OW  HW  HW  EP  OW  HW  HW  EP  OW  HW  HW  EP  OW  HW  HW  
EP  OW  HW  HW  EP  OW  HW  HW  EP  OW  HW  HW  EP  OW  HW  HW  EP  OW  HW  HW  
EP  OW  HW  HW  EP  OW  HW  HW  EP  OW  HW  HW  EP  OW  HW  HW  EP  OW  HW  HW  
EP  OW  HW  HW  EP  OW  HW  HW  EP  OW  HW  HW  EP  OW  HW  HW  EP  OW  HW  HW  
EP  OW  HW  HW  EP  OW  HW  HW  EP  OW  HW  HW  EP  OW  HW  HW  EP  OW  HW  HW  
EP  OW  HW  HW  EP  OW  HW  HW  EP  OW  HW  HW  EP  OW  HW  HW  EP  OW  HW  HW  
EP  OW  HW  HW  EP  OW  HW  HW  EP  OW  HW  HW  EP  OW  HW  HW  EP  OW  HW  HW  
EP  OW  HW  HW  EP  OW  HW  HW  EP  OW  HW  HW  EP  OW  HW  HW  EP  OW  HW  HW  
EP  OW  HW  HW  EP  OW  HW  HW  EP  OW  HW  HW  EP  OW  HW  HW  EP  OW  HW  HW  
EP  OW  HW  HW  EP  OW  HW  HW  EP  OW  HW  HW  EP  OW  HW  HW  EP  OW  HW  HW  
EP  OW  HW  HW  EP  OW  HW  HW  EP  OW  HW  HW  EP  OW  HW  HW  EP  OW  HW  HW  
EP  OW  HW  HW  EP  OW  HW  HW  EP  OW  HW  HW  EP  OW  HW  HW  EP  OW  HW  HW  
EP  OW  HW  HW  EP  OW  HW  HW  EP  OW  HW  HW  EP  OW  HW  HW  EP  OW  HW  HW  
EP  OW  HW  HW  EP  OW  HW  HW  EP  OW  HW  HW  EP  OW  HW  HW  EP  OW  HW  HW  
EP  OW  HW  HW  EP  OW  HW  HW  EP  OW  HW  HW  EP  OW  HW  HW  EP  OW  HW  HW  
EP  OW  HW  HW  EP  OW  HW  HW  EP  OW  HW  HW  EP  OW  HW  HW  EP  OW  HW  HW  
EP  OW  HW  HW  EP  OW  HW  HW  EP  OW  HW  HW  EP  OW  HW  HW  EP  OW  HW  HW  
EP  OW  HW  HW  EP  OW  HW  HW  EP  OW  HW  HW  EP  OW  HW  HW  EP  OW  HW  HW  
EP  OW  HW  HW  EP  OW  HW  HW  EP  OW  HW  HW  EP  OW  HW  HW  EP  OW  HW  HW  
EP  OW  HW  HW  EP  OW  HW  HW  EP  OW  HW  HW  EP  OW  HW  HW  EP  OW  HW  HW  
EP  OW  HW  HW  EP  OW  HW  HW  EP  OW  HW  HW  EP  OW  HW  HW  EP  OW  HW  HW  
EP  OW  HW  HW  EP  OW  HW  HW  EP  OW  HW  HW  EP  OW  HW  HW  EP  OW  HW  HW  
EP  OW  HW  HW  EP  OW  HW  HW  EP  OW  HW  HW  EP  OW  HW  HW  EP  OW  HW  HW  
EP  OW  HW  HW  EP  OW  HW  HW  EP  OW  HW  HW  EP  OW  HW  HW  EP  OW  HW  HW  
EP  OW  HW  HW  EP  OW  HW  HW  EP  OW  HW  HW  EP  OW  HW  HW  EP  OW  HW  HW  
EP  OW  HW  HW  EP  OW  HW  HW  EP  OW  HW  HW  EP  OW  HW  HW  EP  OW  HW  HW  
EP  OW  HW  HW  EP  OW  HW  HW  EP  OW  HW  HW  EP  OW  HW  HW  EP  OW  HW  HW  
EP  OW  HW  HW  EP  OW  HW  HW  EP  OW  HW  HW  EP  OW  HW  HW  EP  OW  HW  HW  
EP  OW  HW  HW  EP  OW  HW  HW  EP  OW  HW  HW  EP  OW  HW  HW  EP  OW  HW  HW  
EP  OW  HW  HW  EP  OW  HW  HW  EP  OW  HW  HW  EP  OW  HW  HW  EP  OW  HW  HW  
EP  OW  HW  HW  EP  OW  HW  HW  EP  OW  HW  HW  EP  OW  HW  HW  EP  OW  HW  HW  
EP  OW  HW  HW  EP  OW  HW  HW  EP  OW  HW  HW  EP  OW  HW  HW  EP  OW  HW  HW  
EP  OW  HW  HW  EP  OW  HW  HW  EP  OW  HW  HW  EP  OW  HW  HW  EP  OW  HW  HW  
EP  OW  HW  HW  EP  OW  HW  HW  EP  OW  HW  HW  EP  OW  HW  HW  EP  OW  HW  HW  
EP  OW  HW  HW  EP  OW  HW  HW  EP  OW  HW  HW  EP  OW  HW  HW  EP  OW  HW  HW  
EP  OW  HW  HW  EP  OW  HW  HW  EP  OW  HW  HW  EP  OW  HW  HW  EP  OW  HW  HW  
EP  OW  HW  HW  EP  OW  HW  HW  EP  OW  HW  HW  EP  OW  HW  HW  EP  OW  HW  HW  
EP  OW  HW  HW  EP  OW  HW  HW  EP  OW  HW  HW  EP  OW  HW  HW  EP  OW  HW  HW  
EP  OW  HW  HW  EP  OW  HW  HW  EP  OW  HW  HW  EP  OW  HW  HW  EP  OW  HW  HW  
EP  OW  HW  HW  EP  OW  HW  HW  EP  OW  HW  HW  EP  OW  HW  HW  EP  OW  HW  HW  
EP  OW  HW  HW  EP  OW  HW  HW  EP  OW  HW  HW  EP  OW  HW  HW  EP  OW  HW  HW  
EP  OW  HW  HW  EP  OW  HW  HW  EP  OW  HW  HW  EP  OW  HW  HW  EP  OW  HW  HW  
EP  OW  HW  HW  EP  OW  HW  HW  EP  OW  HW  HW  EP  OW  HW  HW  EP  OW  HW  HW  
EP  OW  HW  HW  EP  OW  HW  HW  EP  OW  HW  HW  EP  OW  HW  HW  EP  OW  HW  HW  
EP  OW  HW  HW  EP  OW  HW  HW  EP  OW  HW  HW  EP  OW  HW  HW  EP  OW  HW  HW  
EP  OW  HW  HW  EP  OW  HW  HW  EP  OW  HW  HW  EP  OW  HW  HW  EP  OW  HW  HW  
EP  OW  HW  HW  EP  OW  HW  HW  EP  OW  HW  HW  EP  OW  HW  HW  EP  OW  HW  HW  
EP  OW  HW  HW  EP  OW  HW  HW  EP  OW  HW  HW  EP  OW  HW  HW  EP  OW  HW  HW  
EP  OW  HW  HW  EP  OW  HW  HW  EP  OW  HW  HW  EP  OW  HW  HW  EP  OW  HW  HW  
EP  OW  HW  HW  EP  OW  HW  HW  EP  OW  HW  HW  EP  OW  HW  HW  EP  OW  HW  HW  
EP  OW  HW  HW  EP  OW  HW  HW  EP  OW  HW  HW  EP  OW  HW  HW  EP  OW  HW  HW  
EP  OW  HW  HW  EP  OW  HW  HW  EP  OW  HW  HW  EP  OW  HW  HW  EP  OW  HW  HW  
EP  OW  HW  HW  EP  OW  HW  HW  EP  OW  HW  HW  EP  OW  HW  HW  EP  OW  HW  HW  
EP  OW  HW  HW  EP  OW  HW  HW  EP  OW  HW  HW  EP  OW  HW  HW  EP  OW  HW  HW  
EP  OW  HW  HW  EP  OW  HW  HW  EP  OW  HW  HW  EP  OW  HW  HW  EP  OW  HW  HW  
EP  OW  HW  HW  EP  OW  HW  HW  EP  OW  HW  HW  EP  OW  HW  HW  EP  OW  HW  HW  
EP  OW  HW  HW  EP  OW  HW  HW  EP  OW  HW  HW  EP  OW  HW  HW  EP  OW  HW  HW  
EP  OW  HW  HW  EP  OW  HW  HW  EP  OW  HW  HW  EP  OW  HW  HW  EP  OW  HW  HW  
EP  OW  HW  HW  EP  OW  HW  HW  EP  OW  HW  HW  EP  OW  HW  HW  EP  OW  HW  HW  
EP  OW  HW  HW  EP  OW  HW  HW  EP  OW  HW  HW  EP  OW  HW  HW  EP  OW  HW  HW  
EP  OW  HW  HW  EP  OW  HW  HW  EP  OW  HW  HW  EP  OW  HW  HW  EP  OW  HW  HW  
EP  OW  HW  HW  EP  OW  HW  HW  EP  OW  HW  HW  EP  OW  HW  HW  EP  OW  HW  HW  
EP  OW  HW  HW  EP  OW  HW  HW  EP  OW  HW  HW  EP  OW  HW  HW  EP  OW  HW  HW  
EP  OW  HW  HW  EP  OW  HW  HW  EP  OW  HW  HW  EP  OW  HW  HW  EP  OW  HW  HW  
EP  OW  HW  HW  EP  OW  HW  HW  EP  OW  HW  HW  EP  OW  HW  HW  EP  OW  HW  HW  
EP  OW  HW  HW  EP  OW  HW  HW  EP  OW  HW  HW  EP  OW  HW  HW  EP  OW  HW  HW  
EP  OW  HW  HW  EP  OW  HW  HW  EP  OW  HW  HW  EP  OW  HW  HW  EP  OW  HW  HW  
EP  OW  HW  HW  EP  OW  HW  HW  EP  OW  HW  HW  EP  OW  HW  HW  EP  OW  HW  HW  
EP  OW  HW  HW  EP  OW  HW  HW  EP  OW  HW  HW  EP  OW  HW  HW  EP  OW  HW  HW  
EP  OW  HW  HW  EP  OW  HW  HW  EP  OW  HW  HW  EP  OW  HW  HW  EP  OW  HW  HW  
EP  OW  HW  HW  EP  OW  HW  HW  EP  OW  HW  HW  EP  OW  HW  HW  EP  OW  HW  HW  
EP  OW  HW  HW  EP  OW  HW  HW  EP  OW  HW  HW  EP  OW  HW  HW  EP  OW  HW  HW  
EP  OW  HW  HW  EP  OW  HW  HW  EP  OW  HW  HW  EP  OW  HW  HW  EP  OW  HW  HW  
EP  OW  HW  HW  EP  OW  HW  HW  EP  OW  HW  HW  EP  OW  HW  HW  EP  OW  HW  HW  
EP  OW  HW  HW  EP  OW  HW  HW  EP  OW  HW  HW  EP  OW  HW  HW  EP  OW  HW  HW  
EP  OW  HW  HW  EP  OW  HW  HW  EP  OW  HW  HW  EP  OW  HW  HW  EP  OW  HW  HW  
EP  OW  HW  HW  EP  OW  HW  HW  EP  OW  HW  HW  EP  OW  HW  HW  EP  OW  HW  HW  
EP  OW  HW  HW  EP  OW  HW  HW  EP  OW  HW  HW  EP  OW  HW  HW  EP  OW  HW  HW  
EP  OW  HW  HW  EP  OW  HW  HW  EP  OW  HW  HW  EP  OW  HW  HW  EP  OW  HW  HW  
EP  OW  HW  HW  EP  OW  HW  HW  EP  OW  HW  HW  EP  OW  HW  HW  EP  OW  HW  HW  
EP  OW  HW  HW  EP  OW  HW  HW  EP  OW  HW  HW  EP  OW  HW  HW  EP  OW  HW  HW  
EP  OW  HW  HW  EP  OW  HW  HW  EP  OW  HW  HW  EP  OW  HW  HW  EP  OW  HW  HW  
EP  OW  HW  HW  EP  OW  HW  HW  EP  OW  HW  HW  EP  OW  HW  HW  EP  OW  HW  HW  
EP  OW  HW  HW  EP  OW  HW  HW  EP  OW  HW  HW  EP  OW  HW  HW  EP  OW  HW  HW  
EP  OW  HW  HW  EP  OW  HW  HW  EP  OW  HW  HW  EP  OW  HW  HW  EP  OW  HW  HW  
EP  OW  HW  HW  EP  OW  HW  HW  EP  OW  HW  HW  EP  OW  HW  HW  EP  OW  HW  HW  
EP  OW  HW  HW  EP  OW  HW  HW  EP  OW  HW  HW  EP  OW  HW  HW  EP  OW  HW  HW  
EP  OW  HW  HW  EP  OW  HW  HW  EP  OW  HW  HW  EP  OW  HW  HW  EP  OW  HW  HW  
EP  OW  HW  HW  EP  OW  HW  HW  EP  OW  HW  HW  EP  OW  HW  HW  EP  OW  HW  HW  
EP  OW  HW  HW  EP  OW  HW  HW  EP  OW  HW  HW  EP  OW  HW  HW  EP  OW  HW  HW  
EP  OW  HW  HW  EP  OW  HW  HW  EP  OW  HW  HW  EP  OW  HW  HW  EP  OW  HW  HW  
EP  OW  HW  HW  EP  OW  HW  HW  EP  OW  HW  HW  EP  OW  HW  HW  EP  OW  HW  HW  
EP  OW  HW  HW  EP  OW  HW  HW  EP  OW  HW  HW  EP  OW  HW  HW  EP  OW  HW  HW  
EP  OW  HW  HW  EP  OW  HW  HW  EP  OW  HW  HW  EP  OW  HW  HW  EP  OW  HW  HW  
EP  OW  HW  HW  EP  OW  HW  HW  EP  OW  HW  HW  EP  OW  HW  HW  EP  OW  HW  HW  
EP  OW  HW  HW  EP  OW  HW  HW  EP  OW  HW  HW  EP  OW  HW  HW  EP  OW  HW  HW  
EP  OW  HW  HW  EP  OW  HW  HW  EP  OW  HW  HW  EP  OW  HW  HW  EP  OW  HW  HW  
EP  OW  HW  HW  EP  OW  HW  HW  EP  OW  HW  HW  EP  OW  HW  HW  EP  OW  HW  HW  
EP  OW  HW  HW  EP  OW  HW  HW  EP  OW  HW  HW  EP  OW  HW  HW  EP  OW  HW  HW  
EP  OW  HW  HW  EP  OW  HW  HW  EP  OW  HW  HW  EP  OW  HW  HW  EP  OW  HW  HW  
EP  OW  HW  HW  EP  OW  HW  HW  EP  OW  HW  HW  EP  OW  HW  HW  EP  OW  HW  HW  
EP  OW  HW  HW  EP  OW  HW  HW  EP  OW  HW  HW  EP  OW  HW  HW  EP  OW  HW  HW  
EP  OW  HW  HW  EP  OW  HW  HW  EP  OW  HW  HW  EP  OW  HW  HW  EP  OW  HW  HW  
EP  OW  HW  HW  EP  OW  HW  HW  EP  OW  HW  HW  EP  OW  HW  HW  EP  OW  HW  HW  
EP  OW  HW  HW  EP  OW  HW  HW  EP  OW  HW  HW  EP  OW  HW  HW  EP  OW  HW  HW  
EP  OW  HW  HW  EP  OW  HW  HW  EP  OW  HW  HW  EP  OW  HW  HW  EP  OW  HW  HW  
EP  OW  HW  HW  EP  OW  HW  HW  EP  OW  HW  HW  EP  OW  HW  HW  EP  OW  HW  HW  
EP  OW  HW  HW  EP  OW  HW  HW  EP  OW  HW  HW  EP  OW  HW  HW  EP  OW  HW  HW  
EP  OW  HW  HW  EP  OW  HW  HW  EP  OW  HW  HW  EP  OW  HW  HW  EP  OW  HW  HW  
EP  OW  HW  HW  EP  OW  HW  HW  EP  OW  HW  HW  EP  OW  HW  HW  EP  OW  HW  HW  
EP  OW  HW  HW  EP  OW  HW  HW  EP  OW  HW  HW  EP  OW  HW  HW  EP  OW  HW  HW  
EP  OW  HW  HW  EP  OW  HW  HW  EP  OW  HW  HW  EP  OW  HW  HW  EP  OW  HW  HW  
EP  OW  HW  HW  EP  OW  HW  HW  EP  OW  HW  HW  EP  OW  HW  HW  EP  OW  HW  HW  
EP  OW  HW  HW  EP  OW  HW  HW  EP  OW  HW  HW  EP  OW  HW  HW  EP  OW  HW  HW  
EP  OW  HW  HW  EP  OW  HW  HW  EP  OW  HW  HW  EP  OW  HW  HW  EP  OW  HW  HW  
EP  OW  HW  HW  EP  OW  HW  HW  EP  OW  HW  HW  EP  OW  HW  HW  EP  OW  HW  HW  
EP  OW  HW  HW  EP  OW  HW  HW  EP  OW  HW  HW  EP  OW  HW  HW  EP  OW  HW  HW  
EP  OW  HW  HW  EP  OW  HW  HW  EP  OW  HW  HW  EP  OW  HW  HW  EP  OW  HW  HW  
EP  OW  HW  HW  EP  OW  HW  HW  EP  OW  HW  HW  EP  OW  HW  HW  EP  OW  HW  HW  
EP  OW  HW  HW  EP  OW  HW  HW  EP  OW  HW  HW  EP  OW  HW  HW  EP  OW  HW  HW  
EP  OW  HW  HW  EP  OW  HW  HW  EP  OW  HW  HW  EP  OW  HW  HW  EP  OW  HW  HW  
EP  OW  HW  HW  EP  OW  HW  HW  EP  OW  HW  HW  EP  OW  HW  HW  EP  OW  HW  HW  
EP  OW  HW  HW  EP  OW  HW  HW  EP  OW  HW  HW  EP  OW  HW  HW  EP  OW  HW  HW  
EP  OW  HW  HW  EP  OW  HW  HW  EP  OW  HW  HW  EP  OW  HW  HW  EP  OW  HW  HW  
EP  OW  HW  HW  EP  OW  HW  HW  EP  OW  HW  HW  EP  OW  HW  HW  EP  OW  HW  HW  
EP  OW  HW  HW  EP  OW  HW  HW  EP  OW  HW  HW  EP  OW  HW  HW  EP  OW  HW  HW  
EP  OW  HW  HW  EP  OW  HW  HW  EP  OW  HW  HW  EP  OW  HW  HW  EP  OW  HW  HW  
EP  OW  HW  HW  EP  OW  HW  HW  EP  OW  HW  HW  EP  OW  HW  HW  EP  OW  HW  HW  
EP  OW  HW  HW  EP  OW  HW  HW  EP  OW  HW  HW  EP  OW  HW  HW  EP  OW  HW  HW  
EP  OW  HW  HW  EP  OW  HW  HW  EP  OW  HW  HW  EP  OW  HW  HW  EP  OW  HW  HW  
EP  OW  HW  HW  EP  OW  HW  HW  EP  OW  HW  HW  EP  OW  HW  HW  EP  OW  HW  HW  
EP  OW  HW  HW  EP  OW  HW  HW  EP  OW  HW  HW  EP  OW  HW  HW  EP  OW  HW  HW  
EP  OW  HW  HW  EP  OW  HW  HW  EP  OW  HW  HW  EP  OW  HW  HW  EP  OW  HW  HW  
EP  OW  HW  HW  EP  OW  HW  HW  EP  OW  HW  HW  EP  OW  HW  HW  EP  OW  HW  HW  
EP  OW  HW  HW  EP  OW  HW  HW  EP  OW  HW  HW  EP  OW  HW  HW  EP  OW  HW  HW  
EP  OW  HW  HW  EP  OW  HW  HW  EP  OW  HW  HW  EP  OW  HW  HW  EP  OW  HW  HW  
EP  OW  HW  HW  EP  OW  HW  HW  EP  OW  HW  HW  EP  OW  HW  HW  EP  OW  HW  HW  
EP  OW  HW  HW  EP  OW  HW  HW  EP  OW  HW  HW  EP  OW  HW  HW  EP  OW  HW  HW  
EP  OW  HW  HW  EP  OW  HW  HW  EP  OW  HW  HW  EP  OW  HW  HW  EP  OW  HW  HW  
EP  OW  HW  HW  EP  OW  HW  HW  EP  OW  HW  HW  EP  OW  HW  HW  EP  OW  HW  HW  
EP  OW  HW  HW  EP  OW  HW  HW  EP  OW  HW  HW  EP  OW  HW  HW  EP  OW  HW  HW  
EP  OW  HW  HW  EP  OW  HW  HW  EP  OW  HW  HW  EP  OW  HW  HW  EP  OW  HW  HW  
EP  OW  HW  HW  EP  OW  HW  HW  EP  OW  HW  HW  EP  OW  HW  HW  EP  OW  HW  HW  
EP  OW  HW  HW  EP  OW  HW  HW  EP  OW  HW  HW  EP  OW  HW  HW  EP  OW  HW  HW  
EP  OW  HW  HW  EP  OW  HW  HW  EP  OW  HW  HW  EP  OW  HW  HW  EP  OW  HW  HW  
EP  OW  HW  HW  EP  OW  HW  HW  EP  OW  HW  HW  EP  OW  HW  HW  EP  OW  HW  HW  
EP  OW  HW  HW  EP  OW  HW  HW  EP  OW  HW  HW  EP  OW  HW  HW  EP  OW  HW  HW  
EP  OW  HW  HW  EP  OW  HW  HW  EP  OW  HW  HW  EP  OW  HW  HW  EP  OW  HW  HW  
EP  OW  HW  HW  EP  OW  HW  HW  EP  OW  HW  HW  EP  OW  HW  HW  EP  OW  HW  HW  
EP  OW  HW  HW  EP  OW  HW  HW  EP  OW  HW  HW  EP  OW  HW  HW  EP  OW  HW  HW  
EP  OW  HW  HW  EP  OW  HW  HW  EP  OW  HW  HW  EP  OW  HW  HW  EP  OW  HW  HW  
EP  OW  HW  HW  EP  OW  HW  HW  EP  OW  HW  HW  EP  OW  HW  HW  EP  OW  HW  HW  
EP  OW  HW  HW  EP  OW  HW  HW  EP  OW  HW  HW  EP  OW  HW  HW  EP  OW  HW  HW  
EP  OW  HW  HW  EP  OW  HW  HW  EP  OW  HW  HW  EP  OW  HW  HW  EP  OW  HW  HW  
EP  OW  HW  HW  EP  OW  HW  HW  EP  OW  HW  HW  EP  OW  HW  HW  EP  OW  HW  HW  
EP  OW  HW  HW  EP  OW  HW  HW  EP  OW  HW  HW  EP  OW  HW  HW  EP  OW  HW  HW  
EP  OW  HW  HW  EP  OW  HW  HW  EP  OW  HW  HW  EP  OW  HW  HW  EP  OW  HW  HW  
EP  OW  HW  HW  EP  OW  HW  HW  EP  OW  HW  HW  EP  OW  HW  HW  EP  OW  HW  HW  
EP  OW  HW  HW  EP  OW  HW  HW  EP  OW  HW  HW  EP  OW  HW  HW  EP  OW  HW  HW  
EP  OW  HW  HW  EP  OW  HW  HW  EP  OW  HW  HW  EP  OW  HW  HW  EP  OW  HW  HW  
EP  OW  HW  HW  EP  OW  HW  HW  EP  OW  HW  HW  EP  OW  HW  HW  EP  OW  HW  HW  
EP  OW  HW  HW  EP  OW  HW  HW  EP  OW  HW  HW  EP  OW  HW  HW  EP  OW  HW  HW  
EP  OW  HW  HW  EP  OW  HW  HW  EP  OW  HW  HW  EP  OW  HW  HW  EP  OW  HW  HW  
EP  OW  HW  HW  EP  OW  HW  HW  EP  OW  HW  HW  EP  OW  HW  HW  EP  OW  HW  HW  
EP  OW  HW  HW  EP  OW  HW  HW  EP  OW  HW  HW  EP  OW  HW  HW  EP  OW  HW  HW  
EP  OW  HW  HW  EP  OW  HW  HW  EP  OW  HW  HW  EP  OW  HW  HW  EP  OW  HW  HW  
EP  OW  HW  HW  EP  OW  HW  HW  EP  OW  HW  HW  EP  OW  HW  HW  EP  OW  HW  HW  
EP  OW  HW  HW  EP  OW  HW  HW  EP  OW  HW  HW  EP  OW  HW  HW  EP  OW  HW  HW  
EP  OW  HW  HW  EP  OW  HW  HW  EP  OW  HW  HW  EP  OW  HW  HW  EP  OW  HW  HW  
EP  OW  HW  HW  EP  OW  HW  HW  EP  OW  HW  HW  EP  OW  HW  HW  EP  OW  HW  HW  
EP  OW  HW  HW  EP  OW  HW  HW  EP  OW  HW  HW  EP  OW  HW  HW  EP  OW  HW  HW  
EP  OW  HW  HW  EP  OW  HW  HW  EP  OW  HW  HW  EP  OW  HW  HW  EP  OW  HW  HW  
EP  OW  HW  HW  EP  OW  HW  HW  EP  OW  HW  HW  EP  OW  HW  HW  EP  OW  HW  HW  
EP  OW  HW  HW  EP  OW  HW  HW  EP  OW  HW  HW  EP  OW  HW  HW  EP  OW  HW  HW  
EP  OW  HW  HW  EP  OW  HW  HW  EP  OW  HW  HW  EP  OW  HW  HW  EP  OW  HW  HW  
EP  OW  HW  HW  EP  OW  HW  HW  EP  OW  HW  HW  EP  OW  HW  HW  EP  OW  HW  HW  
EP  OW  HW  HW  EP  OW  HW  HW  EP  OW  HW  HW  EP  OW  HW  HW  EP  OW  HW  HW  
EP  OW  HW  HW  EP  OW  HW  HW  EP  OW  HW  HW  EP  OW  HW  HW  EP  OW  HW  HW  
EP  OW  HW  HW  EP  OW  HW  HW  EP  OW  HW  HW  EP  OW  HW  HW  EP  OW  HW  HW  
EP  OW  HW  HW  EP  OW  HW  HW  EP  OW  HW  HW  EP  OW  HW  HW  EP  OW  HW  HW  
EP  OW  HW  HW  EP  OW  HW  HW  EP  OW  HW  HW  EP  OW  HW  HW  EP  OW  HW  HW  
EP  OW  HW  HW  EP  OW  HW  HW  EP  OW  HW  HW  EP  OW  HW  HW  EP  OW  HW  HW  
EP  OW  HW  HW  EP  OW  HW  HW  EP  OW  HW  HW  EP  OW  HW  HW  EP  OW  HW  HW  
EP  OW  HW  HW  EP  OW  HW  HW  EP  OW  HW  HW  EP  OW  HW  HW  EP  OW  HW  HW  
EP  OW  HW  HW  EP  OW  HW  HW  EP  OW  HW  HW  EP  OW  HW  HW  EP  OW  HW  HW  
EP  OW  HW  HW  EP  OW  HW  HW  EP  OW  HW  HW  EP  OW  HW  HW  EP  OW  HW  HW  
EP  OW  HW  HW  EP  OW  HW  HW  EP  OW  HW  HW  EP  OW  HW  HW  EP  OW  HW  HW  
EP  OW  HW  HW  EP  OW  HW  HW  EP  OW  HW  HW  EP  OW  HW  HW  EP  OW  HW  HW  
EP  OW  HW  HW  EP  OW  HW  HW  EP  OW  HW  HW  EP  OW  HW  HW  EP  OW  HW  HW  
EP  OW  HW  HW  EP  OW  HW  HW  EP  OW  HW  HW  EP  OW  HW  HW  EP  OW  HW  HW  
EP  OW  HW  HW  EP  OW  HW  HW  EP  OW  HW  HW  EP  OW  HW  HW  EP  OW  HW  HW  
EP  OW  HW  HW  EP  OW  HW  HW  EP  OW  HW  HW  EP  OW  HW  HW  EP  OW  HW  HW  
EP  OW  HW  HW  EP  OW  HW  HW  EP  OW  HW  HW  EP  OW  HW  HW  EP  OW  HW  HW  
EP  OW  HW  HW  EP  OW  HW  HW  EP  OW  HW  HW  EP  OW  HW  HW  EP  OW  HW  HW  
EP  OW  HW  HW  EP  OW  HW  HW  EP  OW  HW  HW  EP  OW  HW  HW  EP  OW  HW  HW  
EP  OW  HW  HW  EP  OW  HW  HW  EP  OW  HW  HW  EP  OW  HW  HW  EP  OW  HW  HW  
EP  OW  HW  HW  EP  OW  HW  HW  EP  OW  HW  HW  EP  OW  HW  HW  EP  OW  HW  HW  
EP  OW  HW  HW  EP  OW  HW  HW  EP  OW  HW  HW  EP  OW  HW  HW  EP  OW  HW  HW  
EP  OW  HW  HW  EP  OW  HW  HW  EP  OW  HW  HW  EP  OW  HW  HW  EP  OW  HW  HW  
EP  OW  HW  HW  EP  OW  HW  HW  EP  OW  HW  HW  EP  OW  HW  HW  EP  OW  HW  HW  
EP  OW  HW  HW  EP  OW  HW  HW  EP  OW  HW  HW  EP  OW  HW  HW  EP  OW  HW  HW  
EP  OW  HW  HW  EP  OW  HW  HW  EP  OW  HW  HW  EP  OW  HW  HW  EP  OW  HW  HW  
EP  OW  HW  HW  EP  OW  HW  HW  EP  OW  HW  HW  EP  OW  HW  HW  EP  OW  HW  HW  
EP  OW  HW  HW  EP  OW  HW  HW  EP  OW  HW  HW  EP  OW  HW  HW  EP  OW  HW  HW  
EP  OW  HW  HW  EP  OW  HW  HW  EP  OW  HW  HW  EP  OW  HW  HW  EP  OW  HW  HW  
EP  OW  HW  HW  EP  OW  HW  HW  EP  OW  HW  HW  EP  OW  HW  HW  EP  OW  HW  HW  
EP  OW  HW  HW  EP  OW  HW  HW  EP  OW  HW  HW  EP  OW  HW  HW  EP  OW  HW  HW  
EP  OW  HW  HW  EP  OW  HW  HW  EP  OW  HW  HW  EP  OW  HW  HW  EP  OW  HW  HW  
EP  OW  HW  HW  EP  OW  HW  HW  EP  OW  HW  HW  EP  OW  HW  HW  EP  OW  HW  HW  
EP  OW  HW  HW  EP  OW  HW  HW  EP  OW  HW  HW  EP  OW  HW  HW  EP  OW  HW  HW  
EP  OW  HW  HW  EP  OW  HW  HW  EP  OW  HW  HW  EP  OW  HW  HW  EP  OW  HW  HW  
EP  OW  HW  HW  EP  OW  HW  HW  EP  OW  HW  HW  EP  OW  HW  HW  EP  OW  HW  HW  
EP  OW  HW  HW  EP  OW  HW  HW  EP  OW  HW  HW  EP  OW  HW  HW  EP  OW  HW  HW  
EP  OW  HW  HW  EP  OW  HW  HW  EP  OW  HW  HW  EP  OW  HW  HW  EP  OW  HW  HW  
EP  OW  HW  HW  EP  OW  HW  HW  EP  OW  HW  HW  EP  OW  HW  HW  EP  OW  HW  HW  
EP  OW  HW  HW  EP  OW  HW  HW  EP  OW  HW  HW  EP  OW  HW  HW  EP  OW  HW  HW  
EP  OW  HW  HW  EP  OW  HW  HW  EP  OW  HW  HW  EP  OW  HW  HW  EP  OW  HW  HW  
EP  OW  HW  HW  EP  OW  HW  HW  EP  OW  HW  HW  EP  OW  HW  HW  EP  OW  HW  HW  
EP  OW  HW  HW  EP  OW  HW  HW  EP  OW  HW  HW  EP  OW  HW  HW  EP  OW  HW  HW  
EP  OW  HW  HW  EP  OW  HW  HW  EP  OW  HW  HW  EP  OW  HW  HW  EP  OW  HW  HW  
EP  OW  HW  HW  EP  OW  HW  HW  EP  OW  HW  HW  EP  OW  HW  HW  EP  OW  HW  HW  
EP  OW  HW  HW  EP  OW  HW  HW  EP  OW  HW  HW  EP  OW  HW  HW  EP  OW  HW  HW  
EP  OW  HW  HW  EP  OW  HW  HW  EP  OW  HW  HW  EP  OW  HW  HW  EP  OW  HW  HW  
EP  OW  HW  HW  EP  OW  HW  HW  EP  OW  HW  HW  EP  OW  HW  HW  EP  OW  HW  HW  
EP  OW  HW  HW  EP  OW  HW  HW  EP  OW  HW  HW  EP  OW  HW  HW  EP  OW  HW  HW  
EP  OW  HW  HW  EP  OW  HW  HW  EP  OW  HW  HW  EP  OW  HW  HW  EP  OW  HW  HW  
EP  OW  HW  HW  EP  OW  HW  HW  EP  OW  HW  HW  EP  OW  HW  HW  EP  OW  HW  HW  
EP  OW  HW  HW  EP  OW  HW  HW  EP  OW  HW  HW  EP  OW  HW  HW  EP  OW  HW  HW  
EP  OW  HW  HW  EP  OW  HW  HW  EP  OW  HW  HW  EP  OW  HW  HW  EP  OW  HW  HW  
EP  OW  HW  HW  EP  OW  HW  HW  EP  OW  HW  HW  EP  OW  HW  HW  EP  OW  HW  HW  
EP  OW  HW  HW  EP  OW  HW  HW  EP  OW  HW  HW  EP  OW  HW  HW  EP  OW  HW  HW  
EP  OW  HW  HW  EP  OW  HW  HW  EP  OW  HW  HW  EP  OW  HW  HW  EP  OW  HW  HW  
EP  OW  HW  HW  EP  OW  HW  HW  EP  OW  HW  HW  EP  OW  HW  HW  EP  OW  HW  HW  
EP  OW  HW  HW  EP  OW  HW  HW  EP  OW  HW  HW  EP  OW  HW  HW  EP  OW  HW  HW  
EP  OW  HW  HW  EP  OW  HW  HW  EP  OW  HW  HW  EP  OW  HW  HW  EP  OW  HW  HW  
EP  OW  HW  HW  EP  OW  HW  HW  EP  OW  HW  HW  EP  OW  HW  HW  EP  OW  HW  HW  
EP  OW  HW  HW  EP  OW  HW  HW  EP  OW  HW  HW  EP  OW  HW  HW  EP  OW  HW  HW  
EP  OW  HW  HW  EP  OW  HW  HW  EP  OW  HW  HW  EP  OW  HW  HW  EP  OW  HW  HW  
EP  OW  HW  HW  EP  OW  HW  HW  EP  OW  HW  HW  EP  OW  HW  HW  EP  OW  HW  HW  
EP  OW  HW  HW  EP  OW  HW  HW  EP  OW  HW  HW  EP  OW  HW  HW  EP  OW  HW  HW  
EP  OW  HW  HW  EP  OW  HW  HW  EP  OW  HW  HW  EP  OW  HW  HW  EP  OW  HW  HW  
EP  OW  HW  HW  EP  OW  HW  HW  EP  OW  HW  HW  EP  OW  HW  HW  EP  OW  HW  HW  
EP  OW  HW  HW  EP  OW  HW  HW  EP  OW  HW  HW  EP  OW  HW  HW  EP  OW  HW  HW  
EP  OW  HW  HW  EP  OW  HW  HW  EP  OW  HW  HW  EP  OW  HW  HW  EP  OW  HW  HW  
EP  OW  HW  HW  EP  OW  HW  HW  EP  OW  HW  HW  EP  OW  HW  HW  EP  OW  HW  HW  
EP  OW  HW  HW  EP  OW  HW  HW  EP  OW  HW  HW  EP  OW  HW  HW  EP  OW  HW  HW  
EP  OW  HW  HW  EP  OW  HW  HW  EP  OW  HW  HW  EP  OW  HW  HW  EP  OW  HW  HW  
EP  OW  HW  HW  EP  OW  HW  HW  EP  OW  HW  HW  EP  OW  HW  HW  EP  OW  HW  HW  
EP  OW  HW  HW  EP  OW  HW  HW  EP  OW  HW  HW  EP  OW  HW  HW  EP  OW  HW  HW  
EP  OW  HW  HW  EP  OW  HW  HW  EP  OW  HW  HW  EP  OW  HW  HW  EP  OW  HW  HW  
EP  OW  HW  HW  EP  OW  HW  HW  EP  OW  HW  HW  EP  OW  HW  HW  EP  OW  HW  HW  
EP  OW  HW  HW  EP  OW  HW  HW  EP  OW  HW  HW  EP  OW  HW  HW  EP  OW  HW  HW  
EP  OW  HW  HW  EP  OW  HW  HW  EP  OW  HW  HW  EP  OW  HW  HW  EP  OW  HW  HW  
EP  OW  HW  HW  EP  OW  HW  HW  EP  OW  HW  HW  EP  OW  HW  HW  EP  OW  HW  HW  
EP  OW  HW  HW  EP  OW  HW  HW  EP  OW  HW  HW  EP  OW  HW  HW  EP  OW  HW  HW  
EP  OW  HW  HW  EP  OW  HW  HW  EP  OW  HW  HW  EP  OW  HW  HW  EP  OW  HW  HW  
EP  OW  HW  HW  EP  OW  HW  HW  EP  OW  HW  HW  EP  OW  HW  HW  EP  OW  HW  HW  
EP  OW  HW  HW  EP  OW  HW  HW  EP  OW  HW  HW  EP  OW  HW  HW  EP  OW  HW  HW  
EP  OW  HW  HW  EP  OW  HW  HW  EP  OW  HW  HW  EP  OW  HW  HW  EP  OW  HW  HW  
EP  OW  HW  HW  EP  OW  HW  HW  EP  OW  HW  HW  EP  OW  HW  HW  EP  OW  HW  HW  
EP  OW  HW  HW  EP  OW  HW  HW  EP  OW  HW  HW  EP  OW  HW  HW  EP  OW  HW  HW  
EP  OW  HW  HW  EP  OW  HW  HW  EP  OW  HW  HW  EP  OW  HW  HW  EP  OW  HW  HW  
EP  OW  HW  HW  EP  OW  HW  HW  EP  OW  HW  HW  EP  OW  HW  HW  EP  OW  HW  HW  
EP  OW  HW  HW  EP  OW  HW  HW  EP  OW  HW  HW  EP  OW  HW  HW  EP  OW  HW  HW  
EP  OW  HW  HW  EP  OW  HW  HW  EP  OW  HW  HW  EP  OW  HW  HW  EP  OW  HW  HW  
EP  OW  HW  HW  EP  OW  HW  HW  EP  OW  HW  HW  EP  OW  HW  HW  EP  OW  HW  HW  
EP  OW  HW  HW  EP  OW  HW  HW  EP  OW  HW  HW  EP  OW  HW  HW  EP  OW  HW  HW  
EP  OW  HW  HW  EP  OW  HW  HW  EP  OW  HW  HW  EP  OW  HW  HW  EP  OW  HW  HW  
EP  OW  HW  HW  EP  OW  HW  HW  EP  OW  HW  HW  EP  OW  HW  HW  EP  OW  HW  HW  
EP  OW  HW  HW  EP  OW  HW  HW  EP  OW  HW  HW  EP  OW  HW  HW  EP  OW  HW  HW  
EP  OW  HW  HW  EP  OW  HW  HW  EP  OW  HW  HW  EP  OW  HW  HW  EP  OW  HW  HW  
EP  OW  HW  HW  EP  OW  HW  HW  EP  OW  HW  HW  EP  OW  HW  HW  EP  OW  HW  HW  
EP  OW  HW  HW  EP  OW  HW  HW  EP  OW  HW  HW  EP  OW  HW  HW  EP  OW  HW  HW  
EP  OW  HW  HW  EP  OW  HW  HW  EP  OW  HW  HW  EP  OW  HW  HW  EP  OW  HW  HW  
EP  OW  HW  HW  EP  OW  HW  HW  EP  OW  HW  HW  EP  OW  HW  HW  EP  OW  HW  HW  
EP  OW  HW  HW  EP  OW  HW  HW  EP  OW  HW  HW  EP  OW  HW  HW  EP  OW  HW  HW  
EP  OW  HW  HW  EP  OW  HW  HW  EP  OW  HW  HW  EP  OW  HW  HW  EP  OW  HW  HW  
EP  OW  HW  HW  EP  OW  HW  HW  EP  OW  HW  HW  EP  OW  HW  HW  EP  OW  HW  HW  
EP  OW  HW  HW  EP  OW  HW  HW  EP  OW  HW  HW  EP  OW  HW  HW  EP  OW  HW  HW  
EP  OW  HW  HW  EP  OW  HW  HW  EP  OW  HW  HW  EP  OW  HW  HW  EP  OW  HW  HW  
EP  OW  HW  HW  EP  OW  HW  HW  EP  OW  HW  HW  EP  OW  HW  HW  EP  OW  HW  HW  
EP  OW  HW  HW  EP  OW  HW  HW  EP  OW  HW  HW  EP  OW  HW  HW  EP  OW  HW  HW  
EP  OW  HW  HW  EP  OW  HW  HW  EP  OW  HW  HW  EP  OW  HW  HW  EP  OW  HW  HW  
EP  OW  HW  HW  EP  OW  HW  HW  EP  OW  HW  HW  EP  OW  HW  HW  EP  OW  HW  HW  
EP  OW  HW  HW  EP  OW  HW  HW  EP  OW  HW  HW  EP  OW  HW  HW  EP  OW  HW  HW  
EP  OW  HW  HW  EP  OW  HW  HW  EP  OW  HW  HW  EP  OW  HW  HW  EP  OW  HW  HW  
EP  OW  HW  HW  EP  OW  HW  HW  EP  OW  HW  HW  EP  OW  HW  HW  EP  OW  HW  HW  
EP  OW  HW  HW  EP  OW  HW  HW  EP  OW  HW  HW  EP  OW  HW  HW  EP  OW  HW  HW  
EP  OW  HW  HW  EP  OW  HW  HW  EP  OW  HW  HW  EP  OW  HW  HW  EP  OW  HW  HW  
EP  OW  HW  HW  EP  OW  HW  HW  EP  OW  HW  HW  EP  OW  HW  HW  EP  OW  HW  HW  
EP  OW  HW  HW  EP  OW  HW  HW  EP  OW  HW  HW  EP  OW  HW  HW  EP  OW  HW  HW  
EP  OW  HW  HW  EP  OW  HW  HW  EP  OW  HW  HW  EP  OW  HW  HW  EP  OW  HW  HW  
EP  OW  HW  HW  EP  OW  HW  HW  EP  OW  HW  HW  EP  OW  HW  HW  EP  OW  HW  HW  
EP  OW  HW  HW  EP  OW  HW  HW  EP  OW  HW  HW  EP  OW  HW  HW  EP  OW  HW  HW  
EP  OW  HW  HW  EP  OW  HW  HW  EP  OW  HW  HW  EP  OW  HW  HW  EP  OW  HW  HW  
EP  OW  HW  HW  EP  OW  HW  HW  EP  OW  HW  HW  EP  OW  HW  HW  EP  OW  HW  HW  
EP  OW  HW  HW  EP  OW  HW  HW  EP  OW  HW  HW  EP  OW  HW  HW  EP  OW  HW  HW  
EP  OW  HW  HW  EP  OW  HW  HW  EP  OW  HW  HW  EP  OW  HW  HW  EP  OW  HW  HW  
EP  OW  HW  HW  EP  OW  HW  HW  EP  OW  HW  HW  EP  OW  HW  HW  EP  OW  HW  HW  
EP  OW  HW  HW  EP  OW  HW  HW  EP  OW  HW  HW  EP  OW  HW  HW  EP  OW  HW  HW  
EP  OW  HW  HW  EP  OW  HW  HW  EP  OW  HW  HW  EP  OW  HW  HW  EP  OW  HW  HW  
EP  OW  HW  HW  EP  OW  HW  HW  EP  OW  HW  HW  EP  OW  HW  HW  EP  OW  HW  HW  
EP  OW  HW  HW  EP  OW  HW  HW  EP  OW  HW  HW  EP  OW  HW  HW  EP  OW  HW  HW  
EP  OW  HW  HW  EP  OW  HW  HW  EP  OW  HW  HW  EP  OW  HW  HW  EP  OW  HW  HW  
EP  OW  HW  HW  EP  OW  HW  HW  EP  OW  HW  HW  EP  OW  HW  HW  EP  OW  HW  HW  
EP  OW  HW  HW  EP  OW  HW  HW  EP  OW  HW  HW  EP  OW  HW  HW  EP  OW  HW  HW  
EP  OW  HW  HW  EP  OW  HW  HW  EP  OW  HW  HW  EP  OW  HW  HW  EP  OW  HW  HW  
EP  OW  HW  HW  EP  OW  HW  HW  EP  OW  HW  HW  EP  OW  HW  HW  EP  OW  HW  HW  
EP  OW  HW  HW  EP  OW  HW  HW  EP  OW  HW  HW  EP  OW  HW  HW  EP  OW  HW  HW  
EP  OW  HW  HW  EP  OW  HW  HW  EP  OW  HW  HW  EP  OW  HW  HW  EP  OW  HW  HW  
EP  OW  HW  HW  EP  OW  HW  HW  EP  OW  HW  HW  EP  OW  HW  HW  EP  OW  HW  HW  
EP  OW  HW  HW  EP  OW  HW  HW  EP  OW  HW  HW  EP  OW  HW  HW  EP  OW  HW  HW  
EP  OW  HW  HW  EP  OW  HW  HW  EP  OW  HW  HW  EP  OW  HW  HW  EP  OW  HW  HW  
EP  OW  HW  HW  EP  OW  HW  HW  EP  OW  HW  HW  EP  OW  HW  HW  EP  OW  HW  HW  
EP  OW  HW  HW  EP  OW  HW  HW  EP  OW  HW  HW  EP  OW  HW  HW  EP  OW  HW  HW  
EP  OW  HW  HW  EP  OW  HW  HW  EP  OW  HW  HW  EP  OW  HW  HW  EP  OW  HW  HW  
EP  OW  HW  HW  EP  OW  HW  HW  EP  OW  HW  HW  EP  OW  HW  HW  EP  OW  HW  HW  
EP  OW  HW  HW  EP  OW  HW  HW  EP  OW  HW  HW  EP  OW  HW  HW  EP  OW  HW  HW  
EP  OW  HW  HW  EP  OW  HW  HW  EP  OW  HW  HW  EP  OW  HW  HW  EP  OW  HW  HW  
EP  OW  HW  HW  EP  OW  HW  HW  EP  OW  HW  HW  EP  OW  HW  HW  EP  OW  HW  HW  
EP  OW  HW  HW  EP  OW  HW  HW  EP  OW  HW  HW  EP  OW  HW  HW  EP  OW  HW  HW  
EP  OW  HW  HW  EP  OW  HW  HW  EP  OW  HW  HW  EP  OW  HW  HW  EP  OW  HW  HW  
EP  OW  HW  HW  EP  OW  HW  HW  EP  OW  HW  HW  EP  OW  HW  HW  EP  OW  HW  HW  
EP  OW  HW  HW  EP  OW  HW  HW  EP  OW  HW  HW  EP  OW  HW  HW  EP  OW  HW  HW  
EP  OW  HW  HW  EP  OW  HW  HW  EP  OW  HW  HW  EP  OW  HW  HW  EP  OW  HW  HW  
EP  OW  HW  HW  EP  OW  HW  HW  EP  OW  HW  HW  EP  OW  HW  HW  EP  OW  HW  HW  
EP  OW  HW  HW  EP  OW  HW  HW  EP  OW  HW  HW  EP  OW  HW  HW  EP  OW  HW  HW  
EP  OW  HW  HW  EP  OW  HW  HW  EP  OW  HW  HW  EP  OW  HW  HW  EP  OW  HW  HW  
EP  OW  HW  HW  EP  OW  HW  HW  EP  OW  HW  HW  EP  OW  HW  HW  EP  OW  HW  HW  
EP  OW  HW  HW  EP  OW  HW  HW  EP  OW  HW  HW  EP  OW  HW  HW  EP  OW  HW  HW  
EP  OW  HW  HW  EP  OW  HW  HW  EP  OW  HW  HW  EP  OW  HW  HW  EP  OW  HW  HW  
EP  OW  HW  HW  EP  OW  HW  HW  EP  OW  HW  HW  EP  OW  HW  HW  EP  OW  HW  HW  
EP  OW  HW  HW  EP  OW  HW  HW  EP  OW  HW  HW  EP  OW  HW  HW  EP  OW  HW  HW  
EP  OW  HW  HW  EP  OW  HW  HW  EP  OW  HW  HW  EP  OW  HW  HW  EP  OW  HW  HW  
EP  OW  HW  HW  EP  OW  HW  HW  EP  OW  HW  HW  EP  OW  HW  HW  EP  OW  HW  HW  
EP  OW  HW  HW  EP  OW  HW  HW  EP  OW  HW  HW  EP  OW  HW  HW  EP  OW  HW  HW  
EP  OW  HW  HW  EP  OW  HW  HW  EP  OW  HW  HW  EP  OW  HW  HW  EP  OW  HW  HW  
EP  OW  HW  HW  EP  OW  HW  HW  EP  OW  HW  HW  EP  OW  HW  HW  EP  OW  HW  HW  
EP  OW  HW  HW  EP  OW  HW  HW  EP  OW  HW  HW  EP  OW  HW  HW  EP  OW  HW  HW  
EP  OW  HW  HW  EP  OW  HW  HW  EP  OW  HW  HW  EP  OW  HW  HW  EP  OW  HW  HW  
EP  OW  HW  HW  EP  OW  HW  HW  EP  OW  HW  HW  EP  OW  HW  HW  EP  OW  HW  HW  
EP  OW  HW  HW  EP  OW  HW  HW  EP  OW  HW  HW  EP  OW  HW  HW  EP  OW  HW  HW  
EP  OW  HW  HW  EP  OW  HW  HW  EP  OW  HW  HW  EP  OW  HW  HW  EP  OW  HW  HW  
EP  OW  HW  HW  EP  OW  HW  HW  EP  OW  HW  HW  EP  OW  HW  HW  EP  OW  HW  HW  
EP  OW  HW  HW  EP  OW  HW  HW  EP  OW  HW  HW  EP  OW  HW  HW  EP  OW  HW  HW  
EP  OW  HW  HW  EP  OW  HW  HW  EP  OW  HW  HW  EP  OW  HW  HW  EP  OW  HW  HW  
EP  OW  HW  HW  EP  OW  HW  HW  EP  OW  HW  HW  EP  OW  HW  HW  EP  OW  HW  HW  
EP  OW  HW  HW  EP  OW  HW  HW  EP  OW  HW  HW  EP  OW  HW  HW  EP  OW  HW  HW  
EP  OW  HW  HW  EP  OW  HW  HW  EP  OW  HW  HW  EP  OW  HW  HW  EP  OW  HW  HW  
EP  OW  HW  HW  EP  OW  HW  HW  EP  OW  HW  HW  EP  OW  HW  HW  EP  OW  HW  HW  
EP  OW  HW  HW  EP  OW  HW  HW  EP  OW  HW  HW  EP  OW  HW  HW  EP  OW  HW  HW  
EP  OW  HW  HW  EP  OW  HW  HW  EP  OW  HW  HW  EP  OW  HW  HW  EP  OW  HW  HW  
EP  OW  HW  HW  EP  OW  HW  HW  EP  OW  HW  HW  EP  OW  HW  HW  EP  OW  HW  HW  
EP  OW  HW  HW  EP  OW  HW  HW  EP  OW  HW  HW  EP  OW  HW  HW  EP  OW  HW  HW  
EP  OW  HW  HW  EP  OW  HW  HW  EP  OW  HW  HW  EP  OW  HW  HW  EP  OW  HW  HW  
EP  OW  HW  HW  EP  OW  HW  HW  EP  OW  HW  HW  EP  OW  HW  HW  EP  OW  HW  HW  
EP  OW  HW  HW  EP  OW  HW  HW  EP  OW  HW  HW  EP  OW  HW  HW  EP  OW  HW  HW  
EP  OW  HW  HW  EP  OW  HW  HW  EP  OW  HW  HW  EP  OW  HW  HW  EP  OW  HW  HW  
EP  OW  HW  HW  EP  OW  HW  HW  EP  OW  HW  HW  EP  OW  HW  HW  EP  OW  HW  HW  
EP  OW  HW  HW  EP  OW  HW  HW  EP  OW  HW  HW  EP  OW  HW  HW  EP  OW  HW  HW  
EP  OW  HW  HW  EP  OW  HW  HW  EP  OW  HW  HW  EP  OW  HW  HW  EP  OW  HW  HW  
EP  OW  HW  HW  EP  OW  HW  HW  EP  OW  HW  HW  EP  OW  HW  HW  EP  OW  HW  HW  
EP  OW  HW  HW  EP  OW  HW  HW  EP  OW  HW  HW  EP  OW  HW  HW  EP  OW  HW  HW  
EP  OW  HW  HW  EP  OW  HW  HW  EP  OW  HW  HW  EP  OW  HW  HW  EP  OW  HW  HW  
EP  OW  HW  HW  EP  OW  HW  HW  EP  OW  HW  HW  EP  OW  HW  HW  EP  OW  HW  HW  
EP  OW  HW  HW  EP  OW  HW  HW  EP  OW  HW  HW  EP  OW  HW  HW  EP  OW  HW  HW  
EP  OW  HW  HW  EP  OW  HW  HW  EP  OW  HW  HW  EP  OW  HW  HW  EP  OW  HW  HW  
EP  OW  HW  HW  EP  OW  HW  HW  EP  OW  HW  HW  EP  OW  HW  HW  EP  OW  HW  HW  
EP  OW  HW  HW  EP  OW  HW  HW  EP  OW  HW  HW  EP  OW  HW  HW  EP  OW  HW  HW  
EP  OW  HW  HW  EP  OW  HW  HW  EP  OW  HW  HW  EP  OW  HW  HW  EP  OW  HW  HW  
EP  OW  HW  HW  EP  OW  HW  HW  EP  OW  HW  HW  EP  OW  HW  HW  EP  OW  HW  HW  
EP  OW  HW  HW  EP  OW  HW  HW  EP  OW  HW  HW  EP  OW  HW  HW  EP  OW  HW  HW  
EP  OW  HW  HW  EP  OW  HW  HW  EP  OW  HW  HW  EP  OW  HW  HW  EP  OW  HW  HW  
EP  OW  HW  HW  EP  OW  HW  HW  EP  OW  HW  HW  EP  OW  HW  HW  EP  OW  HW  HW  
EP  OW  HW  HW  EP  OW  HW  HW  EP  OW  HW  HW  EP  OW  HW  HW  EP  OW  HW  HW  
EP  OW  HW  HW  EP  OW  HW  HW  EP  OW  HW  HW  EP  OW  HW  HW  EP  OW  HW  HW  
EP  OW  HW  HW  EP  OW  HW  HW  EP  OW  HW  HW  EP  OW  HW  HW  EP  OW  HW  HW  
EP  OW  HW  HW  EP  OW  HW  HW  EP  OW  HW  HW  EP  OW  HW  HW  EP  OW  HW  HW  
EP  OW  HW  HW  EP  OW  HW  HW  EP  OW  HW  HW  EP  OW  HW  HW  EP  OW  HW  HW  
EP  OW  HW  HW  EP  OW  HW  HW  EP  OW  HW  HW  EP  OW  HW  HW  EP  OW  HW  HW  
EP  OW  HW  HW  EP  OW  HW  HW  EP  OW  HW  HW  EP  OW  HW  HW  EP  OW  HW  HW  
EP  OW  HW  HW  EP  OW  HW  HW  EP  OW  HW  HW  EP  OW  HW  HW  EP  OW  HW  HW  
EP  OW  HW  HW  EP  OW  HW  HW  EP  OW  HW  HW  EP  OW  HW  HW  EP  OW  HW  HW  
EP  OW  HW  HW  EP  OW  HW  HW  EP  OW  HW  HW  EP  OW  HW  HW  EP  OW  HW  HW  
EP  OW  HW  HW  EP  OW  HW  HW  EP  OW  HW  HW  EP  OW  HW  HW  EP  OW  HW  HW  
EP  OW  HW  HW  EP  OW  HW  HW  EP  OW  HW  HW  EP  OW  HW  HW  EP  OW  HW  HW  
EP  OW  HW  HW  EP  OW  HW  HW  EP  OW  HW  HW  EP  OW  HW  HW  EP  OW  HW  HW  
EP  OW  HW  HW  EP  OW  HW  HW  EP  OW  HW  HW  EP  OW  HW  HW  EP  OW  HW  HW  
EP  OW  HW  HW  EP  OW  HW  HW  EP  OW  HW  HW  EP  OW  HW  HW  EP  OW  HW  HW  
EP  OW  HW  HW  EP  OW  HW  HW  EP  OW  HW  HW  EP  OW  HW  HW  EP  OW  HW  HW  
EP  OW  HW  HW  EP  OW  HW  HW  EP  OW  HW  HW  EP  OW  HW  HW  EP  OW  HW  HW  
EP  OW  HW  HW  EP  OW  HW  HW  EP  OW  HW  HW  EP  OW  HW  HW  EP  OW  HW  HW  
EP  OW  HW  HW  EP  OW  HW  HW  EP  OW  HW  HW  EP  OW  HW  HW  EP  OW  HW  HW  
EP  OW  HW  HW  EP  OW  HW  HW  EP  OW  HW  HW  EP  OW  HW  HW  EP  OW  HW  HW  
EP  OW  HW  HW  EP  OW  HW  HW  EP  OW  HW  HW  EP  OW  HW  HW  EP  OW  HW  HW  
EP  OW  HW  HW  EP  OW  HW  HW  EP  OW  HW  HW  EP  OW  HW  HW  EP  OW  HW  HW  
EP  OW  HW  HW  EP  OW  HW  HW  EP  OW  HW  HW  EP  OW  HW  HW  EP  OW  HW  HW  
EP  OW  HW  HW  EP  OW  HW  HW  EP  OW  HW  HW  EP  OW  HW  HW  EP  OW  HW  HW  
EP  OW  HW  HW  EP  OW  HW  HW  EP  OW  HW  HW  EP  OW  HW  HW  EP  OW  HW  HW  
EP  OW  HW  HW  EP  OW  HW  HW  EP  OW  HW  HW  EP  OW  HW  HW  EP  OW  HW  HW  
EP  OW  HW  HW  EP  OW  HW  HW  EP  OW  HW  HW  EP  OW  HW  HW  EP  OW  HW  HW  
EP  OW  HW  HW  EP  OW  HW  HW  EP  OW  HW  HW  EP  OW  HW  HW  EP  OW  HW  HW  
EP  OW  HW  HW  EP  OW  HW  HW  EP  OW  HW  HW  EP  OW  HW  HW  EP  OW  HW  HW  
EP  OW  HW  HW  EP  OW  HW  HW  EP  OW  HW  HW  EP  OW  HW  HW  EP  OW  HW  HW  
EP  OW  HW  HW  EP  OW  HW  HW  EP  OW  HW  HW  EP  OW  HW  HW  EP  OW  HW  HW  
EP  OW  HW  HW  EP  OW  HW  HW  EP  OW  HW  HW  EP  OW  HW  HW  EP  OW  HW  HW  
EP  OW  HW  HW  EP  OW  HW  HW  EP  OW  HW  HW  EP  OW  HW  HW  EP  OW  HW  HW  
EP  OW  HW  HW  EP  OW  HW  HW  EP  OW  HW  HW  EP  OW  HW  HW  EP  OW  HW  HW  
EP  OW  HW  HW  EP  OW  HW  HW  EP  OW  HW  HW  EP  OW  HW  HW  EP  OW  HW  HW  
EP  OW  HW  HW  EP  OW  HW  HW  EP  OW  HW  HW  EP  OW  HW  HW  EP  OW  HW  HW  
EP  OW  HW  HW  EP  OW  HW  HW  EP  OW  HW  HW  EP  OW  HW  HW  EP  OW  HW  HW  
EP  OW  HW  HW  EP  OW  HW  HW  EP  OW  HW  HW  EP  OW  HW  HW  EP  OW  HW  HW  
EP  OW  HW  HW  EP  OW  HW  HW  EP  OW  HW  HW  EP  OW  HW  HW  EP  OW  HW  HW  
EP  OW  HW  HW  EP  OW  HW  HW  EP  OW  HW  HW  EP  OW  HW  HW  EP  OW  HW  HW  
EP  OW  HW  HW  EP  OW  HW  HW  EP  OW  HW  HW  EP  OW  HW  HW  EP  OW  HW  HW  
EP  OW  HW  HW  EP  OW  HW  HW  EP  OW  HW  HW  EP  OW  HW  HW  EP  OW  HW  HW  
EP  OW  HW  HW  EP  OW  HW  HW  EP  OW  HW  HW  EP  OW  HW  HW  EP  OW  HW  HW  
EP  OW  HW  HW  EP  OW  HW  HW  EP  OW  HW  HW  EP  OW  HW  HW  EP  OW  HW  HW  
EP  OW  HW  HW  EP  OW  HW  HW  EP  OW  HW  HW  EP  OW  HW  HW  EP  OW  HW  HW  
EP  OW  HW  HW  EP  OW  HW  HW  EP  OW  HW  HW  EP  OW  HW  HW  EP  OW  HW  HW  
EP  OW  HW  HW  EP  OW  HW  HW  EP  OW  HW  HW  EP  OW  HW  HW  EP  OW  HW  HW  
EP  OW  HW  HW  EP  OW  HW  HW  EP  OW  HW  HW  EP  OW  HW  HW  EP  OW  HW  HW  
EP  OW  HW  HW  EP  OW  HW  HW  EP  OW  HW  HW  EP  OW  HW  HW  EP  OW  HW  HW  
EP  OW  HW  HW  EP  OW  HW  HW  EP  OW  HW  HW  EP  OW  HW  HW  EP  OW  HW  HW  
EP  OW  HW  HW  EP  OW  HW  HW  EP  OW  HW  HW  EP  OW  HW  HW  EP  OW  HW  HW  
EP  OW  HW  HW  EP  OW  HW  HW  EP  OW  HW  HW  EP  OW  HW  HW  EP  OW  HW  HW  
EP  OW  HW  HW  EP  OW  HW  HW  EP  OW  HW  HW  EP  OW  HW  HW  EP  OW  HW  HW  
EP  OW  HW  HW  EP  OW  HW  HW  EP  OW  HW  HW  EP  OW  HW  HW  EP  OW  HW  HW  
EP  OW  HW  HW  EP  OW  HW  HW  EP  OW  HW  HW  EP  OW  HW  HW  EP  OW  HW  HW  
EP  OW  HW  HW  EP  OW  HW  HW  EP  OW  HW  HW  EP  OW  HW  HW  EP  OW  HW  HW  
EP  OW  HW  HW  EP  OW  HW  HW  EP  OW  HW  HW  EP  OW  HW  HW  EP  OW  HW  HW  
EP  OW  HW  HW  EP  OW  HW  HW  EP  OW  HW  HW  EP  OW  HW  HW  EP  OW  HW  HW  
EP  OW  HW  HW  EP  OW  HW  HW  EP  OW  HW  HW  EP  OW  HW  HW  EP  OW  HW  HW  
EP  OW  HW  HW  EP  OW  HW  HW  EP  OW  HW  HW  EP  OW  HW  HW  EP  OW  HW  HW  
EP  OW  HW  HW  EP  OW  HW  HW  EP  OW  HW  HW  EP  OW  HW  HW  EP  OW  HW  HW  
EP  OW  HW  HW  EP  OW  HW  HW  EP  OW  HW  HW  EP  OW  HW  HW  EP  OW  HW  HW  
EP  OW  HW  HW  EP  OW  HW  HW  EP  OW  HW  HW  EP  OW  HW  HW  EP  OW  HW  HW  
EP  OW  HW  HW  EP  OW  HW  HW  EP  OW  HW  HW  EP  OW  HW  HW  EP  OW  HW  HW  
EP  OW  HW  HW  EP  OW  HW  HW  EP  OW  HW  HW  EP  OW  HW  HW  EP  OW  HW  HW  
EP  OW  HW  HW  EP  OW  HW  HW  EP  OW  HW  HW  EP  OW  HW  HW  EP  OW  HW  HW  
EP  OW  HW  HW  EP  OW  HW  HW  EP  OW  HW  HW  EP  OW  HW  HW  EP  OW  HW  HW  
EP  OW  HW  HW  EP  OW  HW  HW  EP  OW  HW  HW  EP  OW  HW  HW  EP  OW  HW  HW  
EP  OW  HW  HW  EP  OW  HW  HW  EP  OW  HW  HW  EP  OW  HW  HW  EP  OW  HW  HW  
EP  OW  HW  HW  EP  OW  HW  HW  EP  OW  HW  HW  EP  OW  HW  HW  EP  OW  HW  HW  
EP  OW  HW  HW  EP  OW  HW  HW  EP  OW  HW  HW  EP  OW  HW  HW  EP  OW  HW  HW  
EP  OW  HW  HW  EP  OW  HW  HW  EP  OW  HW  HW  EP  OW  HW  HW  EP  OW  HW  HW  
EP  OW  HW  HW  EP  OW  HW  HW  EP  OW  HW  HW  EP  OW  HW  HW  EP  OW  HW  HW  
EP  OW  HW  HW  EP  OW  HW  HW  EP  OW  HW  HW  EP  OW  HW  HW  EP  OW  HW  HW  
EP  OW  HW  HW  EP  OW  HW  HW  EP  OW  HW  HW  EP  OW  HW  HW  EP  OW  HW  HW  
EP  OW  HW  HW  EP  OW  HW  HW  EP  OW  HW  HW  EP  OW  HW  HW  EP  OW  HW  HW  
EP  OW  HW  HW  EP  OW  HW  HW  EP  OW  HW  HW  EP  OW  HW  HW  EP  OW  HW  HW  
EP  OW  HW  HW  EP  OW  HW  HW  EP  OW  HW  HW  EP  OW  HW  HW  EP  OW  HW  HW  
EP  OW  HW  HW  EP  OW  HW  HW  EP  OW  HW  HW  EP  OW  HW  HW  EP  OW  HW  HW  
EP  OW  HW  HW  EP  OW  HW  HW  EP  OW  HW  HW  EP  OW  HW  HW  EP  OW  HW  HW  
EP  OW  HW  HW  EP  OW  HW  HW  EP  OW  HW  HW  EP  OW  HW  HW  EP  OW  HW  HW  
EP  OW  HW  HW  EP  OW  HW  HW  EP  OW  HW  HW  EP  OW  HW  HW  EP  OW  HW  HW  
EP  OW  HW  HW  EP  OW  HW  HW  EP  OW  HW  HW  EP  OW  HW  HW  EP  OW  HW  HW  
EP  OW  HW  HW  EP  OW  HW  HW  EP  OW  HW  HW  EP  OW  HW  HW  EP  OW  HW  HW  
EP  OW  HW  HW  EP  OW  HW  HW  EP  OW  HW  HW  EP  OW  HW  HW  EP  OW  HW  HW  
EP  OW  HW  HW  EP  OW  HW  HW  EP  OW  HW  HW  EP  OW  HW  HW  EP  OW  HW  HW  
EP  OW  HW  HW  EP  OW  HW  HW  EP  OW  HW  HW  EP  OW  HW  HW  EP  OW  HW  HW  
EP  OW  HW  HW  EP  OW  HW  HW  EP  OW  HW  HW  EP  OW  HW  HW  EP  OW  HW  HW  
EP  OW  HW  HW  EP  OW  HW  HW  EP  OW  HW  HW  EP  OW  HW  HW  EP  OW  HW  HW  
EP  OW  HW  HW  EP  OW  HW  HW  EP  OW  HW  HW  EP  OW  HW  HW  EP  OW  HW  HW  
EP  OW  HW  HW  EP  OW  HW  HW  EP  OW  HW  HW  EP  OW  HW  HW  EP  OW  HW  HW  
EP  OW  HW  HW  EP  OW  HW  HW  EP  OW  HW  HW  EP  OW  HW  HW  EP  OW  HW  HW  
EP  OW  HW  HW  EP  OW  HW  HW  EP  OW  HW  HW  EP  OW  HW  HW  EP  OW  HW  HW  
EP  OW  HW  HW  EP  OW  HW  HW  EP  OW  HW  HW  EP  OW  HW  HW  EP  OW  HW  HW  
EP  OW  HW  HW  EP  OW  HW  HW  EP  OW  HW  HW  EP  OW  HW  HW  EP  OW  HW  HW  
EP  OW  HW  HW  EP  OW  HW  HW  EP  OW  HW  HW  EP  OW  HW  HW  EP  OW  HW  HW  
EP  OW  HW  HW  EP  OW  HW  HW  EP  OW  HW  HW  EP  OW  HW  HW  EP  OW  HW  HW  
EP  OW  HW  HW  EP  OW  HW  HW  EP  OW  HW  HW  EP  OW  HW  HW  EP  OW  HW  HW  
EP  OW  HW  HW  EP  OW  HW  HW  EP  OW  HW  HW  EP  OW  HW  HW  EP  OW  HW  HW  
EP  OW  HW  HW  EP  OW  HW  HW  EP  OW  HW  HW  EP  OW  HW  HW  EP  OW  HW  HW  
EP  OW  HW  HW  EP  OW  HW  HW  EP  OW  HW  HW  EP  OW  HW  HW  EP  OW  HW  HW  
EP  OW  HW  HW  EP  OW  HW  HW  EP  OW  HW  HW  EP  OW  HW  HW  EP  OW  HW  HW  
EP  OW  HW  HW  EP  OW  HW  HW  EP  OW  HW  HW  EP  OW  HW  HW  EP  OW  HW  HW  
EP  OW  HW  HW  EP  OW  HW  HW  EP  OW  HW  HW  EP  OW  HW  HW  EP  OW  HW  HW  
EP  OW  HW  HW  EP  OW  HW  HW  EP  OW  HW  HW  EP  OW  HW  HW  EP  OW  HW  HW  
EP  OW  HW  HW  EP  OW  HW  HW  EP  OW  HW  HW  EP  OW  HW  HW  EP  OW  HW  HW  
EP  OW  HW  HW  EP  OW  HW  HW  EP  OW  HW  HW  EP  OW  HW  HW  EP  OW  HW  HW  
EP  OW  HW  HW  EP  OW  HW  HW  EP  OW  HW  HW  EP  OW  HW  HW  EP  OW  HW  HW  
EP  OW  HW  HW  EP  OW  HW  HW  EP  OW  HW  HW  EP  OW  HW  HW  EP  OW  HW  HW  
EP  OW  HW  HW  EP  OW  HW  HW  EP  OW  HW  HW  EP  OW  HW  HW  EP  OW  HW  HW  
EP  OW  HW  HW  EP  OW  HW  HW  EP  OW  HW  HW  EP  OW  HW  HW  EP  OW  HW  HW  
EP  OW  HW  HW  EP  OW  HW  HW  EP  OW  HW  HW  EP  OW  HW  HW  EP  OW  HW  HW  
EP  OW  HW  HW  EP  OW  HW  HW  EP  OW  HW  HW  EP  OW  HW  HW  EP  OW  HW  HW  
EP  OW  HW  HW  EP  OW  HW  HW  EP  OW  HW  HW  EP  OW  HW  HW  EP  OW  HW  HW  
EP  OW  HW  HW  EP  OW  HW  HW  EP  OW  HW  HW  EP  OW  HW  HW  EP  OW  HW  HW  
EP  OW  HW  HW  EP  OW  HW  HW  EP  OW  HW  HW  EP  OW  HW  HW  EP  OW  HW  HW  
EP  OW  HW  HW  EP  OW  HW  HW  EP  OW  HW  HW  EP  OW  HW  HW  EP  OW  HW  HW  
EP  OW  HW  HW  EP  OW  HW  HW  EP  OW  HW  HW  EP  OW  HW  HW  EP  OW  HW  HW  
EP  OW  HW  HW  EP  OW  HW  HW  EP  OW  HW  HW  EP  OW  HW  HW  EP  OW  HW  HW  
EP  OW  HW  HW  EP  OW  HW  HW  EP  OW  HW  HW  EP  OW  HW  HW  EP  OW  HW  HW  
EP  OW  HW  HW  EP  OW  HW  HW  EP  OW  HW  HW  EP  OW  HW  HW  EP  OW  HW  HW  
EP  OW  HW  HW  EP  OW  HW  HW  EP  OW  HW  HW  EP  OW  HW  HW  EP  OW  HW  HW  
EP  OW  HW  HW  EP  OW  HW  HW  EP  OW  HW  HW  EP  OW  HW  HW  EP  OW  HW  HW  
EP  OW  HW  HW  EP  OW  HW  HW  EP  OW  HW  HW  EP  OW  HW  HW  EP  OW  HW  HW  
EP  OW  HW  HW  EP  OW  HW  HW  EP  OW  HW  HW  EP  OW  HW  HW  EP  OW  HW  HW  
EP  OW  HW  HW  EP  OW  HW  HW  EP  OW  HW  HW  EP  OW  HW  HW  EP  OW  HW  HW  
EP  OW  HW  HW  EP  OW  HW  HW  EP  OW  HW  HW  EP  OW  HW  HW  EP  OW  HW  HW  
EP  OW  HW  HW  EP  OW  HW  HW  EP  OW  HW  HW  EP  OW  HW  HW  EP  OW  HW  HW  
EP  OW  HW  HW  EP  OW  HW  HW  EP  OW  HW  HW  EP  OW  HW  HW  EP  OW  HW  HW  
EP  OW  HW  HW  EP  OW  HW  HW  EP  OW  HW  HW  EP  OW  HW  HW  EP  OW  HW  HW  
EP  OW  HW  HW  EP  OW  HW  HW  EP  OW  HW  HW  EP  OW  HW  HW  EP  OW  HW  HW  
EP  OW  HW  HW  EP  OW  HW  HW  EP  OW  HW  HW  EP  OW  HW  HW  EP  OW  HW  HW  
EP  OW  HW  HW  EP  OW  HW  HW  EP  OW  HW  HW  EP  OW  HW  HW  EP  OW  HW  HW  
EP  OW  HW  HW  EP  OW  HW  HW  EP  OW  HW  HW  EP  OW  HW  HW  EP  OW  HW  HW  
EP  OW  HW  HW  EP  OW  HW  HW  EP  OW  HW  HW  EP  OW  HW  HW  EP  OW  HW  HW  
EP  OW  HW  HW  EP  OW  HW  HW  EP  OW  HW  HW  EP  OW  HW  HW  EP  OW  HW  HW  
EP  OW  HW  HW  EP  OW  HW  HW  EP  OW  HW  HW  EP  OW  HW  HW  EP  OW  HW  HW  
EP  OW  HW  HW  EP  OW  HW  HW  EP  OW  HW  HW  EP  OW  HW  HW  EP  OW  HW  HW  
EP  OW  HW  HW  EP  OW  HW  HW  EP  OW  HW  HW  EP  OW  HW  HW  EP  OW  HW  HW  
EP  OW  HW  HW  EP  OW  HW  HW  EP  OW  HW  HW  EP  OW  HW  HW  EP  OW  HW  HW  
EP  OW  HW  HW  EP  OW  HW  HW  EP  OW  HW  HW  EP  OW  HW  HW  EP  OW  HW  HW  
EP  OW  HW  HW  EP  OW  HW  HW  EP  OW  HW  HW  EP  OW  HW  HW  EP  OW  HW  HW  
EP  OW  HW  HW  EP  OW  HW  HW  EP  OW  HW  HW  EP  OW  HW  HW  EP  OW  HW  HW  
EP  OW  HW  HW  EP  OW  HW  HW  EP  OW  HW  HW  EP  OW  HW  HW  EP  OW  HW  HW  
EP  OW  HW  HW  EP  OW  HW  HW  EP  OW  HW  HW  EP  OW  HW  HW  EP  OW  HW  HW  
EP  OW  HW  HW  EP  OW  HW  HW  EP  OW  HW  HW  EP  OW  HW  HW  EP  OW  HW  HW  
EP  OW  HW  HW  EP  OW  HW  HW  EP  OW  HW  HW  EP  OW  HW  HW  EP  OW  HW  HW  
EP  OW  HW  HW  EP  OW  HW  HW  EP  OW  HW  HW  EP  OW  HW  HW  EP  OW  HW  HW  
EP  OW  HW  HW  EP  OW  HW  HW  EP  OW  HW  HW  EP  OW  HW  HW  EP  OW  HW  HW  
EP  OW  HW  HW  EP  OW  HW  HW  EP  OW  HW  HW  EP  OW  HW  HW  EP  OW  HW  HW  
EP  OW  HW  HW  EP  OW  HW  HW  EP  OW  HW  HW  EP  OW  HW  HW  EP  OW  HW  HW  
EP  OW  HW  HW  EP  OW  HW  HW  EP  OW  HW  HW  EP  OW  HW  HW  EP  OW  HW  HW  
EP  OW  HW  HW  EP  OW  HW  HW  EP  OW  HW  HW  EP  OW  HW  HW  EP  OW  HW  HW  
EP  OW  HW  HW  EP  OW  HW  HW  EP  OW  HW  HW  EP  OW  HW  HW  EP  OW  HW  HW  
EP  OW  HW  HW  EP  OW  HW  HW  EP  OW  HW  HW  EP  OW  HW  HW  EP  OW  HW  HW  
EP  OW  HW  HW  EP  OW  HW  HW  EP  OW  HW  HW  EP  OW  HW  HW  EP  OW  HW  HW  
EP  OW  HW  HW  EP  OW  HW  HW  EP  OW  HW  HW  EP  OW  HW  HW  EP  OW  HW  HW  
EP  OW  HW  HW  EP  OW  HW  HW  EP  OW  HW  HW  EP  OW  HW  HW  EP  OW  HW  HW  
EP  OW  HW  HW  EP  OW  HW  HW  EP  OW  HW  HW  EP  OW  HW  HW  EP  OW  HW  HW  
EP  OW  HW  HW  EP  OW  HW  HW  EP  OW  HW  HW  EP  OW  HW  HW  EP  OW  HW  HW  
EP  OW  HW  HW  EP  OW  HW  HW  EP  OW  HW  HW  EP  OW  HW  HW  EP  OW  HW  HW  
EP  OW  HW  HW  EP  OW  HW  HW  EP  OW  HW  HW  EP  OW  HW  HW  EP  OW  HW  HW  
EP  OW  HW  HW  EP  OW  HW  HW  EP  OW  HW  HW  EP  OW  HW  HW  EP  OW  HW  HW  
EP  OW  HW  HW  EP  OW  HW  HW  EP  OW  HW  HW  EP  OW  HW  HW  EP  OW  HW  HW  
EP  OW  HW  HW  EP  OW  HW  HW  EP  OW  HW  HW  EP  OW  HW  HW  EP  OW  HW  HW  
EP  OW  HW  HW  EP  OW  HW  HW  EP  OW  HW  HW  EP  OW  HW  HW  EP  OW  HW  HW  
EP  OW  HW  HW  EP  OW  HW  HW  EP  OW  HW  HW  EP  OW  HW  HW  EP  OW  HW  HW  
EP  OW  HW  HW  EP  OW  HW  HW  EP  OW  HW  HW  EP  OW  HW  HW  EP  OW  HW  HW  
EP  OW  HW  HW  EP  OW  HW  HW  EP  OW  HW  HW  EP  OW  HW  HW  EP  OW  HW  HW  
EP  OW  HW  HW  EP  OW  HW  HW  EP  OW  HW  HW  EP  OW  HW  HW  EP  OW  HW  HW  
EP  OW  HW  HW  EP  OW  HW  HW  EP  OW  HW  HW  EP  OW  HW  HW  EP  OW  HW  HW  
EP  OW  HW  HW  EP  OW  HW  HW  EP  OW  HW  HW  EP  OW  HW  HW  EP  OW  HW  HW  
EP  OW  HW  HW  EP  OW  HW  HW  EP  OW  HW  HW  EP  OW  HW  HW  EP  OW  HW  HW  
EP  OW  HW  HW  EP  OW  HW  HW  EP  OW  HW  HW  EP  OW  HW  HW  EP  OW  HW  HW  
EP  OW  HW  HW  EP  OW  HW  HW  EP  OW  HW  HW  EP  OW  HW  HW  EP  OW  HW  HW  
EP  OW  HW  HW  EP  OW  HW  HW  EP  OW  HW  HW  EP  OW  HW  HW  EP  OW  HW  HW  
EP  OW  HW  HW  EP  OW  HW  HW  EP  OW  HW  HW  EP  OW  HW  HW  EP  OW  HW  HW  
EP  OW  HW  HW  EP  OW  HW  HW  EP  OW  HW  HW  EP  OW  HW  HW  EP  OW  HW  HW  
EP  OW  HW  HW  EP  OW  HW  HW  EP  OW  HW  HW  EP  OW  HW  HW  EP  OW  HW  HW  
EP  OW  HW  HW  EP  OW  HW  HW  EP  OW  HW  HW  EP  OW  HW  HW  EP  OW  HW  HW  
EP  OW  HW  HW  EP  OW  HW  HW  EP  OW  HW  HW  EP  OW  HW  HW  EP  OW  HW  HW  
EP  OW  HW  HW  EP  OW  HW  HW  EP  OW  HW  HW  EP  OW  HW  HW  EP  OW  HW  HW  
EP  OW  HW  HW  EP  OW  HW  HW  EP  OW  HW  HW  EP  OW  HW  HW  EP  OW  HW  HW  
EP  OW  HW  HW  EP  OW  HW  HW  EP  OW  HW  HW  EP  OW  HW  HW  EP  OW  HW  HW  
EP  OW  HW  HW  EP  OW  HW  HW  EP  OW  HW  HW  EP  OW  HW  HW  EP  OW  HW  HW  
EP  OW  HW  HW  EP  OW  HW  HW  EP  OW  HW  HW  EP  OW  HW  HW  EP  OW  HW  HW  
EP  OW  HW  HW  EP  OW  HW  HW  EP  OW  HW  HW  EP  OW  HW  HW  EP  OW  HW  HW  
EP  OW  HW  HW  EP  OW  HW  HW  EP  OW  HW  HW  EP  OW  HW  HW  EP  OW  HW  HW  
EP  OW  HW  HW  EP  OW  HW  HW  EP  OW  HW  HW  EP  OW  HW  HW  EP  OW  HW  HW  
EP  OW  HW  HW  EP  OW  HW  HW  EP  OW  HW  HW  EP  OW  HW  HW  EP  OW  HW  HW  
EP  OW  HW  HW  EP  OW  HW  HW  EP  OW  HW  HW  EP  OW  HW  HW  EP  OW  HW  HW  
EP  OW  HW  HW  EP  OW  HW  HW  EP  OW  HW  HW  EP  OW  HW  HW  EP  OW  HW  HW  
EP  OW  HW  HW  EP  OW  HW  HW  EP  OW  HW  HW  EP  OW  HW  HW  EP  OW  HW  HW  
EP  OW  HW  HW  EP  OW  HW  HW  EP  OW  HW  HW  EP  OW  HW  HW  EP  OW  HW  HW  
EP  OW  HW  HW  EP  OW  HW  HW  EP  OW  HW  HW  EP  OW  HW  HW  EP  OW  HW  HW  
EP  OW  HW  HW  EP  OW  HW  HW  EP  OW  HW  HW  EP  OW  HW  HW  EP  OW  HW  HW  
EP  OW  HW  HW  EP  OW  HW  HW  EP  OW  HW  HW  EP  OW  HW  HW  EP  OW  HW  HW  
EP  OW  HW  HW  EP  OW  HW  HW  EP  OW  HW  HW  EP  OW  HW  HW  EP  OW  HW  HW  
EP  OW  HW  HW  EP  OW  HW  HW  EP  OW  HW  HW  EP  OW  HW  HW  EP  OW  HW  HW  
EP  OW  HW  HW  EP  OW  HW  HW  EP  OW  HW  HW  EP  OW  HW  HW  EP  OW  HW  HW  
EP  OW  HW  HW  EP  OW  HW  HW  EP  OW  HW  HW  EP  OW  HW  HW  EP  OW  HW  HW  
EP  OW  HW  HW  EP  OW  HW  HW  EP  OW  HW  HW  EP  OW  HW  HW  EP  OW  HW  HW  
EP  OW  HW  HW  EP  OW  HW  HW  EP  OW  HW  HW  EP  OW  HW  HW  EP  OW  HW  HW  
EP  OW  HW  HW  EP  OW  HW  HW  EP  OW  HW  HW  EP  OW  HW  HW  EP  OW  HW  HW  
EP  OW  HW  HW  EP  OW  HW  HW  EP  OW  HW  HW  EP  OW  HW  HW  EP  OW  HW  HW  
EP  OW  HW  HW  EP  OW  HW  HW  EP  OW  HW  HW  EP  OW  HW  HW  EP  OW  HW  HW  
EP  OW  HW  HW  EP  OW  HW  HW  EP  OW  HW  HW  EP  OW  HW  HW  EP  OW  HW  HW  
EP  OW  HW  HW  EP  OW  HW  HW  EP  OW  HW  HW  EP  OW  HW  HW  EP  OW  HW  HW  
EP  OW  HW  HW  EP  OW  HW  HW  EP  OW  HW  HW  EP  OW  HW  HW  EP  OW  HW  HW  
EP  OW  HW  HW  EP  OW  HW  HW  EP  OW  HW  HW  EP  OW  HW  HW  EP  OW  HW  HW  
EP  OW  HW  HW  EP  OW  HW  HW  EP  OW  HW  HW  EP  OW  HW  HW  EP  OW  HW  HW  
EP  OW  HW  HW  EP  OW  HW  HW  EP  OW  HW  HW  EP  OW  HW  HW  EP  OW  HW  HW  
EP  OW  HW  HW  EP  OW  HW  HW  EP  OW  HW  HW  EP  OW  HW  HW  EP  OW  HW  HW  
EP  OW  HW  HW  EP  OW  HW  HW  EP  OW  HW  HW  EP  OW  HW  HW  EP  OW  HW  HW  
EP  OW  HW  HW  EP  OW  HW  HW  EP  OW  HW  HW  EP  OW  HW  HW  EP  OW  HW  HW  
EP  OW  HW  HW  EP  OW  HW  HW  EP  OW  HW  HW  EP  OW  HW  HW  EP  OW  HW  HW  
EP  OW  HW  HW  EP  OW  HW  HW  EP  OW  HW  HW  EP  OW  HW  HW  EP  OW  HW  HW  
EP  OW  HW  HW  EP  OW  HW  HW  EP  OW  HW  HW  EP  OW  HW  HW  EP  OW  HW  HW  
EP  OW  HW  HW  EP  OW  HW  HW  EP  OW  HW  HW  EP  OW  HW  HW  EP  OW  HW  HW  
EP  OW  HW  HW  EP  OW  HW  HW  EP  OW  HW  HW  EP  OW  HW  HW  EP  OW  HW  HW  
EP  OW  HW  HW  EP  OW  HW  HW  EP  OW  HW  HW  EP  OW  HW  HW  EP  OW  HW  HW  
EP  OW  HW  HW  EP  OW  HW  HW  EP  OW  HW  HW  EP  OW  HW  HW  EP  OW  HW  HW  
EP  OW  HW  HW  EP  OW  HW  HW  EP  OW  HW  HW  EP  OW  HW  HW  EP  OW  HW  HW  
EP  OW  HW  HW  EP  OW  HW  HW  EP  OW  HW  HW  EP  OW  HW  HW  EP  OW  HW  HW  
EP  OW  HW  HW  EP  OW  HW  HW  EP  OW  HW  HW  EP  OW  HW  HW  EP  OW  HW  HW  
EP  OW  HW  HW  EP  OW  HW  HW  EP  OW  HW  HW  EP  OW  HW  HW  EP  OW  HW  HW  
EP  OW  HW  HW  EP  OW  HW  HW  EP  OW  HW  HW  EP  OW  HW  HW  EP  OW  HW  HW  
EP  OW  HW  HW  EP  OW  HW  HW  EP  OW  HW  HW  EP  OW  HW  HW  EP  OW  HW  HW  
EP  OW  HW  HW  EP  OW  HW  HW  EP  OW  HW  HW  EP  OW  HW  HW  EP  OW  HW  HW  
EP  OW  HW  HW  EP  OW  HW  HW  EP  OW  HW  HW  EP  OW  HW  HW  EP  OW  HW  HW  
EP  OW  HW  HW  EP  OW  HW  HW  EP  OW  HW  HW  EP  OW  HW  HW  EP  OW  HW  HW  
EP  OW  HW  HW  EP  OW  HW  HW  EP  OW  HW  HW  EP  OW  HW  HW  EP  OW  HW  HW  
EP  OW  HW  HW  EP  OW  HW  HW  EP  OW  HW  HW  EP  OW  HW  HW  EP  OW  HW  HW  
EP  OW  HW  HW  EP  OW  HW  HW  EP  OW  HW  HW  EP  OW  HW  HW  EP  OW  HW  HW  
EP  OW  HW  HW  EP  OW  HW  HW  EP  OW  HW  HW  EP  OW  HW  HW  EP  OW  HW  HW  
EP  OW  HW  HW  EP  OW  HW  HW  EP  OW  HW  HW  EP  OW  HW  HW  EP  OW  HW  HW  
EP  OW  HW  HW  EP  OW  HW  HW  EP  OW  HW  HW  EP  OW  HW  HW  EP  OW  HW  HW  
EP  OW  HW  HW  EP  OW  HW  HW  EP  OW  HW  HW  EP  OW  HW  HW  EP  OW  HW  HW  
EP  OW  HW  HW  EP  OW  HW  HW  EP  OW  HW  HW  EP  OW  HW  HW  EP  OW  HW  HW  
EP  OW  HW  HW  EP  OW  HW  HW  EP  OW  HW  HW  EP  OW  HW  HW  EP  OW  HW  HW  
EP  OW  HW  HW  EP  OW  HW  HW  EP  OW  HW  HW  EP  OW  HW  HW  EP  OW  HW  HW  
EP  OW  HW  HW  EP  OW  HW  HW  EP  OW  HW  HW  EP  OW  HW  HW  EP  OW  HW  HW  
EP  OW  HW  HW  EP  OW  HW  HW  EP  OW  HW  HW  EP  OW  HW  HW  EP  OW  HW  HW  
EP  OW  HW  HW  EP  OW  HW  HW  EP  OW  HW  HW  EP  OW  HW  HW  EP  OW  HW  HW  
EP  OW  HW  HW  EP  OW  HW  HW  EP  OW  HW  HW  EP  OW  HW  HW  EP  OW  HW  HW  
EP  OW  HW  HW  EP  OW  HW  HW  EP  OW  HW  HW  EP  OW  HW  HW  EP  OW  HW  HW  
EP  OW  HW  HW  EP  OW  HW  HW  EP  OW  HW  HW  EP  OW  HW  HW  EP  OW  HW  HW  
EP  OW  HW  HW  EP  OW  HW  HW  EP  OW  HW  HW  EP  OW  HW  HW  EP  OW  HW  HW  
EP  OW  HW  HW  EP  OW  HW  HW  EP  OW  HW  HW  EP  OW  HW  HW  EP  OW  HW  HW  
EP  OW  HW  HW  EP  OW  HW  HW  EP  OW  HW  HW  EP  OW  HW  HW  EP  OW  HW  HW  
EP  OW  HW  HW  EP  OW  HW  HW  EP  OW  HW  HW  EP  OW  HW  HW  EP  OW  HW  HW  
EP  OW  HW  HW  EP  OW  HW  HW  EP  OW  HW  HW  EP  OW  HW  HW  EP  OW  HW  HW  
EP  OW  HW  HW  EP  OW  HW  HW  EP  OW  HW  HW  EP  OW  HW  HW  EP  OW  HW  HW  
EP  OW  HW  HW  EP  OW  HW  HW  EP  OW  HW  HW  EP  OW  HW  HW  EP  OW  HW  HW  
EP  OW  HW  HW  EP  OW  HW  HW  EP  OW  HW  HW  EP  OW  HW  HW  EP  OW  HW  HW  
EP  OW  HW  HW  EP  OW  HW  HW  EP  OW  HW  HW  EP  OW  HW  HW  EP  OW  HW  HW  
EP  OW  HW  HW  EP  OW  HW  HW  EP  OW  HW  HW  EP  OW  HW  HW  EP  OW  HW  HW  
EP  OW  HW  HW  EP  OW  HW  HW  EP  OW  HW  HW  EP  OW  HW  HW  EP  OW  HW  HW  
EP  OW  HW  HW  EP  OW  HW  HW  EP  OW  HW  HW  EP  OW  HW  HW  EP  OW  HW  HW  
EP  OW  HW  HW  EP  OW  HW  HW  EP  OW  HW  HW  EP  OW  HW  HW  EP  OW  HW  HW  
EP  OW  HW  HW  EP  OW  HW  HW  EP  OW  HW  HW  EP  OW  HW  HW  EP  OW  HW  HW  
EP  OW  HW  HW  EP  OW  HW  HW  EP  OW  HW  HW  EP  OW  HW  HW  EP  OW  HW  HW  
EP  OW  HW  HW  EP  OW  HW  HW  EP  OW  HW  HW  EP  OW  HW  HW  EP  OW  HW  HW  
EP  OW  HW  HW  EP  OW  HW  HW  EP  OW  HW  HW  EP  OW  HW  HW  EP  OW  HW  HW  
EP  OW  HW  HW  EP  OW  HW  HW  EP  OW  HW  HW  EP  OW  HW  HW  EP  OW  HW  HW  
EP  OW  HW  HW  EP  OW  HW  HW  EP  OW  HW  HW  EP  OW  HW  HW  EP  OW  HW  HW  
EP  OW  HW  HW  EP  OW  HW  HW  EP  OW  HW  HW  EP  OW  HW  HW  EP  OW  HW  HW  
EP  OW  HW  HW  EP  OW  HW  HW  EP  OW  HW  HW  EP  OW  HW  HW  EP  OW  HW  HW  
EP  OW  HW  HW  EP  OW  HW  HW  EP  OW  HW  HW  EP  OW  HW  HW  EP  OW  HW  HW  
EP  OW  HW  HW  EP  OW  HW  HW  EP  OW  HW  HW  EP  OW  HW  HW  EP  OW  HW  HW  
EP  OW  HW  HW  EP  OW  HW  HW  EP  OW  HW  HW  EP  OW  HW  HW  EP  OW  HW  HW  
EP  OW  HW  HW  EP  OW  HW  HW  EP  OW  HW  HW  EP  OW  HW  HW  EP  OW  HW  HW  
EP  OW  HW  HW  EP  OW  HW  HW  EP  OW  HW  HW  EP  OW  HW  HW  EP  OW  HW  HW  
EP  OW  HW  HW  EP  OW  HW  HW  EP  OW  HW  HW  EP  OW  HW  HW  EP  OW  HW  HW  
EP  OW  HW  HW  EP  OW  HW  HW  EP  OW  HW  HW  EP  OW  HW  HW  EP  OW  HW  HW  
EP  OW  HW  HW  EP  OW  HW  HW  EP  OW  HW  HW  EP  OW  HW  HW  EP  OW  HW  HW  
EP  OW  HW  HW  EP  OW  HW  HW  EP  OW  HW  HW  EP  OW  HW  HW  EP  OW  HW  HW  
EP  OW  HW  HW  EP  OW  HW  HW  EP  OW  HW  HW  EP  OW  HW  HW  EP  OW  HW  HW  
EP  OW  HW  HW  EP  OW  HW  HW  EP  OW  HW  HW  EP  OW  HW  HW  EP  OW  HW  HW  
EP  OW  HW  HW  EP  OW  HW  HW  EP  OW  HW  HW  EP  OW  HW  HW  EP  OW  HW  HW  
EP  OW  HW  HW  EP  OW  HW  HW  EP  OW  HW  HW  EP  OW  HW  HW  EP  OW  HW  HW  
EP  OW  HW  HW  EP  OW  HW  HW  EP  OW  HW  HW  EP  OW  HW  HW  EP  OW  HW  HW  
EP  OW  HW  HW  EP  OW  HW  HW  EP  OW  HW  HW  EP  OW  HW  HW  EP  OW  HW  HW  
EP  OW  HW  HW  EP  OW  HW  HW  EP  OW  HW  HW  EP  OW  HW  HW  EP  OW  HW  HW  
EP  OW  HW  HW  EP  OW  HW  HW  EP  OW  HW  HW  EP  OW  HW  HW  EP  OW  HW  HW  
EP  OW  HW  HW  EP  OW  HW  HW  EP  OW  HW  HW  EP  OW  HW  HW  EP  OW  HW  HW  
EP  OW  HW  HW  EP  OW  HW  HW  EP  OW  HW  HW  EP  OW  HW  HW  EP  OW  HW  HW  
EP  OW  HW  HW  EP  OW  HW  HW  EP  OW  HW  HW  EP  OW  HW  HW  EP  OW  HW  HW  
EP  OW  HW  HW  EP  OW  HW  HW  EP  OW  HW  HW  EP  OW  HW  HW  EP  OW  HW  HW  
EP  OW  HW  HW  EP  OW  HW  HW  EP  OW  HW  HW  EP  OW  HW  HW  EP  OW  HW  HW  
EP  OW  HW  HW  EP  OW  HW  HW  EP  OW  HW  HW  EP  OW  HW  HW  EP  OW  HW  HW  
EP  OW  HW  HW  EP  OW  HW  HW  EP  OW  HW  HW  EP  OW  HW  HW  EP  OW  HW  HW  
EP  OW  HW  HW  EP  OW  HW  HW  EP  OW  HW  HW  EP  OW  HW  HW  EP  OW  HW  HW  
EP  OW  HW  HW  EP  OW  HW  HW  EP  OW  HW  HW  EP  OW  HW  HW  EP  OW  HW  HW  
EP  OW  HW  HW  EP  OW  HW  HW  EP  OW  HW  HW  EP  OW  HW  HW  EP  OW  HW  HW  
EP  OW  HW  HW  EP  OW  HW  HW  EP  OW  HW  HW  EP  OW  HW  HW  EP  OW  HW  HW  
EP  OW  HW  HW  EP  OW  HW  HW  EP  OW  HW  HW  EP  OW  HW  HW  EP  OW  HW  HW  
EP  OW  HW  HW  EP  OW  HW  HW  EP  OW  HW  HW  EP  OW  HW  HW  EP  OW  HW  HW  
EP  OW  HW  HW  EP  OW  HW  HW  EP  OW  HW  HW  EP  OW  HW  HW  EP  OW  HW  HW  
EP  OW  HW  HW  EP  OW  HW  HW  EP  OW  HW  HW  EP  OW  HW  HW  EP  OW  HW  HW  
EP  OW  HW  HW  EP  OW  HW  HW  EP  OW  HW  HW  EP  OW  HW  HW  EP  OW  HW  HW  
EP  OW  HW  HW  EP  OW  HW  HW  EP  OW  HW  HW  EP  OW  HW  HW  EP  OW  HW  HW  
EP  OW  HW  HW  EP  OW  HW  HW  EP  OW  HW  HW  EP  OW  HW  HW  EP  OW  HW  HW  
EP  OW  HW  HW  EP  OW  HW  HW  EP  OW  HW  HW  EP  OW  HW  HW  EP  OW  HW  HW  
EP  OW  HW  HW  EP  OW  HW  HW  EP  OW  HW  HW  EP  OW  HW  HW  EP  OW  HW  HW  
EP  OW  HW  HW  EP  OW  HW  HW  EP  OW  HW  HW  EP  OW  HW  HW  EP  OW  HW  HW  
EP  OW  HW  HW  EP  OW  HW  HW  EP  OW  HW  HW  EP  OW  HW  HW  EP  OW  HW  HW  
EP  OW  HW  HW  EP  OW  HW  HW  EP  OW  HW  HW  EP  OW  HW  HW  EP  OW  HW  HW  
EP  OW  HW  HW  EP  OW  HW  HW  EP  OW  HW  HW  EP  OW  HW  HW  EP  OW  HW  HW  
EP  OW  HW  HW  EP  OW  HW  HW  EP  OW  HW  HW  EP  OW  HW  HW  EP  OW  HW  HW  
EP  OW  HW  HW  EP  OW  HW  HW  EP  OW  HW  HW  EP  OW  HW  HW  EP  OW  HW  HW  
EP  OW  HW  HW  EP  OW  HW  HW  EP  OW  HW  HW  EP  OW  HW  HW  EP  OW  HW  HW  
EP  OW  HW  HW  EP  OW  HW  HW  EP  OW  HW  HW  EP  OW  HW  HW  EP  OW  HW  HW  
EP  OW  HW  HW  EP  OW  HW  HW  EP  OW  HW  HW  EP  OW  HW  HW  EP  OW  HW  HW  
EP  OW  HW  HW  EP  OW  HW  HW  EP  OW  HW  HW  EP  OW  HW  HW  EP  OW  HW  HW  
EP  OW  HW  HW  EP  OW  HW  HW  EP  OW  HW  HW  EP  OW  HW  HW  EP  OW  HW  HW  
EP  OW  HW  HW  EP  OW  HW  HW  EP  OW  HW  HW  EP  OW  HW  HW  EP  OW  HW  HW  
EP  OW  HW  HW  EP  OW  HW  HW  EP  OW  HW  HW  EP  OW  HW  HW  EP  OW  HW  HW  
EP  OW  HW  HW  EP  OW  HW  HW  EP  OW  HW  HW  EP  OW  HW  HW  EP  OW  HW  HW  
EP  OW  HW  HW  EP  OW  HW  HW  EP  OW  HW  HW  EP  OW  HW  HW  EP  OW  HW  HW  
EP  OW  HW  HW  EP  OW  HW  HW  EP  OW  HW  HW  EP  OW  HW  HW  EP  OW  HW  HW  
EP  OW  HW  HW  EP  OW  HW  HW  EP  OW  HW  HW  EP  OW  HW  HW  EP  OW  HW  HW  
EP  OW  HW  HW  EP  OW  HW  HW  EP  OW  HW  HW  EP  OW  HW  HW  EP  OW  HW  HW  
EP  OW  HW  HW  EP  OW  HW  HW  EP  OW  HW  HW  EP  OW  HW  HW  EP  OW  HW  HW  
EP  OW  HW  HW  EP  OW  HW  HW  EP  OW  HW  HW  EP  OW  HW  HW  EP  OW  HW  HW  
EP  OW  HW  HW  EP  OW  HW  HW  EP  OW  HW  HW  EP  OW  HW  HW  EP  OW  HW  HW  
EP  OW  HW  HW  EP  OW  HW  HW  EP  OW  HW  HW  EP  OW  HW  HW  EP  OW  HW  HW  
EP  OW  HW  HW  EP  OW  HW  HW  EP  OW  HW  HW  EP  OW  HW  HW  EP  OW  HW  HW  
EP  OW  HW  HW  EP  OW  HW  HW  EP  OW  HW  HW  EP  OW  HW  HW  EP  OW  HW  HW  
EP  OW  HW  HW  EP  OW  HW  HW  EP  OW  HW  HW  EP  OW  HW  HW  EP  OW  HW  HW  
EP  OW  HW  HW  EP  OW  HW  HW  EP  OW  HW  HW  EP  OW  HW  HW  EP  OW  HW  HW  
EP  OW  HW  HW  EP  OW  HW  HW  EP  OW  HW  HW  EP  OW  HW  HW  EP  OW  HW  HW  
EP  OW  HW  HW  EP  OW  HW  HW  EP  OW  HW  HW  EP  OW  HW  HW  EP  OW  HW  HW  
EP  OW  HW  HW  EP  OW  HW  HW  EP  OW  HW  HW  EP  OW  HW  HW  EP  OW  HW  HW  
EP  OW  HW  HW  EP  OW  HW  HW  EP  OW  HW  HW  EP  OW  HW  HW  EP  OW  HW  HW  
EP  OW  HW  HW  EP  OW  HW  HW  EP  OW  HW  HW  EP  OW  HW  HW  EP  OW  HW  HW  
EP  OW  HW  HW  EP  OW  HW  HW  EP  OW  HW  HW  EP  OW  HW  HW  EP  OW  HW  HW  
EP  OW  HW  HW  EP  OW  HW  HW  EP  OW  HW  HW  EP  OW  HW  HW  EP  OW  HW  HW  
EP  OW  HW  HW  EP  OW  HW  HW  EP  OW  HW  HW  EP  OW  HW  HW  EP  OW  HW  HW  
EP  OW  HW  HW  EP  OW  HW  HW  EP  OW  HW  HW  EP  OW  HW  HW  EP  OW  HW  HW  
EP  OW  HW  HW  EP  OW  HW  HW  EP  OW  HW  HW  EP  OW  HW  HW  EP  OW  HW  HW  
EP  OW  HW  HW  EP  OW  HW  HW  EP  OW  HW  HW  EP  OW  HW  HW  EP  OW  HW  HW  
EP  OW  HW  HW  EP  OW  HW  HW  EP  OW  HW  HW  EP  OW  HW  HW  EP  OW  HW  HW  
EP  OW  HW  HW  EP  OW  HW  HW  EP  OW  HW  HW  EP  OW  HW  HW  EP  OW  HW  HW  
EP  OW  HW  HW  EP  OW  HW  HW  EP  OW  HW  HW  EP  OW  HW  HW  EP  OW  HW  HW  
EP  OW  HW  HW  EP  OW  HW  HW  EP  OW  HW  HW  EP  OW  HW  HW  EP  OW  HW  HW  
EP  OW  HW  HW  EP  OW  HW  HW  EP  OW  HW  HW  EP  OW  HW  HW  EP  OW  HW  HW  
EP  OW  HW  HW  EP  OW  HW  HW  EP  OW  HW  HW  EP  OW  HW  HW  EP  OW  HW  HW  
EP  OW  HW  HW  EP  OW  HW  HW  EP  OW  HW  HW  EP  OW  HW  HW  EP  OW  HW  HW  
EP  OW  HW  HW  EP  OW  HW  HW  EP  OW  HW  HW  EP  OW  HW  HW  EP  OW  HW  HW  
EP  OW  HW  HW  EP  OW  HW  HW  EP  OW  HW  HW  EP  OW  HW  HW  EP  OW  HW  HW  
EP  OW  HW  HW  EP  OW  HW  HW  EP  OW  HW  HW  EP  OW  HW  HW  EP  OW  HW  HW  
EP  OW  HW  HW  EP  OW  HW  HW  EP  OW  HW  HW  EP  OW  HW  HW  EP  OW  HW  HW  
EP  OW  HW  HW  EP  OW  HW  HW  EP  OW  HW  HW  EP  OW  HW  HW  EP  OW  HW  HW  
EP  OW  HW  HW  EP  OW  HW  HW  EP  OW  HW  HW  EP  OW  HW  HW  EP  OW  HW  HW  
EP  OW  HW  HW  EP  OW  HW  HW  EP  OW  HW  HW  EP  OW  HW  HW  EP  OW  HW  HW  
EP  OW  HW  HW  EP  OW  HW  HW  EP  OW  HW  HW  EP  OW  HW  HW  EP  OW  HW  HW  
EP  OW  HW  HW  EP  OW  HW  HW  EP  OW  HW  HW  EP  OW  HW  HW  EP  OW  HW  HW  
EP  OW  HW  HW  EP  OW  HW  HW  EP  OW  HW  HW  EP  OW  HW  HW  EP  OW  HW  HW  
EP  OW  HW  HW  EP  OW  HW  HW  EP  OW  HW  HW  EP  OW  HW  HW  EP  OW  HW  HW  
EP  OW  HW  HW  EP  OW  HW  HW  EP  OW  HW  HW  EP  OW  HW  HW  EP  OW  HW  HW  
EP  OW  HW  HW  EP  OW  HW  HW  EP  OW  HW  HW  EP  OW  HW  HW  EP  OW  HW  HW  
EP  OW  HW  HW  EP  OW  HW  HW  EP  OW  HW  HW  EP  OW  HW  HW  EP  OW  HW  HW  
EP  OW  HW  HW  EP  OW  HW  HW  EP  OW  HW  HW  EP  OW  HW  HW  EP  OW  HW  HW  
EP  OW  HW  HW  EP  OW  HW  HW  EP  OW  HW  HW  EP  OW  HW  HW  EP  OW  HW  HW  
EP  OW  HW  HW  EP  OW  HW  HW  EP  OW  HW  HW  EP  OW  HW  HW  EP  OW  HW  HW  
EP  OW  HW  HW  EP  OW  HW  HW  EP  OW  HW  HW  EP  OW  HW  HW  EP  OW  HW  HW  
EP  OW  HW  HW  EP  OW  HW  HW  EP  OW  HW  HW  EP  OW  HW  HW  EP  OW  HW  HW  
EP  OW  HW  HW  EP  OW  HW  HW  EP  OW  HW  HW  EP  OW  HW  HW  EP  OW  HW  HW  
EP  OW  HW  HW  EP  OW  HW  HW  EP  OW  HW  HW  EP  OW  HW  HW  EP  OW  HW  HW  
EP  OW  HW  HW  EP  OW  HW  HW  EP  OW  HW  HW  EP  OW  HW  HW  EP  OW  HW  HW  
EP  OW  HW  HW  EP  OW  HW  HW  EP  
%FLAG TREE_CHAIN_CLASSIFICATION                                                 
%FORMAT(20a4)                                                                   
M   M   E   E   M   E   M   E   M   E   3   E   E   B   B   E   B   E   S   B   
E   B   E   B   E   S   E   E   M   E   M   E   M   E   3   E   3   E   E   E   
3   E   E   E   M   E   M   E   M   E   3   E   3   E   E   E   S   E   M   E   
M   E   M   E   3   E   E   B   S   E   S   E   S   B   E   M   E   M   E   M   
E   3   E   E   3   E   E   3   E   E   B   E   B   B   E   E   B   E   E   M   
E   M   E   M   3   3   3   3   B   B   B   M   E   E   E   E   E   E   E   E   
E   E   E   E   E   E   M   E   M   E   3   E   E   E   M   E   M   E   M   E   
E   M   E   M   E   M   E   3   E   E   3   E   3   E   E   E   3   E   E   E   
M   E   M   E   M   3   3   B   M   E   E   E   E   E   E   E   E   M   E   M   
E   3   E   E   S   E   M   E   M   E   M   E   3   E   E   3   E   E   3   E   
E   B   E   B   B   E   E   B   E   E   M   E   M   E   M   E   3   E   E   S   
E   M   E   M   E   M   E   E   M   E   M   E   M   E   E   M   E   M   E   M   
E   3   E   3   E   E   E   3   E   E   E   M   E   M   E   M   E   3   E   3   
E   E   E   3   E   E   E   M   E   M   E   M   E   3   E   E   3   E   E   3   
E   E   3   E   E   3   E   E   E   M   E   M   E   M   E   3   E   E   B   E   
B   E   E   M   E   M   E   M   E   3   E   E   B   E   B   E   E   M   E   M   
E   M   E   3   E   E   B   B   E   B   E   B   E   S   E   S   E   M   E   M   
E   M   E   3   E   3   E   E   E   3   E   E   E   M   E   M   3   E   E   3   
E   E   B   E   E   M   E   M   E   M   E   M   E   3   E   3   E   E   E   S   
E   M   E   M   E   M   E   3   E   E   B   E   E   M   E   M   E   M   E   3   
E   3   E   E   E   3   E   E   E   M   E   M   E   M   E   E   M   E   M   3   
E   E   3   E   E   B   E   E   M   E   M   E   M   E   M   E   3   E   E   B   
B   E   B   E   B   E   S   E   S   E   M   E   M   E   M   E   3   E   E   E   
M   E   M   E   M   E   3   E   E   B   B   E   B   E   B   E   S   E   S   E   
M   E   M   E   E   M   M   M   M   M   M   M   M   M   M   M   M   M   M   M   
M   M   M   M   M   M   M   M   M   M   M   M   M   M   M   M   M   M   M   M   
M   M   M   M   M   M   M   M   M   M   S   E   E   M   S   E   E   M   S   E   
E   M   S   E   E   M   S   E   E   M   S   E   E   M   S   E   E   M   S   E   
E   M   S   E   E   M   S   E   E   M   S   E   E   M   S   E   E   M   S   E   
E   M   S   E   E   M   S   E   E   M   S   E   E   M   S   E   E   M   S   E   
E   M   S   E   E   M   S   E   E   M   S   E   E   M   S   E   E   M   S   E   
E   M   S   E   E   M   S   E   E   M   S   E   E   M   S   E   E   M   S   E   
E   M   S   E   E   M   S   E   E   M   S   E   E   M   S   E   E   M   S   E   
E   M   S   E   E   M   S   E   E   M   S   E   E   M   S   E   E   M   S   E   
E   M   S   E   E   M   S   E   E   M   S   E   E   M   S   E   E   M   S   E   
E   M   S   E   E   M   S   E   E   M   S   E   E   M   S   E   E   M   S   E   
E   M   S   E   E   M   S   E   E   M   S   E   E   M   S   E   E   M   S   E   
E   M   S   E   E   M   S   E   E   M   S   E   E   M   S   E   E   M   S   E   
E   M   S   E   E   M   S   E   E   M   S   E   E   M   S   E   E   M   S   E   
E   M   S   E   E   M   S   E   E   M   S   E   E   M   S   E   E   M   S   E   
E   M   S   E   E   M   S   E   E   M   S   E   E   M   S   E   E   M   S   E   
E   M   S   E   E   M   S   E   E   M   S   E   E   M   S   E   E   M   S   E   
E   M   S   E   E   M   S   E   E   M   S   E   E   M   S   E   E   M   S   E   
E   M   S   E   E   M   S   E   E   M   S   E   E   M   S   E   E   M   S   E   
E   M   S   E   E   M   S   E   E   M   S   E   E   M   S   E   E   M   S   E   
E   M   S   E   E   M   S   E   E   M   S   E   E   M   S   E   E   M   S   E   
E   M   S   E   E   M   S   E   E   M   S   E   E   M   S   E   E   M   S   E   
E   M   S   E   E   M   S   E   E   M   S   E   E   M   S   E   E   M   S   E   
E   M   S   E   E   M   S   E   E   M   S   E   E   M   S   E   E   M   S   E   
E   M   S   E   E   M   S   E   E   M   S   E   E   M   S   E   E   M   S   E   
E   M   S   E   E   M   S   E   E   M   S   E   E   M   S   E   E   M   S   E   
E   M   S   E   E   M   S   E   E   M   S   E   E   M   S   E   E   M   S   E   
E   M   S   E   E   M   S   E   E   M   S   E   E   M   S   E   E   M   S   E   
E   M   S   E   E   M   S   E   E   M   S   E   E   M   S   E   E   M   S   E   
E   M   S   E   E   M   S   E   E   M   S   E   E   M   S   E   E   M   S   E   
E   M   S   E   E   M   S   E   E   M   S   E   E   M   S   E   E   M   S   E   
E   M   S   E   E   M   S   E   E   M   S   E   E   M   S   E   E   M   S   E   
E   M   S   E   E   M   S   E   E   M   S   E   E   M   S   E   E   M   S   E   
E   M   S   E   E   M   S   E   E   M   S   E   E   M   S   E   E   M   S   E   
E   M   S   E   E   M   S   E   E   M   S   E   E   M   S   E   E   M   S   E   
E   M   S   E   E   M   S   E   E   M   S   E   E   M   S   E   E   M   S   E   
E   M   S   E   E   M   S   E   E   M   S   E   E   M   S   E   E   M   S   E   
E   M   S   E   E   M   S   E   E   M   S   E   E   M   S   E   E   M   S   E   
E   M   S   E   E   M   S   E   E   M   S   E   E   M   S   E   E   M   S   E   
E   M   S   E   E   M   S   E   E   M   S   E   E   M   S   E   E   M   S   E   
E   M   S   E   E   M   S   E   E   M   S   E   E   M   S   E   E   M   S   E   
E   M   S   E   E   M   S   E   E   M   S   E   E   M   S   E   E   M   S   E   
E   M   S   E   E   M   S   E   E   M   S   E   E   M   S   E   E   M   S   E   
E   M   S   E   E   M   S   E   E   M   S   E   E   M   S   E   E   M   S   E   
E   M   S   E   E   M   S   E   E   M   S   E   E   M   S   E   E   M   S   E   
E   M   S   E   E   M   S   E   E   M   S   E   E   M   S   E   E   M   S   E   
E   M   S   E   E   M   S   E   E   M   S   E   E   M   S   E   E   M   S   E   
E   M   S   E   E   M   S   E   E   M   S   E   E   M   S   E   E   M   S   E   
E   M   S   E   E   M   S   E   E   M   S   E   E   M   S   E   E   M   S   E   
E   M   S   E   E   M   S   E   E   M   S   E   E   M   S   E   E   M   S   E   
E   M   S   E   E   M   S   E   E   M   S   E   E   M   S   E   E   M   S   E   
E   M   S   E   E   M   S   E   E   M   S   E   E   M   S   E   E   M   S   E   
E   M   S   E   E   M   S   E   E   M   S   E   E   M   S   E   E   M   S   E   
E   M   S   E   E   M   S   E   E   M   S   E   E   M   S   E   E   M   S   E   
E   M   S   E   E   M   S   E   E   M   S   E   E   M   S   E   E   M   S   E   
E   M   S   E   E   M   S   E   E   M   S   E   E   M   S   E   E   M   S   E   
E   M   S   E   E   M   S   E   E   M   S   E   E   M   S   E   E   M   S   E   
E   M   S   E   E   M   S   E   E   M   S   E   E   M   S   E   E   M   S   E   
E   M   S   E   E   M   S   E   E   M   S   E   E   M   S   E   E   M   S   E   
E   M   S   E   E   M   S   E   E   M   S   E   E   M   S   E   E   M   S   E   
E   M   S   E   E   M   S   E   E   M   S   E   E   M   S   E   E   M   S   E   
E   M   S   E   E   M   S   E   E   M   S   E   E   M   S   E   E   M   S   E   
E   M   S   E   E   M   S   E   E   M   S   E   E   M   S   E   E   M   S   E   
E   M   S   E   E   M   S   E   E   M   S   E   E   M   S   E   E   M   S   E   
E   M   S   E   E   M   S   E   E   M   S   E   E   M   S   E   E   M   S   E   
E   M   S   E   E   M   S   E   E   M   S   E   E   M   S   E   E   M   S   E   
E   M   S   E   E   M   S   E   E   M   S   E   E   M   S   E   E   M   S   E   
E   M   S   E   E   M   S   E   E   M   S   E   E   M   S   E   E   M   S   E   
E   M   S   E   E   M   S   E   E   M   S   E   E   M   S   E   E   M   S   E   
E   M   S   E   E   M   S   E   E   M   S   E   E   M   S   E   E   M   S   E   
E   M   S   E   E   M   S   E   E   M   S   E   E   M   S   E   E   M   S   E   
E   M   S   E   E   M   S   E   E   M   S   E   E   M   S   E   E   M   S   E   
E   M   S   E   E   M   S   E   E   M   S   E   E   M   S   E   E   M   S   E   
E   M   S   E   E   M   S   E   E   M   S   E   E   M   S   E   E   M   S   E   
E   M   S   E   E   M   S   E   E   M   S   E   E   M   S   E   E   M   S   E   
E   M   S   E   E   M   S   E   E   M   S   E   E   M   S   E   E   M   S   E   
E   M   S   E   E   M   S   E   E   M   S   E   E   M   S   E   E   M   S   E   
E   M   S   E   E   M   S   E   E   M   S   E   E   M   S   E   E   M   S   E   
E   M   S   E   E   M   S   E   E   M   S   E   E   M   S   E   E   M   S   E   
E   M   S   E   E   M   S   E   E   M   S   E   E   M   S   E   E   M   S   E   
E   M   S   E   E   M   S   E   E   M   S   E   E   M   S   E   E   M   S   E   
E   M   S   E   E   M   S   E   E   M   S   E   E   M   S   E   E   M   S   E   
E   M   S   E   E   M   S   E   E   M   S   E   E   M   S   E   E   M   S   E   
E   M   S   E   E   M   S   E   E   M   S   E   E   M   S   E   E   M   S   E   
E   M   S   E   E   M   S   E   E   M   S   E   E   M   S   E   E   M   S   E   
E   M   S   E   E   M   S   E   E   M   S   E   E   M   S   E   E   M   S   E   
E   M   S   E   E   M   S   E   E   M   S   E   E   M   S   E   E   M   S   E   
E   M   S   E   E   M   S   E   E   M   S   E   E   M   S   E   E   M   S   E   
E   M   S   E   E   M   S   E   E   M   S   E   E   M   S   E   E   M   S   E   
E   M   S   E   E   M   S   E   E   M   S   E   E   M   S   E   E   M   S   E   
E   M   S   E   E   M   S   E   E   M   S   E   E   M   S   E   E   M   S   E   
E   M   S   E   E   M   S   E   E   M   S   E   E   M   S   E   E   M   S   E   
E   M   S   E   E   M   S   E   E   M   S   E   E   M   S   E   E   M   S   E   
E   M   S   E   E   M   S   E   E   M   S   E   E   M   S   E   E   M   S   E   
E   M   S   E   E   M   S   E   E   M   S   E   E   M   S   E   E   M   S   E   
E   M   S   E   E   M   S   E   E   M   S   E   E   M   S   E   E   M   S   E   
E   M   S   E   E   M   S   E   E   M   S   E   E   M   S   E   E   M   S   E   
E   M   S   E   E   M   S   E   E   M   S   E   E   M   S   E   E   M   S   E   
E   M   S   E   E   M   S   E   E   M   S   E   E   M   S   E   E   M   S   E   
E   M   S   E   E   M   S   E   E   M   S   E   E   M   S   E   E   M   S   E   
E   M   S   E   E   M   S   E   E   M   S   E   E   M   S   E   E   M   S   E   
E   M   S   E   E   M   S   E   E   M   S   E   E   M   S   E   E   M   S   E   
E   M   S   E   E   M   S   E   E   M   S   E   E   M   S   E   E   M   S   E   
E   M   S   E   E   M   S   E   E   M   S   E   E   M   S   E   E   M   S   E   
E   M   S   E   E   M   S   E   E   M   S   E   E   M   S   E   E   M   S   E   
E   M   S   E   E   M   S   E   E   M   S   E   E   M   S   E   E   M   S   E   
E   M   S   E   E   M   S   E   E   M   S   E   E   M   S   E   E   M   S   E   
E   M   S   E   E   M   S   E   E   M   S   E   E   M   S   E   E   M   S   E   
E   M   S   E   E   M   S   E   E   M   S   E   E   M   S   E   E   M   S   E   
E   M   S   E   E   M   S   E   E   M   S   E   E   M   S   E   E   M   S   E   
E   M   S   E   E   M   S   E   E   M   S   E   E   M   S   E   E   M   S   E   
E   M   S   E   E   M   S   E   E   M   S   E   E   M   S   E   E   M   S   E   
E   M   S   E   E   M   S   E   E   M   S   E   E   M   S   E   E   M   S   E   
E   M   S   E   E   M   S   E   E   M   S   E   E   M   S   E   E   M   S   E   
E   M   S   E   E   M   S   E   E   M   S   E   E   M   S   E   E   M   S   E   
E   M   S   E   E   M   S   E   E   M   S   E   E   M   S   E   E   M   S   E   
E   M   S   E   E   M   S   E   E   M   S   E   E   M   S   E   E   M   S   E   
E   M   S   E   E   M   S   E   E   M   S   E   E   M   S   E   E   M   S   E   
E   M   S   E   E   M   S   E   E   M   S   E   E   M   S   E   E   M   S   E   
E   M   S   E   E   M   S   E   E   M   S   E   E   M   S   E   E   M   S   E   
E   M   S   E   E   M   S   E   E   M   S   E   E   M   S   E   E   M   S   E   
E   M   S   E   E   M   S   E   E   M   S   E   E   M   S   E   E   M   S   E   
E   M   S   E   E   M   S   E   E   M   S   E   E   M   S   E   E   M   S   E   
E   M   S   E   E   M   S   E   E   M   S   E   E   M   S   E   E   M   S   E   
E   M   S   E   E   M   S   E   E   M   S   E   E   M   S   E   E   M   S   E   
E   M   S   E   E   M   S   E   E   M   S   E   E   M   S   E   E   M   S   E   
E   M   S   E   E   M   S   E   E   M   S   E   E   M   S   E   E   M   S   E   
E   M   S   E   E   M   S   E   E   M   S   E   E   M   S   E   E   M   S   E   
E   M   S   E   E   M   S   E   E   M   S   E   E   M   S   E   E   M   S   E   
E   M   S   E   E   M   S   E   E   M   S   E   E   M   S   E   E   M   S   E   
E   M   S   E   E   M   S   E   E   M   S   E   E   M   S   E   E   M   S   E   
E   M   S   E   E   M   S   E   E   M   S   E   E   M   S   E   E   M   S   E   
E   M   S   E   E   M   S   E   E   M   S   E   E   M   S   E   E   M   S   E   
E   M   S   E   E   M   S   E   E   M   S   E   E   M   S   E   E   M   S   E   
E   M   S   E   E   M   S   E   E   M   S   E   E   M   S   E   E   M   S   E   
E   M   S   E   E   M   S   E   E   M   S   E   E   M   S   E   E   M   S   E   
E   M   S   E   E   M   S   E   E   M   S   E   E   M   S   E   E   M   S   E   
E   M   S   E   E   M   S   E   E   M   S   E   E   M   S   E   E   M   S   E   
E   M   S   E   E   M   S   E   E   M   S   E   E   M   S   E   E   M   S   E   
E   M   S   E   E   M   S   E   E   M   S   E   E   M   S   E   E   M   S   E   
E   M   S   E   E   M   S   E   E   M   S   E   E   M   S   E   E   M   S   E   
E   M   S   E   E   M   S   E   E   M   S   E   E   M   S   E   E   M   S   E   
E   M   S   E   E   M   S   E   E   M   S   E   E   M   S   E   E   M   S   E   
E   M   S   E   E   M   S   E   E   M   S   E   E   M   S   E   E   M   S   E   
E   M   S   E   E   M   S   E   E   M   S   E   E   M   S   E   E   M   S   E   
E   M   S   E   E   M   S   E   E   M   S   E   E   M   S   E   E   M   S   E   
E   M   S   E   E   M   S   E   E   M   S   E   E   M   S   E   E   M   S   E   
E   M   S   E   E   M   S   E   E   M   S   E   E   M   S   E   E   M   S   E   
E   M   S   E   E   M   S   E   E   M   S   E   E   M   S   E   E   M   S   E   
E   M   S   E   E   M   S   E   E   M   S   E   E   M   S   E   E   M   S   E   
E   M   S   E   E   M   S   E   E   M   S   E   E   M   S   E   E   M   S   E   
E   M   S   E   E   M   S   E   E   M   S   E   E   M   S   E   E   M   S   E   
E   M   S   E   E   M   S   E   E   M   S   E   E   M   S   E   E   M   S   E   
E   M   S   E   E   M   S   E   E   M   S   E   E   M   S   E   E   M   S   E   
E   M   S   E   E   M   S   E   E   M   S   E   E   M   S   E   E   M   S   E   
E   M   S   E   E   M   S   E   E   M   S   E   E   M   S   E   E   M   S   E   
E   M   S   E   E   M   S   E   E   M   S   E   E   M   S   E   E   M   S   E   
E   M   S   E   E   M   S   E   E   M   S   E   E   M   S   E   E   M   S   E   
E   M   S   E   E   M   S   E   E   M   S   E   E   M   S   E   E   M   S   E   
E   M   S   E   E   M   S   E   E   M   S   E   E   M   S   E   E   M   S   E   
E   M   S   E   E   M   S   E   E   M   S   E   E   M   S   E   E   M   S   E   
E   M   S   E   E   M   S   E   E   M   S   E   E   M   S   E   E   M   S   E   
E   M   S   E   E   M   S   E   E   M   S   E   E   M   S   E   E   M   S   E   
E   M   S   E   E   M   S   E   E   M   S   E   E   M   S   E   E   M   S   E   
E   M   S   E   E   M   S   E   E   M   S   E   E   M   S   E   E   M   S   E   
E   M   S   E   E   M   S   E   E   M   S   E   E   M   S   E   E   M   S   E   
E   M   S   E   E   M   S   E   E   M   S   E   E   M   S   E   E   M   S   E   
E   M   S   E   E   M   S   E   E   M   S   E   E   M   S   E   E   M   S   E   
E   M   S   E   E   M   S   E   E   M   S   E   E   M   S   E   E   M   S   E   
E   M   S   E   E   M   S   E   E   M   S   E   E   M   S   E   E   M   S   E   
E   M   S   E   E   M   S   E   E   M   S   E   E   M   S   E   E   M   S   E   
E   M   S   E   E   M   S   E   E   M   S   E   E   M   S   E   E   M   S   E   
E   M   S   E   E   M   S   E   E   M   S   E   E   M   S   E   E   M   S   E   
E   M   S   E   E   M   S   E   E   M   S   E   E   M   S   E   E   M   S   E   
E   M   S   E   E   M   S   E   E   M   S   E   E   M   S   E   E   M   S   E   
E   M   S   E   E   M   S   E   E   M   S   E   E   M   S   E   E   M   S   E   
E   M   S   E   E   M   S   E   E   M   S   E   E   M   S   E   E   M   S   E   
E   M   S   E   E   M   S   E   E   M   S   E   E   M   S   E   E   M   S   E   
E   M   S   E   E   M   S   E   E   M   S   E   E   M   S   E   E   M   S   E   
E   M   S   E   E   M   S   E   E   M   S   E   E   M   S   E   E   M   S   E   
E   M   S   E   E   M   S   E   E   M   S   E   E   M   S   E   E   M   S   E   
E   M   S   E   E   M   S   E   E   M   S   E   E   M   S   E   E   M   S   E   
E   M   S   E   E   M   S   E   E   M   S   E   E   M   S   E   E   M   S   E   
E   M   S   E   E   M   S   E   E   M   S   E   E   M   S   E   E   M   S   E   
E   M   S   E   E   M   S   E   E   M   S   E   E   M   S   E   E   M   S   E   
E   M   S   E   E   M   S   E   E   M   S   E   E   M   S   E   E   M   S   E   
E   M   S   E   E   M   S   E   E   M   S   E   E   M   S   E   E   M   S   E   
E   M   S   E   E   M   S   E   E   M   S   E   E   M   S   E   E   M   S   E   
E   M   S   E   E   M   S   E   E   M   S   E   E   M   S   E   E   M   S   E   
E   M   S   E   E   M   S   E   E   M   S   E   E   M   S   E   E   M   S   E   
E   M   S   E   E   M   S   E   E   M   S   E   E   M   S   E   E   M   S   E   
E   M   S   E   E   M   S   E   E   M   S   E   E   M   S   E   E   M   S   E   
E   M   S   E   E   M   S   E   E   M   S   E   E   M   S   E   E   M   S   E   
E   M   S   E   E   M   S   E   E   M   S   E   E   M   S   E   E   M   S   E   
E   M   S   E   E   M   S   E   E   M   S   E   E   M   S   E   E   M   S   E   
E   M   S   E   E   M   S   E   E   M   S   E   E   M   S   E   E   M   S   E   
E   M   S   E   E   M   S   E   E   M   S   E   E   M   S   E   E   M   S   E   
E   M   S   E   E   M   S   E   E   M   S   E   E   M   S   E   E   M   S   E   
E   M   S   E   E   M   S   E   E   M   S   E   E   M   S   E   E   M   S   E   
E   M   S   E   E   M   S   E   E   M   S   E   E   M   S   E   E   M   S   E   
E   M   S   E   E   M   S   E   E   M   S   E   E   M   S   E   E   M   S   E   
E   M   S   E   E   M   S   E   E   M   S   E   E   M   S   E   E   M   S   E   
E   M   S   E   E   M   S   E   E   M   S   E   E   M   S   E   E   M   S   E   
E   M   S   E   E   M   S   E   E   M   S   E   E   M   S   E   E   M   S   E   
E   M   S   E   E   M   S   E   E   M   S   E   E   M   S   E   E   M   S   E   
E   M   S   E   E   M   S   E   E   M   S   E   E   M   S   E   E   M   S   E   
E   M   S   E   E   M   S   E   E   M   S   E   E   M   S   E   E   M   S   E   
E   M   S   E   E   M   S   E   E   M   S   E   E   M   S   E   E   M   S   E   
E   M   S   E   E   M   S   E   E   M   S   E   E   M   S   E   E   M   S   E   
E   M   S   E   E   M   S   E   E   M   S   E   E   M   S   E   E   M   S   E   
E   M   S   E   E   M   S   E   E   M   S   E   E   M   S   E   E   M   S   E   
E   M   S   E   E   M   S   E   E   M   S   E   E   M   S   E   E   M   S   E   
E   M   S   E   E   M   S   E   E   M   S   E   E   M   S   E   E   M   S   E   
E   M   S   E   E   M   S   E   E   M   S   E   E   M   S   E   E   M   S   E   
E   M   S   E   E   M   S   E   E   M   S   E   E   M   S   E   E   M   S   E   
E   M   S   E   E   M   S   E   E   M   S   E   E   M   S   E   E   M   S   E   
E   M   S   E   E   M   S   E   E   M   S   E   E   M   S   E   E   M   S   E   
E   M   S   E   E   M   S   E   E   M   S   E   E   M   S   E   E   M   S   E   
E   M   S   E   E   M   S   E   E   M   S   E   E   M   S   E   E   M   S   E   
E   M   S   E   E   M   S   E   E   M   S   E   E   M   S   E   E   M   S   E   
E   M   S   E   E   M   S   E   E   M   S   E   E   M   S   E   E   M   S   E   
E   M   S   E   E   M   S   E   E   M   S   E   E   M   S   E   E   M   S   E   
E   M   S   E   E   M   S   E   E   M   S   E   E   M   S   E   E   M   S   E   
E   M   S   E   E   M   S   E   E   M   S   E   E   M   S   E   E   M   S   E   
E   M   S   E   E   M   S   E   E   M   S   E   E   M   S   E   E   M   S   E   
E   M   S   E   E   M   S   E   E   M   S   E   E   M   S   E   E   M   S   E   
E   M   S   E   E   M   S   E   E   M   S   E   E   M   S   E   E   M   S   E   
E   M   S   E   E   M   S   E   E   M   S   E   E   M   S   E   E   M   S   E   
E   M   S   E   E   M   S   E   E   M   S   E   E   M   S   E   E   M   S   E   
E   M   S   E   E   M   S   E   E   M   S   E   E   M   S   E   E   M   S   E   
E   M   S   E   E   M   S   E   E   M   S   E   E   M   S   E   E   M   S   E   
E   M   S   E   E   M   S   E   E   M   S   E   E   M   S   E   E   M   S   E   
E   M   S   E   E   M   S   E   E   M   S   E   E   M   S   E   E   M   S   E   
E   M   S   E   E   M   S   E   E   M   S   E   E   M   S   E   E   M   S   E   
E   M   S   E   E   M   S   E   E   M   S   E   E   M   S   E   E   M   S   E   
E   M   S   E   E   M   S   E   E   M   S   E   E   M   S   E   E   M   S   E   
E   M   S   E   E   M   S   E   E   M   S   E   E   M   S   E   E   M   S   E   
E   M   S   E   E   M   S   E   E   M   S   E   E   M   S   E   E   M   S   E   
E   M   S   E   E   M   S   E   E   M   S   E   E   M   S   E   E   M   S   E   
E   M   S   E   E   M   S   E   E   M   S   E   E   M   S   E   E   M   S   E   
E   M   S   E   E   M   S   E   E   M   S   E   E   M   S   E   E   M   S   E   
E   M   S   E   E   M   S   E   E   M   S   E   E   M   S   E   E   M   S   E   
E   M   S   E   E   M   S   E   E   M   S   E   E   M   S   E   E   M   S   E   
E   M   S   E   E   M   S   E   E   M   S   E   E   M   S   E   E   M   S   E   
E   M   S   E   E   M   S   E   E   M   S   E   E   M   S   E   E   M   S   E   
E   M   S   E   E   M   S   E   E   M   S   E   E   M   S   E   E   M   S   E   
E   M   S   E   E   M   S   E   E   M   S   E   E   M   S   E   E   M   S   E   
E   M   S   E   E   M   S   E   E   M   S   E   E   M   S   E   E   M   S   E   
E   M   S   E   E   M   S   E   E   M   S   E   E   M   S   E   E   M   S   E   
E   M   S   E   E   M   S   E   E   M   S   E   E   M   S   E   E   M   S   E   
E   M   S   E   E   M   S   E   E   M   S   E   E   M   S   E   E   M   S   E   
E   M   S   E   E   M   S   E   E   M   S   E   E   M   S   E   E   M   S   E   
E   M   S   E   E   M   S   E   E   M   S   E   E   M   S   E   E   M   S   E   
E   M   S   E   E   M   S   E   E   M   S   E   E   M   S   E   E   M   S   E   
E   M   S   E   E   M   S   E   E   M   S   E   E   M   S   E   E   M   S   E   
E   M   S   E   E   M   S   E   E   M   S   E   E   M   S   E   E   M   S   E   
E   M   S   E   E   M   S   E   E   M   S   E   E   M   S   E   E   M   S   E   
E   M   S   E   E   M   S   E   E   M   S   E   E   M   S   E   E   M   S   E   
E   M   S   E   E   M   S   E   E   M   S   E   E   M   S   E   E   M   S   E   
E   M   S   E   E   M   S   E   E   M   S   E   E   M   S   E   E   M   S   E   
E   M   S   E   E   M   S   E   E   M   S   E   E   M   S   E   E   M   S   E   
E   M   S   E   E   M   S   E   E   M   S   E   E   M   S   E   E   M   S   E   
E   M   S   E   E   M   S   E   E   M   S   E   E   M   S   E   E   M   S   E   
E   M   S   E   E   M   S   E   E   M   S   E   E   M   S   E   E   M   S   E   
E   M   S   E   E   M   S   E   E   M   S   E   E   M   S   E   E   M   S   E   
E   M   S   E   E   M   S   E   E   M   S   E   E   M   S   E   E   M   S   E   
E   M   S   E   E   M   S   E   E   M   S   E   E   M   S   E   E   M   S   E   
E   M   S   E   E   M   S   E   E   M   S   E   E   M   S   E   E   M   S   E   
E   M   S   E   E   M   S   E   E   M   S   E   E   M   S   E   E   M   S   E   
E   M   S   E   E   M   S   E   E   M   S   E   E   M   S   E   E   M   S   E   
E   M   S   E   E   M   S   E   E   M   S   E   E   M   S   E   E   M   S   E   
E   M   S   E   E   M   S   E   E   M   S   E   E   M   S   E   E   M   S   E   
E   M   S   E   E   M   S   E   E   M   S   E   E   M   S   E   E   M   S   E   
E   M   S   E   E   M   S   E   E   M   S   E   E   M   S   E   E   M   S   E   
E   M   S   E   E   M   S   E   E   M   S   E   E   M   S   E   E   M   S   E   
E   M   S   E   E   M   S   E   E   M   S   E   E   M   S   E   E   M   S   E   
E   M   S   E   E   M   S   E   E   M   S   E   E   M   S   E   E   M   S   E   
E   M   S   E   E   M   S   E   E   M   S   E   E   M   S   E   E   M   S   E   
E   M   S   E   E   M   S   E   E   M   S   E   E   M   S   E   E   M   S   E   
E   M   S   E   E   M   S   E   E   M   S   E   E   M   S   E   E   M   S   E   
E   M   S   E   E   M   S   E   E   M   S   E   E   M   S   E   E   M   S   E   
E   M   S   E   E   M   S   E   E   M   S   E   E   M   S   E   E   M   S   E   
E   M   S   E   E   M   S   E   E   M   S   E   E   M   S   E   E   M   S   E   
E   M   S   E   E   M   S   E   E   M   S   E   E   M   S   E   E   M   S   E   
E   M   S   E   E   M   S   E   E   M   S   E   E   M   S   E   E   M   S   E   
E   M   S   E   E   M   S   E   E   M   S   E   E   M   S   E   E   M   S   E   
E   M   S   E   E   M   S   E   E   M   S   E   E   M   S   E   E   M   S   E   
E   M   S   E   E   M   S   E   E   M   S   E   E   M   S   E   E   M   S   E   
E   M   S   E   E   M   S   E   E   M   S   E   E   M   S   E   E   M   S   E   
E   M   S   E   E   M   S   E   E   M   S   E   E   M   S   E   E   M   S   E   
E   M   S   E   E   M   S   E   E   M   S   E   E   M   S   E   E   M   S   E   
E   M   S   E   E   M   S   E   E   M   S   E   E   M   S   E   E   M   S   E   
E   M   S   E   E   M   S   E   E   M   S   E   E   M   S   E   E   M   S   E   
E   M   S   E   E   M   S   E   E   M   S   E   E   M   S   E   E   M   S   E   
E   M   S   E   E   M   S   E   E   M   S   E   E   M   S   E   E   M   S   E   
E   M   S   E   E   M   S   E   E   M   S   E   E   M   S   E   E   M   S   E   
E   M   S   E   E   M   S   E   E   M   S   E   E   M   S   E   E   M   S   E   
E   M   S   E   E   M   S   E   E   M   S   E   E   M   S   E   E   M   S   E   
E   M   S   E   E   M   S   E   E   M   S   E   E   M   S   E   E   M   S   E   
E   M   S   E   E   M   S   E   E   M   S   E   E   M   S   E   E   M   S   E   
E   M   S   E   E   M   S   E   E   M   S   E   E   M   S   E   E   M   S   E   
E   M   S   E   E   M   S   E   E   M   S   E   E   M   S   E   E   M   S   E   
E   M   S   E   E   M   S   E   E   M   S   E   E   M   S   E   E   M   S   E   
E   M   S   E   E   M   S   E   E   M   S   E   E   M   S   E   E   M   S   E   
E   M   S   E   E   M   S   E   E   M   S   E   E   M   S   E   E   M   S   E   
E   M   S   E   E   M   S   E   E   M   S   E   E   M   S   E   E   M   S   E   
E   M   S   E   E   M   S   E   E   M   S   E   E   M   S   E   E   M   S   E   
E   M   S   E   E   M   S   E   E   M   S   E   E   M   S   E   E   M   S   E   
E   M   S   E   E   M   S   E   E   M   S   E   E   M   S   E   E   M   S   E   
E   M   S   E   E   M   S   E   E   M   S   E   E   M   S   E   E   M   S   E   
E   M   S   E   E   M   S   E   E   M   S   E   E   M   S   E   E   M   S   E   
E   M   S   E   E   M   S   E   E   M   S   E   E   M   S   E   E   M   S   E   
E   M   S   E   E   M   S   E   E   M   S   E   E   M   S   E   E   M   S   E   
E   M   S   E   E   M   S   E   E   M   S   E   E   M   S   E   E   M   S   E   
E   M   S   E   E   M   S   E   E   M   S   E   E   M   S   E   E   M   S   E   
E   M   S   E   E   M   S   E   E   M   S   E   E   M   S   E   E   M   S   E   
E   M   S   E   E   M   S   E   E   M   S   E   E   M   S   E   E   M   S   E   
E   M   S   E   E   M   S   E   E   M   S   E   E   M   S   E   E   M   S   E   
E   M   S   E   E   M   S   E   E   M   S   E   E   M   S   E   E   M   S   E   
E   M   S   E   E   M   S   E   E   M   S   E   E   M   S   E   E   M   S   E   
E   M   S   E   E   M   S   E   E   M   S   E   E   M   S   E   E   M   S   E   
E   M   S   E   E   M   S   E   E   M   S   E   E   M   S   E   E   M   S   E   
E   M   S   E   E   M   S   E   E   M   S   E   E   M   S   E   E   M   S   E   
E   M   S   E   E   M   S   E   E   M   S   E   E   M   S   E   E   M   S   E   
E   M   S   E   E   M   S   E   E   M   S   E   E   M   S   E   E   M   S   E   
E   M   S   E   E   M   S   E   E   M   S   E   E   M   S   E   E   M   S   E   
E   M   S   E   E   M   S   E   E   M   S   E   E   M   S   E   E   M   S   E   
E   M   S   E   E   M   S   E   E   M   S   E   E   M   S   E   E   M   S   E   
E   M   S   E   E   M   S   E   E   M   S   E   E   M   S   E   E   M   S   E   
E   M   S   E   E   M   S   E   E   M   S   E   E   M   S   E   E   M   S   E   
E   M   S   E   E   M   S   E   E   M   S   E   E   M   S   E   E   M   S   E   
E   M   S   E   E   M   S   E   E   M   S   E   E   M   S   E   E   M   S   E   
E   M   S   E   E   M   S   E   E   M   S   E   E   M   S   E   E   M   S   E   
E   M   S   E   E   M   S   E   E   M   S   E   E   M   S   E   E   M   S   E   
E   M   S   E   E   M   S   E   E   M   S   E   E   M   S   E   E   M   S   E   
E   M   S   E   E   M   S   E   E   M   S   E   E   M   S   E   E   M   S   E   
E   M   S   E   E   M   S   E   E   M   S   E   E   M   S   E   E   M   S   E   
E   M   S   E   E   M   S   E   E   M   S   E   E   M   S   E   E   M   S   E   
E   M   S   E   E   M   S   E   E   M   S   E   E   M   S   E   E   M   S   E   
E   M   S   E   E   M   S   E   E   M   S   E   E   M   S   E   E   M   S   E   
E   M   S   E   E   M   S   E   E   M   S   E   E   M   S   E   E   M   S   E   
E   M   S   E   E   M   S   E   E   M   S   E   E   M   S   E   E   M   S   E   
E   M   S   E   E   M   S   E   E   M   S   E   E   M   S   E   E   M   S   E   
E   M   S   E   E   M   S   E   E   M   S   E   E   M   S   E   E   M   S   E   
E   M   S   E   E   M   S   E   E   M   S   E   E   M   S   E   E   M   S   E   
E   M   S   E   E   M   S   E   E   M   S   E   E   M   S   E   E   M   S   E   
E   M   S   E   E   M   S   E   E   M   S   E   E   M   S   E   E   M   S   E   
E   M   S   E   E   M   S   E   E   M   S   E   E   M   S   E   E   M   S   E   
E   M   S   E   E   M   S   E   E   M   S   E   E   M   S   E   E   M   S   E   
E   M   S   E   E   M   S   E   E   M   S   E   E   M   S   E   E   M   S   E   
E   M   S   E   E   M   S   E   E   M   S   E   E   M   S   E   E   M   S   E   
E   M   S   E   E   M   S   E   E   M   S   E   E   M   S   E   E   M   S   E   
E   M   S   E   E   M   S   E   E   M   S   E   E   M   S   E   E   M   S   E   
E   M   S   E   E   M   S   E   E   M   S   E   E   M   S   E   E   M   S   E   
E   M   S   E   E   M   S   E   E   M   S   E   E   M   S   E   E   M   S   E   
E   M   S   E   E   M   S   E   E   M   S   E   E   M   S   E   E   M   S   E   
E   M   S   E   E   M   S   E   E   M   S   E   E   M   S   E   E   M   S   E   
E   M   S   E   E   M   S   E   E   M   S   E   E   M   S   E   E   M   S   E   
E   M   S   E   E   M   S   E   E   M   S   E   E   M   S   E   E   M   S   E   
E   M   S   E   E   M   S   E   E   M   S   E   E   M   S   E   E   M   S   E   
E   M   S   E   E   M   S   E   E   M   S   E   E   M   S   E   E   M   S   E   
E   M   S   E   E   M   S   E   E   M   S   E   E   M   S   E   E   M   S   E   
E   M   S   E   E   M   S   E   E   M   S   E   E   M   S   E   E   M   S   E   
E   M   S   E   E   M   S   E   E   M   S   E   E   M   S   E   E   M   S   E   
E   M   S   E   E   M   S   E   E   M   S   E   E   M   S   E   E   M   S   E   
E   M   S   E   E   M   S   E   E   M   S   E   E   M   S   E   E   M   S   E   
E   M   S   E   E   M   S   E   E   M   S   E   E   M   S   E   E   M   S   E   
E   M   S   E   E   M   S   E   E   M   S   E   E   M   S   E   E   M   S   E   
E   M   S   E   E   M   S   E   E   M   S   E   E   M   S   E   E   M   S   E   
E   M   S   E   E   M   S   E   E   M   S   E   E   M   S   E   E   M   S   E   
E   M   S   E   E   M   S   E   E   M   S   E   E   M   S   E   E   M   S   E   
E   M   S   E   E   M   S   E   E   M   S   E   E   M   S   E   E   M   S   E   
E   M   S   E   E   M   S   E   E   M   S   E   E   M   S   E   E   M   S   E   
E   M   S   E   E   M   S   E   E   M   S   E   E   M   S   E   E   M   S   E   
E   M   S   E   E   M   S   E   E   M   S   E   E   M   S   E   E   M   S   E   
E   M   S   E   E   M   S   E   E   M   S   E   E   M   S   E   E   M   S   E   
E   M   S   E   E   M   S   E   E   M   S   E   E   M   S   E   E   M   S   E   
E   M   S   E   E   M   S   E   E   M   S   E   E   M   S   E   E   M   S   E   
E   M   S   E   E   M   S   E   E   M   S   E   E   M   S   E   E   M   S   E   
E   M   S   E   E   M   S   E   E   M   S   E   E   M   S   E   E   M   S   E   
E   M   S   E   E   M   S   E   E   M   S   E   E   M   S   E   E   M   S   E   
E   M   S   E   E   M   S   E   E   M   S   E   E   M   S   E   E   M   S   E   
E   M   S   E   E   M   S   E   E   M   S   E   E   M   S   E   E   M   S   E   
E   M   S   E   E   M   S   E   E   M   S   E   E   M   S   E   E   M   S   E   
E   M   S   E   E   M   S   E   E   M   S   E   E   M   S   E   E   M   S   E   
E   M   S   E   E   M   S   E   E   M   S   E   E   M   S   E   E   M   S   E   
E   M   S   E   E   M   S   E   E   M   S   E   E   M   S   E   E   M   S   E   
E   M   S   E   E   M   S   E   E   M   S   E   E   M   S   E   E   M   S   E   
E   M   S   E   E   M   S   E   E   M   S   E   E   M   S   E   E   M   S   E   
E   M   S   E   E   M   S   E   E   M   S   E   E   M   S   E   E   M   S   E   
E   M   S   E   E   M   S   E   E   M   S   E   E   M   S   E   E   M   S   E   
E   M   S   E   E   M   S   E   E   M   S   E   E   M   S   E   E   M   S   E   
E   M   S   E   E   M   S   E   E   M   S   E   E   M   S   E   E   M   S   E   
E   M   S   E   E   M   S   E   E   M   S   E   E   M   S   E   E   M   S   E   
E   M   S   E   E   M   S   E   E   M   S   E   E   M   S   E   E   M   S   E   
E   M   S   E   E   M   S   E   E   M   S   E   E   M   S   E   E   M   S   E   
E   M   S   E   E   M   S   E   E   M   S   E   E   M   S   E   E   M   S   E   
E   M   S   E   E   M   S   E   E   M   S   E   E   M   S   E   E   M   S   E   
E   M   S   E   E   M   S   E   E   M   S   E   E   M   S   E   E   M   S   E   
E   M   S   E   E   M   S   E   E   M   S   E   E   M   S   E   E   M   S   E   
E   M   S   E   E   M   S   E   E   M   S   E   E   M   S   E   E   M   S   E   
E   M   S   E   E   M   S   E   E   M   S   E   E   M   S   E   E   M   S   E   
E   M   S   E   E   M   S   E   E   M   S   E   E   M   S   E   E   M   S   E   
E   M   S   E   E   M   S   E   E   M   S   E   E   M   S   E   E   M   S   E   
E   M   S   E   E   M   S   E   E   M   S   E   E   M   S   E   E   M   S   E   
E   M   S   E   E   M   S   E   E   M   S   E   E   M   S   E   E   M   S   E   
E   M   S   E   E   M   S   E   E   M   S   E   E   M   S   E   E   M   S   E   
E   M   S   E   E   M   S   E   E   M   S   E   E   M   S   E   E   M   S   E   
E   M   S   E   E   M   S   E   E   M   S   E   E   M   S   E   E   M   S   E   
E   M   S   E   E   M   S   E   E   M   S   E   E   M   S   E   E   M   S   E   
E   M   S   E   E   M   S   E   E   M   S   E   E   M   S   E   E   M   S   E   
E   M   S   E   E   M   S   E   E   M   S   E   E   M   S   E   E   M   S   E   
E   M   S   E   E   M   S   E   E   M   S   E   E   M   S   E   E   M   S   E   
E   M   S   E   E   M   S   E   E   M   S   E   E   M   S   E   E   M   S   E   
E   M   S   E   E   M   S   E   E   M   S   E   E   M   S   E   E   M   S   E   
E   M   S   E   E   M   S   E   E   M   S   E   E   M   S   E   E   M   S   E   
E   M   S   E   E   M   S   E   E   M   S   E   E   M   S   E   E   M   S   E   
E   M   S   E   E   M   S   E   E   M   S   E   E   M   S   E   E   M   S   E   
E   M   S   E   E   M   S   E   E   M   S   E   E   M   S   E   E   M   S   E   
E   M   S   E   E   M   S   E   E   M   S   E   E   M   S   E   E   M   S   E   
E   M   S   E   E   M   S   E   E   M   S   E   E   M   S   E   E   M   S   E   
E   M   S   E   E   M   S   E   E   M   S   E   E   M   S   E   E   M   S   E   
E   M   S   E   E   M   S   E   E   M   S   E   E   M   S   E   E   M   S   E   
E   M   S   E   E   M   S   E   E   M   S   E   E   M   S   E   E   M   S   E   
E   M   S   E   E   M   S   E   E   M   S   E   E   M   S   E   E   M   S   E   
E   M   S   E   E   M   S   E   E   M   S   E   E   M   S   E   E   M   S   E   
E   M   S   E   E   M   S   E   E   M   S   E   E   M   S   E   E   M   S   E   
E   M   S   E   E   M   S   E   E   M   S   E   E   M   S   E   E   M   S   E   
E   M   S   E   E   M   S   E   E   M   S   E   E   M   S   E   E   M   S   E   
E   M   S   E   E   M   S   E   E   M   S   E   E   M   S   E   E   M   S   E   
E   M   S   E   E   M   S   E   E   M   S   E   E   M   S   E   E   M   S   E   
E   M   S   E   E   M   S   E   E   M   S   E   E   M   S   E   E   M   S   E   
E   M   S   E   E   M   S   E   E   M   S   E   E   M   S   E   E   M   S   E   
E   M   S   E   E   M   S   E   E   M   S   E   E   M   S   E   E   M   S   E   
E   M   S   E   E   M   S   E   E   M   S   E   E   M   S   E   E   M   S   E   
E   M   S   E   E   M   S   E   E   M   S   E   E   M   S   E   E   M   S   E   
E   M   S   E   E   M   S   E   E   M   S   E   E   M   S   E   E   M   S   E   
E   M   S   E   E   M   S   E   E   M   S   E   E   M   S   E   E   M   S   E   
E   M   S   E   E   M   S   E   E   M   S   E   E   M   S   E   E   M   S   E   
E   M   S   E   E   M   S   E   E   M   S   E   E   M   S   E   E   M   S   E   
E   M   S   E   E   M   S   E   E   M   S   E   E   M   S   E   E   M   S   E   
E   M   S   E   E   M   S   E   E   M   S   E   E   M   S   E   E   M   S   E   
E   M   S   E   E   M   S   E   E   M   S   E   E   M   S   E   E   M   S   E   
E   M   S   E   E   M   S   E   E   M   S   E   E   M   S   E   E   M   S   E   
E   M   S   E   E   M   S   E   E   M   S   E   E   M   S   E   E   M   S   E   
E   M   S   E   E   M   S   E   E   M   S   E   E   M   S   E   E   M   S   E   
E   M   S   E   E   M   S   E   E   M   S   E   E   M   S   E   E   M   S   E   
E   M   S   E   E   M   S   E   E   M   S   E   E   M   S   E   E   M   S   E   
E   M   S   E   E   M   S   E   E   M   S   E   E   M   S   E   E   M   S   E   
E   M   S   E   E   M   S   E   E   M   S   E   E   M   S   E   E   M   S   E   
E   M   S   E   E   M   S   E   E   M   S   E   E   M   S   E   E   M   S   E   
E   M   S   E   E   M   S   E   E   M   S   E   E   M   S   E   E   M   S   E   
E   M   S   E   E   M   S   E   E   M   S   E   E   M   S   E   E   M   S   E   
E   M   S   E   E   M   S   E   E   M   S   E   E   M   S   E   E   M   S   E   
E   M   S   E   E   M   S   E   E   M   S   E   E   M   S   E   E   M   S   E   
E   M   S   E   E   M   S   E   E   M   S   E   E   M   S   E   E   M   S   E   
E   M   S   E   E   M   S   E   E   M   S   E   E   M   S   E   E   M   S   E   
E   M   S   E   E   M   S   E   E   M   S   E   E   M   S   E   E   M   S   E   
E   M   S   E   E   M   S   E   E   M   S   E   E   M   S   E   E   M   S   E   
E   M   S   E   E   M   S   E   E   M   S   E   E   M   S   E   E   M   S   E   
E   M   S   E   E   M   S   E   E   M   S   E   E   M   S   E   E   M   S   E   
E   M   S   E   E   M   S   E   E   M   S   E   E   M   S   E   E   M   S   E   
E   M   S   E   E   M   S   E   E   M   S   E   E   M   S   E   E   M   S   E   
E   M   S   E   E   M   S   E   E   M   S   E   E   M   S   E   E   M   S   E   
E   M   S   E   E   M   S   E   E   M   S   E   E   M   S   E   E   M   S   E   
E   M   S   E   E   M   S   E   E   M   S   E   E   M   S   E   E   M   S   E   
E   M   S   E   E   M   S   E   E   M   S   E   E   M   S   E   E   M   S   E   
E   M   S   E   E   M   S   E   E   M   S   E   E   M   S   E   E   M   S   E   
E   M   S   E   E   M   S   E   E   M   S   E   E   M   S   E   E   M   S   E   
E   M   S   E   E   M   S   E   E   M   S   E   E   M   S   E   E   M   S   E   
E   M   S   E   E   M   S   E   E   M   S   E   E   M   S   E   E   M   S   E   
E   M   S   E   E   M   S   E   E   M   S   E   E   M   S   E   E   M   S   E   
E   M   S   E   E   M   S   E   E   M   S   E   E   M   S   E   E   M   S   E   
E   M   S   E   E   M   S   E   E   M   S   E   E   M   S   E   E   M   S   E   
E   M   S   E   E   M   S   E   E   M   S   E   E   M   S   E   E   M   S   E   
E   M   S   E   E   M   S   E   E   M   S   E   E   M   S   E   E   M   S   E   
E   M   S   E   E   M   S   E   E   M   S   E   E   M   S   E   E   M   S   E   
E   M   S   E   E   M   S   E   E   M   S   E   E   M   S   E   E   M   S   E   
E   M   S   E   E   M   S   E   E   M   S   E   E   M   S   E   E   M   S   E   
E   M   S   E   E   M   S   E   E   M   S   E   E   M   S   E   E   M   S   E   
E   M   S   E   E   M   S   E   E   M   S   E   E   M   S   E   E   M   S   E   
E   M   S   E   E   M   S   E   E   M   S   E   E   M   S   E   E   M   S   E   
E   M   S   E   E   M   S   E   E   M   S   E   E   M   S   E   E   M   S   E   
E   M   S   E   E   M   S   E   E   M   S   E   E   M   S   E   E   M   S   E   
E   M   S   E   E   M   S   E   E   M   S   E   E   M   S   E   E   M   S   E   
E   M   S   E   E   M   S   E   E   M   S   E   E   M   S   E   E   M   S   E   
E   M   S   E   E   M   S   E   E   M   S   E   E   M   S   E   E   M   S   E   
E   M   S   E   E   M   S   E   E   M   S   E   E   M   S   E   E   M   S   E   
E   M   S   E   E   M   S   E   E   M   S   E   E   M   S   E   E   M   S   E   
E   M   S   E   E   M   S   E   E   M   S   E   E   M   S   E   E   M   S   E   
E   M   S   E   E   M   S   E   E   M   S   E   E   M   S   E   E   M   S   E   
E   M   S   E   E   M   S   E   E   M   S   E   E   M   S   E   E   M   S   E   
E   M   S   E   E   M   S   E   E   M   S   E   E   M   S   E   E   M   S   E   
E   M   S   E   E   M   S   E   E   M   S   E   E   M   S   E   E   M   S   E   
E   M   S   E   E   M   S   E   E   M   S   E   E   M   S   E   E   M   S   E   
E   M   S   E   E   M   S   E   E   M   S   E   E   M   S   E   E   M   S   E   
E   M   S   E   E   M   S   E   E   M   S   E   E   M   S   E   E   M   S   E   
E   M   S   E   E   M   S   E   E   M   S   E   E   M   S   E   E   M   S   E   
E   M   S   E   E   M   S   E   E   M   S   E   E   M   S   E   E   M   S   E   
E   M   S   E   E   M   S   E   E   M   S   E   E   M   S   E   E   M   S   E   
E   M   S   E   E   M   S   E   E   M   S   E   E   M   S   E   E   M   S   E   
E   M   S   E   E   M   S   E   E   M   S   E   E   M   S   E   E   M   S   E   
E   M   S   E   E   M   S   E   E   M   S   E   E   M   S   E   E   M   S   E   
E   M   S   E   E   M   S   E   E   M   S   E   E   M   S   E   E   M   S   E   
E   M   S   E   E   M   S   E   E   M   S   E   E   M   S   E   E   M   S   E   
E   M   S   E   E   M   S   E   E   M   S   E   E   M   S   E   E   M   S   E   
E   M   S   E   E   M   S   E   E   M   S   E   E   M   S   E   E   M   S   E   
E   M   S   E   E   M   S   E   E   M   S   E   E   M   S   E   E   M   S   E   
E   M   S   E   E   M   S   E   E   M   S   E   E   M   S   E   E   M   S   E   
E   M   S   E   E   M   S   E   E   M   S   E   E   M   S   E   E   M   S   E   
E   M   S   E   E   M   S   E   E   M   S   E   E   M   S   E   E   M   S   E   
E   M   S   E   E   M   S   E   E   M   S   E   E   M   S   E   E   M   S   E   
E   M   S   E   E   M   S   E   E   M   S   E   E   M   S   E   E   M   S   E   
E   M   S   E   E   M   S   E   E   M   S   E   E   M   S   E   E   M   S   E   
E   M   S   E   E   M   S   E   E   M   S   E   E   M   S   E   E   M   S   E   
E   M   S   E   E   M   S   E   E   M   S   E   E   M   S   E   E   M   S   E   
E   M   S   E   E   M   S   E   E   M   S   E   E   M   S   E   E   M   S   E   
E   M   S   E   E   M   S   E   E   M   S   E   E   M   S   E   E   M   S   E   
E   M   S   E   E   M   S   E   E   M   S   E   E   M   S   E   E   M   S   E   
E   M   S   E   E   M   S   E   E   M   S   E   E   M   S   E   E   M   S   E   
E   M   S   E   E   M   S   E   E   M   S   E   E   M   S   E   E   M   S   E   
E   M   S   E   E   M   S   E   E   M   S   E   E   M   S   E   E   M   S   E   
E   M   S   E   E   M   S   E   E   M   S   E   E   M   S   E   E   M   S   E   
E   M   S   E   E   M   S   E   E   M   S   E   E   M   S   E   E   M   S   E   
E   M   S   E   E   M   S   E   E   M   S   E   E   M   S   E   E   M   S   E   
E   M   S   E   E   M   S   E   E   M   S   E   E   M   S   E   E   M   S   E   
E   M   S   E   E   M   S   E   E   M   S   E   E   M   S   E   E   M   S   E   
E   M   S   E   E   M   S   E   E   M   S   E   E   M   S   E   E   M   S   E   
E   M   S   E   E   M   S   E   E   M   S   E   E   M   S   E   E   M   S   E   
E   M   S   E   E   M   S   E   E   M   S   E   E   M   S   E   E   M   S   E   
E   M   S   E   E   M   S   E   E   M   S   E   E   M   S   E   E   M   S   E   
E   M   S   E   E   M   S   E   E   M   S   E   E   M   S   E   E   M   S   E   
E   M   S   E   E   M   S   E   E   M   S   E   E   M   S   E   E   M   S   E   
E   M   S   E   E   M   S   E   E   M   S   E   E   M   S   E   E   M   S   E   
E   M   S   E   E   M   S   E   E   M   S   E   E   M   S   E   E   M   S   E   
E   M   S   E   E   M   S   E   E   M   S   E   E   M   S   E   E   M   S   E   
E   M   S   E   E   M   S   E   E   M   S   E   E   M   S   E   E   M   S   E   
E   M   S   E   E   M   S   E   E   M   S   E   E   M   S   E   E   M   S   E   
E   M   S   E   E   M   S   E   E   M   S   E   E   M   S   E   E   M   S   E   
E   M   S   E   E   M   S   E   E   M   S   E   E   M   S   E   E   M   S   E   
E   M   S   E   E   M   S   E   E   M   S   E   E   M   S   E   E   M   S   E   
E   M   S   E   E   M   S   E   E   M   S   E   E   M   S   E   E   M   S   E   
E   M   S   E   E   M   S   E   E   M   S   E   E   M   S   E   E   M   S   E   
E   M   S   E   E   M   S   E   E   M   S   E   E   M   S   E   E   M   S   E   
E   M   S   E   E   M   S   E   E   M   S   E   E   M   S   E   E   M   S   E   
E   M   S   E   E   M   S   E   E   M   S   E   E   M   S   E   E   M   S   E   
E   M   S   E   E   M   S   E   E   M   S   E   E   M   S   E   E   M   S   E   
E   M   S   E   E   M   S   E   E   M   S   E   E   M   S   E   E   M   S   E   
E   M   S   E   E   M   S   E   E   M   S   E   E   M   S   E   E   M   S   E   
E   M   S   E   E   M   S   E   E   M   S   E   E   M   S   E   E   M   S   E   
E   M   S   E   E   M   S   E   E   M   S   E   E   M   S   E   E   M   S   E   
E   M   S   E   E   M   S   E   E   M   S   E   E   M   S   E   E   M   S   E   
E   M   S   E   E   M   S   E   E   M   S   E   E   M   S   E   E   M   S   E   
E   M   S   E   E   M   S   E   E   M   S   E   E   M   S   E   E   M   S   E   
E   M   S   E   E   M   S   E   E   M   S   E   E   M   S   E   E   M   S   E   
E   M   S   E   E   M   S   E   E   M   S   E   E   M   S   E   E   M   S   E   
E   M   S   E   E   M   S   E   E   M   S   E   E   M   S   E   E   M   S   E   
E   M   S   E   E   M   S   E   E   M   S   E   E   M   S   E   E   M   S   E   
E   M   S   E   E   M   S   E   E   M   S   E   E   M   S   E   E   M   S   E   
E   M   S   E   E   M   S   E   E   M   S   E   E   M   S   E   E   M   S   E   
E   M   S   E   E   M   S   E   E   M   S   E   E   M   S   E   E   M   S   E   
E   M   S   E   E   M   S   E   E   M   S   E   E   M   S   E   E   M   S   E   
E   M   S   E   E   M   S   E   E   M   S   E   E   M   S   E   E   M   S   E   
E   M   S   E   E   M   S   E   E   M   S   E   E   M   S   E   E   M   S   E   
E   M   S   E   E   M   S   E   E   M   S   E   E   M   S   E   E   M   S   E   
E   M   S   E   E   M   S   E   E   M   S   E   E   M   S   E   E   M   S   E   
E   M   S   E   E   M   S   E   E   M   S   E   E   M   S   E   E   M   S   E   
E   M   S   E   E   M   S   E   E   M   S   E   E   M   S   E   E   M   S   E   
E   M   S   E   E   M   S   E   E   M   S   E   E   M   S   E   E   M   S   E   
E   M   S   E   E   M   S   E   E   M   S   E   E   M   S   E   E   M   S   E   
E   M   S   E   E   M   S   E   E   M   S   E   E   M   S   E   E   M   S   E   
E   M   S   E   E   M   S   E   E   M   S   E   E   M   S   E   E   M   S   E   
E   M   S   E   E   M   S   E   E   M   S   E   E   M   S   E   E   M   S   E   
E   M   S   E   E   M   S   E   E   M   S   E   E   M   S   E   E   M   S   E   
E   M   S   E   E   M   S   E   E   M   S   E   E   M   S   E   E   M   S   E   
E   M   S   E   E   M   S   E   E   M   S   E   E   M   S   E   E   M   S   E   
E   M   S   E   E   M   S   E   E   M   S   E   E   M   S   E   E   M   S   E   
E   M   S   E   E   M   S   E   E   M   S   E   E   M   S   E   E   M   S   E   
E   M   S   E   E   M   S   E   E   M   S   E   E   M   S   E   E   M   S   E   
E   M   S   E   E   M   S   E   E   M   S   E   E   M   S   E   E   M   S   E   
E   M   S   E   E   M   S   E   E   M   S   E   E   M   S   E   E   M   S   E   
E   M   S   E   E   M   S   E   E   M   S   E   E   M   S   E   E   M   S   E   
E   M   S   E   E   M   S   E   E   M   S   E   E   M   S   E   E   M   S   E   
E   M   S   E   E   M   S   E   E   M   S   E   E   M   S   E   E   M   S   E   
E   M   S   E   E   M   S   E   E   M   S   E   E   M   S   E   E   M   S   E   
E   M   S   E   E   M   S   E   E   M   S   E   E   M   S   E   E   M   S   E   
E   M   S   E   E   M   S   E   E   M   S   E   E   M   S   E   E   M   S   E   
E   M   S   E   E   M   S   E   E   M   S   E   E   M   S   E   E   M   S   E   
E   M   S   E   E   M   S   E   E   M   S   E   E   M   S   E   E   M   S   E   
E   M   S   E   E   M   S   E   E   M   S   E   E   M   S   E   E   M   S   E   
E   M   S   E   E   M   S   E   E   M   S   E   E   M   S   E   E   M   S   E   
E   M   S   E   E   M   S   E   E   M   S   E   E   M   S   E   E   M   S   E   
E   M   S   E   E   M   S   E   E   M   S   E   E   M   S   E   E   M   S   E   
E   M   S   E   E   M   S   E   E   M   S   E   E   M   S   E   E   M   S   E   
E   M   S   E   E   M   S   E   E   M   S   E   E   M   S   E   E   M   S   E   
E   M   S   E   E   M   S   E   E   M   S   E   E   M   S   E   E   M   S   E   
E   M   S   E   E   M   S   E   E   M   S   E   E   M   S   E   E   M   S   E   
E   M   S   E   E   M   S   E   E   M   S   E   E   M   S   E   E   M   S   E   
E   M   S   E   E   M   S   E   E   M   S   E   E   M   S   E   E   M   S   E   
E   M   S   E   E   M   S   E   E   M   S   E   E   M   S   E   E   M   S   E   
E   M   S   E   E   M   S   E   E   M   S   E   E   M   S   E   E   M   S   E   
E   M   S   E   E   M   S   E   E   M   S   E   E   M   S   E   E   M   S   E   
E   M   S   E   E   M   S   E   E   M   S   E   E   M   S   E   E   M   S   E   
E   M   S   E   E   M   S   E   E   M   S   E   E   M   S   E   E   M   S   E   
E   M   S   E   E   M   S   E   E   M   S   E   E   M   S   E   E   M   S   E   
E   M   S   E   E   M   S   E   E   M   S   E   E   M   S   E   E   M   S   E   
E   M   S   E   E   M   S   E   E   M   S   E   E   M   S   E   E   M   S   E   
E   M   S   E   E   M   S   E   E   M   S   E   E   M   S   E   E   M   S   E   
E   M   S   E   E   M   S   E   E   M   S   E   E   M   S   E   E   M   S   E   
E   M   S   E   E   M   S   E   E   M   S   E   E   M   S   E   E   M   S   E   
E   M   S   E   E   M   S   E   E   M   S   E   E   M   S   E   E   M   S   E   
E   M   S   E   E   M   S   E   E   M   S   E   E   M   S   E   E   M   S   E   
E   M   S   E   E   M   S   E   E   M   S   E   E   M   S   E   E   M   S   E   
E   M   S   E   E   M   S   E   E   M   S   E   E   M   S   E   E   M   S   E   
E   M   S   E   E   M   S   E   E   M   S   E   E   M   S   E   E   M   S   E   
E   M   S   E   E   M   S   E   E   M   S   E   E   M   S   E   E   M   S   E   
E   M   S   E   E   M   S   E   E   M   S   E   E   M   S   E   E   M   S   E   
E   M   S   E   E   M   S   E   E   M   S   E   E   M   S   E   E   M   S   E   
E   M   S   E   E   M   S   E   E   M   S   E   E   M   S   E   E   M   S   E   
E   M   S   E   E   M   S   E   E   M   S   E   E   M   S   E   E   M   S   E   
E   M   S   E   E   M   S   E   E   M   S   E   E   M   S   E   E   M   S   E   
E   M   S   E   E   M   S   E   E   M   S   E   E   M   S   E   E   M   S   E   
E   M   S   E   E   M   S   E   E   M   S   E   E   M   S   E   E   M   S   E   
E   M   S   E   E   M   S   E   E   M   S   E   E   M   S   E   E   M   S   E   
E   M   S   E   E   M   S   E   E   M   S   E   E   M   S   E   E   M   S   E   
E   M   S   E   E   M   S   E   E   M   S   E   E   M   S   E   E   M   S   E   
E   M   S   E   E   M   S   E   E   M   S   E   E   M   S   E   E   M   S   E   
E   M   S   E   E   M   S   E   E   M   S   E   E   M   S   E   E   M   S   E   
E   M   S   E   E   M   S   E   E   M   S   E   E   M   S   E   E   M   S   E   
E   M   S   E   E   M   S   E   E   M   S   E   E   M   S   E   E   M   S   E   
E   M   S   E   E   M   S   E   E   M   S   E   E   M   S   E   E   M   S   E   
E   M   S   E   E   M   S   E   E   M   S   E   E   M   S   E   E   M   S   E   
E   M   S   E   E   M   S   E   E   M   S   E   E   M   S   E   E   M   S   E   
E   M   S   E   E   M   S   E   E   M   S   E   E   M   S   E   E   M   S   E   
E   M   S   E   E   M   S   E   E   M   S   E   E   M   S   E   E   M   S   E   
E   M   S   E   E   M   S   E   E   M   S   E   E   M   S   E   E   M   S   E   
E   M   S   E   E   M   S   E   E   M   S   E   E   M   S   E   E   M   S   E   
E   M   S   E   E   M   S   E   E   M   S   E   E   M   S   E   E   M   S   E   
E   M   S   E   E   M   S   E   E   M   S   E   E   M   S   E   E   M   S   E   
E   M   S   E   E   M   S   E   E   M   S   E   E   M   S   E   E   M   S   E   
E   M   S   E   E   M   S   E   E   M   S   E   E   M   S   E   E   M   S   E   
E   M   S   E   E   M   S   E   E   M   S   E   E   M   S   E   E   M   S   E   
E   M   S   E   E   M   S   E   E   M   S   E   E   M   S   E   E   M   S   E   
E   M   S   E   E   M   S   E   E   M   S   E   E   M   S   E   E   M   S   E   
E   M   S   E   E   M   S   E   E   M   S   E   E   M   S   E   E   M   S   E   
E   M   S   E   E   M   S   E   E   M   S   E   E   M   S   E   E   M   S   E   
E   M   S   E   E   M   S   E   E   M   S   E   E   M   S   E   E   M   S   E   
E   M   S   E   E   M   S   E   E   M   S   E   E   M   S   E   E   M   S   E   
E   M   S   E   E   M   S   E   E   M   S   E   E   M   S   E   E   M   S   E   
E   M   S   E   E   M   S   E   E   M   S   E   E   M   S   E   E   M   S   E   
E   M   S   E   E   M   S   E   E   M   S   E   E   M   S   E   E   M   S   E   
E   M   S   E   E   M   S   E   E   M   S   E   E   M   S   E   E   M   S   E   
E   M   S   E   E   M   S   E   E   M   S   E   E   M   S   E   E   M   S   E   
E   M   S   E   E   M   S   E   E   M   S   E   E   M   S   E   E   M   S   E   
E   M   S   E   E   M   S   E   E   M   S   E   E   M   S   E   E   M   S   E   
E   M   S   E   E   M   S   E   E   M   S   E   E   M   S   E   E   M   S   E   
E   M   S   E   E   M   S   E   E   M   S   E   E   M   S   E   E   M   S   E   
E   M   S   E   E   M   S   E   E   M   S   E   E   M   S   E   E   M   S   E   
E   M   S   E   E   M   S   E   E   M   S   E   E   M   S   E   E   M   S   E   
E   M   S   E   E   M   S   E   E   M   S   E   E   M   S   E   E   M   S   E   
E   M   S   E   E   M   S   E   E   M   S   E   E   M   S   E   E   M   S   E   
E   M   S   E   E   M   S   E   E   M   S   E   E   M   S   E   E   M   S   E   
E   M   S   E   E   M   S   E   E   M   S   E   E   M   S   E   E   M   S   E   
E   M   S   E   E   M   S   E   E   M   S   E   E   M   S   E   E   M   S   E   
E   M   S   E   E   M   S   E   E   M   S   E   E   M   S   E   E   M   S   E   
E   M   S   E   E   M   S   E   E   M   S   E   E   M   S   E   E   M   S   E   
E   M   S   E   E   M   S   E   E   M   S   E   E   M   S   E   E   M   S   E   
E   M   S   E   E   M   S   E   E   M   S   E   E   M   S   E   E   M   S   E   
E   M   S   E   E   M   S   E   E   M   S   E   E   M   S   E   E   M   S   E   
E   M   S   E   E   M   S   E   E   M   S   E   E   M   S   E   E   M   S   E   
E   M   S   E   E   M   S   E   E   M   S   E   E   M   S   E   E   M   S   E   
E   M   S   E   E   M   S   E   E   M   S   E   E   M   S   E   E   M   S   E   
E   M   S   E   E   M   S   E   E   M   S   E   E   M   S   E   E   M   S   E   
E   M   S   E   E   M   S   E   E   M   S   E   E   M   S   E   E   M   S   E   
E   M   S   E   E   M   S   E   E   M   S   E   E   M   S   E   E   M   S   E   
E   M   S   E   E   M   S   E   E   M   S   E   E   M   S   E   E   M   S   E   
E   M   S   E   E   M   S   E   E   M   S   E   E   M   S   E   E   M   S   E   
E   M   S   E   E   M   S   E   E   M   S   E   E   M   S   E   E   M   S   E   
E   M   S   E   E   M   S   E   E   M   S   E   E   M   S   E   E   M   S   E   
E   M   S   E   E   M   S   E   E   M   S   E   E   M   S   E   E   M   S   E   
E   M   S   E   E   M   S   E   E   M   S   E   E   M   S   E   E   M   S   E   
E   M   S   E   E   M   S   E   E   M   S   E   E   M   S   E   E   M   S   E   
E   M   S   E   E   M   S   E   E   M   S   E   E   M   S   E   E   M   S   E   
E   M   S   E   E   M   S   E   E   M   S   E   E   M   S   E   E   M   S   E   
E   M   S   E   E   M   S   E   E   M   S   E   E   M   S   E   E   M   S   E   
E   M   S   E   E   M   S   E   E   M   S   E   E   M   S   E   E   M   S   E   
E   M   S   E   E   M   S   E   E   M   S   E   E   M   S   E   E   M   S   E   
E   M   S   E   E   M   S   E   E   M   S   E   E   M   S   E   E   M   S   E   
E   M   S   E   E   M   S   E   E   M   S   E   E   M   S   E   E   M   S   E   
E   M   S   E   E   M   S   E   E   M   S   E   E   M   S   E   E   M   S   E   
E   M   S   E   E   M   S   E   E   M   S   E   E   M   S   E   E   M   S   E   
E   M   S   E   E   M   S   E   E   M   S   E   E   M   S   E   E   M   S   E   
E   M   S   E   E   M   S   E   E   M   S   E   E   M   S   E   E   M   S   E   
E   M   S   E   E   M   S   E   E   M   S   E   E   M   S   E   E   M   S   E   
E   M   S   E   E   M   S   E   E   M   S   E   E   M   S   E   E   M   S   E   
E   M   S   E   E   M   S   E   E   M   S   E   E   M   S   E   E   M   S   E   
E   M   S   E   E   M   S   E   E   M   S   E   E   M   S   E   E   M   S   E   
E   M   S   E   E   M   S   E   E   M   S   E   E   M   S   E   E   M   S   E   
E   M   S   E   E   M   S   E   E   M   S   E   E   M   S   E   E   M   S   E   
E   M   S   E   E   M   S   E   E   M   S   E   E   M   S   E   E   M   S   E   
E   M   S   E   E   M   S   E   E   M   S   E   E   M   S   E   E   M   S   E   
E   M   S   E   E   M   S   E   E   M   S   E   E   M   S   E   E   M   S   E   
E   M   S   E   E   M   S   E   E   M   S   E   E   M   S   E   E   M   S   E   
E   M   S   E   E   M   S   E   E   M   S   E   E   M   S   E   E   M   S   E   
E   M   S   E   E   M   S   E   E   M   S   E   E   M   S   E   E   M   S   E   
E   M   S   E   E   M   S   E   E   M   S   E   E   M   S   E   E   M   S   E   
E   M   S   E   E   M   S   E   E   M   S   E   E   M   S   E   E   M   S   E   
E   M   S   E   E   M   S   E   E   M   S   E   E   M   S   E   E   M   S   E   
E   M   S   E   E   M   S   E   E   M   S   E   E   M   S   E   E   M   S   E   
E   M   S   E   E   M   S   E   E   M   S   E   E   M   S   E   E   M   S   E   
E   M   S   E   E   M   S   E   E   M   S   E   E   M   S   E   E   M   S   E   
E   M   S   E   E   M   S   E   E   M   S   E   E   M   S   E   E   M   S   E   
E   M   S   E   E   M   S   E   E   M   S   E   E   M   S   E   E   M   S   E   
E   M   S   E   E   M   S   E   E   M   S   E   E   M   S   E   E   M   S   E   
E   M   S   E   E   M   S   E   E   M   S   E   E   M   S   E   E   M   S   E   
E   M   S   E   E   M   S   E   E   M   S   E   E   M   S   E   E   M   S   E   
E   M   S   E   E   M   S   E   E   M   S   E   E   M   S   E   E   M   S   E   
E   M   S   E   E   M   S   E   E   M   S   E   E   M   S   E   E   M   S   E   
E   M   S   E   E   M   S   E   E   M   S   E   E   M   S   E   E   M   S   E   
E   M   S   E   E   M   S   E   E   M   S   E   E   M   S   E   E   M   S   E   
E   M   S   E   E   M   S   E   E   M   S   E   E   M   S   E   E   M   S   E   
E   M   S   E   E   M   S   E   E   M   S   E   E   M   S   E   E   M   S   E   
E   M   S   E   E   M   S   E   E   M   S   E   E   M   S   E   E   M   S   E   
E   M   S   E   E   M   S   E   E   M   S   E   E   M   S   E   E   M   S   E   
E   M   S   E   E   M   S   E   E   M   S   E   E   M   S   E   E   M   S   E   
E   M   S   E   E   M   S   E   E   M   S   E   E   M   S   E   E   M   S   E   
E   M   S   E   E   M   S   E   E   M   S   E   E   M   S   E   E   M   S   E   
E   M   S   E   E   M   S   E   E   M   S   E   E   M   S   E   E   M   S   E   
E   M   S   E   E   M   S   E   E   M   S   E   E   M   S   E   E   M   S   E   
E   M   S   E   E   M   S   E   E   M   S   E   E   M   S   E   E   M   S   E   
E   M   S   E   E   M   S   E   E   M   S   E   E   M   S   E   E   M   S   E   
E   M   S   E   E   M   S   E   E   M   S   E   E   M   S   E   E   M   S   E   
E   M   S   E   E   M   S   E   E   M   S   E   E   M   S   E   E   M   S   E   
E   M   S   E   E   M   S   E   E   M   S   E   E   M   S   E   E   M   S   E   
E   M   S   E   E   M   S   E   E   M   S   E   E   M   S   E   E   M   S   E   
E   M   S   E   E   M   S   E   E   M   S   E   E   M   S   E   E   M   S   E   
E   M   S   E   E   M   S   E   E   M   S   E   E   M   S   E   E   M   S   E   
E   M   S   E   E   M   S   E   E   M   S   E   E   M   S   E   E   M   S   E   
E   M   S   E   E   M   S   E   E   M   S   E   E   M   S   E   E   M   S   E   
E   M   S   E   E   M   S   E   E   M   S   E   E   M   S   E   E   M   S   E   
E   M   S   E   E   M   S   E   E   M   S   E   E   M   S   E   E   M   S   E   
E   M   S   E   E   M   S   E   E   M   S   E   E   M   S   E   E   M   S   E   
E   M   S   E   E   M   S   E   E   M   S   E   E   M   S   E   E   M   S   E   
E   M   S   E   E   M   S   E   E   M   S   E   E   M   S   E   E   M   S   E   
E   M   S   E   E   M   S   E   E   M   S   E   E   M   S   E   E   M   S   E   
E   M   S   E   E   M   S   E   E   M   S   E   E   M   S   E   E   M   S   E   
E   M   S   E   E   M   S   E   E   M   S   E   E   M   S   E   E   M   S   E   
E   M   S   E   E   M   S   E   E   M   S   E   E   M   S   E   E   M   S   E   
E   M   S   E   E   M   S   E   E   M   S   E   E   M   S   E   E   M   S   E   
E   M   S   E   E   M   S   E   E   M   S   E   E   M   S   E   E   M   S   E   
E   M   S   E   E   M   S   E   E   M   S   E   E   M   S   E   E   M   S   E   
E   M   S   E   E   M   S   E   E   M   S   E   E   M   S   E   E   M   S   E   
E   M   S   E   E   M   S   E   E   M   S   E   E   M   S   E   E   M   S   E   
E   M   S   E   E   M   S   E   E   M   S   E   E   M   S   E   E   M   S   E   
E   M   S   E   E   M   S   E   E   M   S   E   E   M   S   E   E   M   S   E   
E   M   S   E   E   M   S   E   E   M   S   E   E   M   S   E   E   M   S   E   
E   M   S   E   E   M   S   E   E   M   S   E   E   M   S   E   E   M   S   E   
E   M   S   E   E   M   S   E   E   M   S   E   E   M   S   E   E   M   S   E   
E   M   S   E   E   M   S   E   E   M   S   E   E   M   S   E   E   M   S   E   
E   M   S   E   E   M   S   E   E   M   S   E   E   M   S   E   E   M   S   E   
E   M   S   E   E   M   S   E   E   M   S   E   E   M   S   E   E   M   S   E   
E   M   S   E   E   M   S   E   E   M   S   E   E   M   S   E   E   M   S   E   
E   M   S   E   E   M   S   E   E   M   S   E   E   M   S   E   E   M   S   E   
E   M   S   E   E   M   S   E   E   M   S   E   E   M   S   E   E   M   S   E   
E   M   S   E   E   M   S   E   E   M   S   E   E   M   S   E   E   M   S   E   
E   M   S   E   E   M   S   E   E   M   S   E   E   M   S   E   E   M   S   E   
E   M   S   E   E   M   S   E   E   M   S   E   E   M   S   E   E   M   S   E   
E   M   S   E   E   M   S   E   E   M   S   E   E   M   S   E   E   M   S   E   
E   M   S   E   E   M   S   E   E   M   S   E   E   M   S   E   E   M   S   E   
E   M   S   E   E   M   S   E   E   M   S   E   E   M   S   E   E   M   S   E   
E   M   S   E   E   M   S   E   E   M   S   E   E   M   S   E   E   M   S   E   
E   M   S   E   E   M   S   E   E   M   S   E   E   M   S   E   E   M   S   E   
E   M   S   E   E   M   S   E   E   M   S   E   E   M   S   E   E   M   S   E   
E   M   S   E   E   M   S   E   E   M   S   E   E   M   S   E   E   M   S   E   
E   M   S   E   E   M   S   E   E   M   S   E   E   M   S   E   E   M   S   E   
E   M   S   E   E   M   S   E   E   M   S   E   E   M   S   E   E   M   S   E   
E   M   S   E   E   M   S   E   E   M   S   E   E   M   S   E   E   M   S   E   
E   M   S   E   E   M   S   E   E   M   S   E   E   M   S   E   E   M   S   E   
E   M   S   E   E   M   S   E   E   M   S   E   E   M   S   E   E   M   S   E   
E   M   S   E   E   M   S   E   E   M   S   E   E   M   S   E   E   M   S   E   
E   M   S   E   E   M   S   E   E   M   S   E   E   M   S   E   E   M   S   E   
E   M   S   E   E   M   S   E   E   M   S   E   E   M   S   E   E   M   S   E   
E   M   S   E   E   M   S   E   E   M   S   E   E   M   S   E   E   M   S   E   
E   M   S   E   E   M   S   E   E   M   S   E   E   M   S   E   E   M   S   E   
E   M   S   E   E   M   S   E   E   M   S   E   E   M   S   E   E   M   S   E   
E   M   S   E   E   M   S   E   E   M   S   E   E   M   S   E   E   M   S   E   
E   M   S   E   E   M   S   E   E   M   S   E   E   M   S   E   E   M   S   E   
E   M   S   E   E   M   S   E   E   M   S   E   E   M   S   E   E   M   S   E   
E   M   S   E   E   M   S   E   E   M   S   E   E   M   S   E   E   M   S   E   
E   M   S   E   E   M   S   E   E   M   S   E   E   M   S   E   E   M   S   E   
E   M   S   E   E   M   S   E   E   M   S   E   E   M   S   E   E   M   S   E   
E   M   S   E   E   M   S   E   E   M   S   E   E   M   S   E   E   M   S   E   
E   M   S   E   E   M   S   E   E   M   S   E   E   M   S   E   E   M   S   E   
E   M   S   E   E   M   S   E   E   M   S   E   E   M   S   E   E   M   S   E   
E   M   S   E   E   M   S   E   E   M   S   E   E   M   S   E   E   M   S   E   
E   M   S   E   E   M   S   E   E   M   S   E   E   M   S   E   E   M   S   E   
E   M   S   E   E   M   S   E   E   M   S   E   E   M   S   E   E   M   S   E   
E   M   S   E   E   M   S   E   E   M   S   E   E   M   S   E   E   M   S   E   
E   M   S   E   E   M   S   E   E   M   S   E   E   M   S   E   E   M   S   E   
E   M   S   E   E   M   S   E   E   M   S   E   E   M   S   E   E   M   S   E   
E   M   S   E   E   M   S   E   E   M   S   E   E   M   S   E   E   M   S   E   
E   M   S   E   E   M   S   E   E   M   S   E   E   M   S   E   E   M   S   E   
E   M   S   E   E   M   S   E   E   M   S   E   E   M   S   E   E   M   S   E   
E   M   S   E   E   M   S   E   E   M   S   E   E   M   S   E   E   M   S   E   
E   M   S   E   E   M   S   E   E   M   S   E   E   M   S   E   E   M   S   E   
E   M   S   E   E   M   S   E   E   M   S   E   E   M   S   E   E   M   S   E   
E   M   S   E   E   M   S   E   E   M   S   E   E   M   S   E   E   M   S   E   
E   M   S   E   E   M   S   E   E   M   S   E   E   M   S   E   E   M   S   E   
E   M   S   E   E   M   S   E   E   M   S   E   E   M   S   E   E   M   S   E   
E   M   S   E   E   M   S   E   E   M   S   E   E   M   S   E   E   M   S   E   
E   M   S   E   E   M   S   E   E   M   S   E   E   M   S   E   E   M   S   E   
E   M   S   E   E   M   S   E   E   M   S   E   E   M   S   E   E   M   S   E   
E   M   S   E   E   M   S   E   E   M   S   E   E   M   S   E   E   M   S   E   
E   M   S   E   E   M   S   E   E   M   S   E   E   M   S   E   E   M   S   E   
E   M   S   E   E   M   S   E   E   M   S   E   E   M   S   E   E   M   S   E   
E   M   S   E   E   M   S   E   E   M   S   E   E   M   S   E   E   M   S   E   
E   M   S   E   E   M   S   E   E   M   S   E   E   M   S   E   E   M   S   E   
E   M   S   E   E   M   S   E   E   M   S   E   E   M   S   E   E   M   S   E   
E   M   S   E   E   M   S   E   E   M   S   E   E   M   S   E   E   M   S   E   
E   M   S   E   E   M   S   E   E   M   S   E   E   M   S   E   E   M   S   E   
E   M   S   E   E   M   S   E   E   M   S   E   E   M   S   E   E   M   S   E   
E   M   S   E   E   M   S   E   E   M   S   E   E   M   S   E   E   M   S   E   
E   M   S   E   E   M   S   E   E   M   S   E   E   M   S   E   E   M   S   E   
E   M   S   E   E   M   S   E   E   M   S   E   E   M   S   E   E   M   S   E   
E   M   S   E   E   M   S   E   E   M   S   E   E   M   S   E   E   M   S   E   
E   M   S   E   E   M   S   E   E   M   S   E   E   M   S   E   E   M   S   E   
E   M   S   E   E   M   S   E   E   M   S   E   E   M   S   E   E   M   S   E   
E   M   S   E   E   M   S   E   E   M   S   E   E   M   S   E   E   M   S   E   
E   M   S   E   E   M   S   E   E   M   S   E   E   M   S   E   E   M   S   E   
E   M   S   E   E   M   S   E   E   M   S   E   E   M   S   E   E   M   S   E   
E   M   S   E   E   M   S   E   E   M   S   E   E   M   S   E   E   M   S   E   
E   M   S   E   E   M   S   E   E   M   S   E   E   M   S   E   E   M   S   E   
E   M   S   E   E   M   S   E   E   M   S   E   E   M   S   E   E   M   S   E   
E   M   S   E   E   M   S   E   E   M   S   E   E   M   S   E   E   M   S   E   
E   M   S   E   E   M   S   E   E   M   S   E   E   M   S   E   E   M   S   E   
E   M   S   E   E   M   S   E   E   M   S   E   E   M   S   E   E   M   S   E   
E   M   S   E   E   M   S   E   E   M   S   E   E   M   S   E   E   M   S   E   
E   M   S   E   E   M   S   E   E   M   S   E   E   M   S   E   E   M   S   E   
E   M   S   E   E   M   S   E   E   M   S   E   E   M   S   E   E   M   S   E   
E   M   S   E   E   M   S   E   E   M   S   E   E   M   S   E   E   M   S   E   
E   M   S   E   E   M   S   E   E   M   S   E   E   M   S   E   E   M   S   E   
E   M   S   E   E   M   S   E   E   M   S   E   E   M   S   E   E   M   S   E   
E   M   S   E   E   M   S   E   E   M   S   E   E   M   S   E   E   M   S   E   
E   M   S   E   E   M   S   E   E   M   S   E   E   M   S   E   E   M   S   E   
E   M   S   E   E   M   S   E   E   M   S   E   E   M   S   E   E   M   S   E   
E   M   S   E   E   M   S   E   E   M   S   E   E   M   S   E   E   M   S   E   
E   M   S   E   E   M   S   E   E   M   S   E   E   M   S   E   E   M   S   E   
E   M   S   E   E   M   S   E   E   M   S   E   E   M   S   E   E   M   S   E   
E   M   S   E   E   M   S   E   E   M   S   E   E   M   S   E   E   M   S   E   
E   M   S   E   E   M   S   E   E   M   S   E   E   M   S   E   E   M   S   E   
E   M   S   E   E   M   S   E   E   M   S   E   E   M   S   E   E   M   S   E   
E   M   S   E   E   M   S   E   E   M   S   E   E   M   S   E   E   M   S   E   
E   M   S   E   E   M   S   E   E   M   S   E   E   M   S   E   E   M   S   E   
E   M   S   E   E   M   S   E   E   M   S   E   E   M   S   E   E   M   S   E   
E   M   S   E   E   M   S   E   E   M   S   E   E   M   S   E   E   M   S   E   
E   M   S   E   E   M   S   E   E   M   S   E   E   M   S   E   E   M   S   E   
E   M   S   E   E   M   S   E   E   M   S   E   E   M   S   E   E   M   S   E   
E   M   S   E   E   M   S   E   E   M   S   E   E   M   S   E   E   M   S   E   
E   M   S   E   E   M   S   E   E   M   S   E   E   M   S   E   E   M   S   E   
E   M   S   E   E   M   S   E   E   M   S   E   E   M   S   E   E   M   S   E   
E   M   S   E   E   M   S   E   E   M   S   E   E   M   S   E   E   M   S   E   
E   M   S   E   E   M   S   E   E   M   S   E   E   M   S   E   E   M   S   E   
E   M   S   E   E   M   S   E   E   M   S   E   E   M   S   E   E   M   S   E   
E   M   S   E   E   M   S   E   E   M   S   E   E   M   S   E   E   M   S   E   
E   M   S   E   E   M   S   E   E   M   S   E   E   M   S   E   E   M   S   E   
E   M   S   E   E   M   S   E   E   M   S   E   E   M   S   E   E   M   S   E   
E   M   S   E   E   M   S   E   E   M   S   E   E   M   S   E   E   M   S   E   
E   M   S   E   E   M   S   E   E   M   S   E   E   M   S   E   E   M   S   E   
E   M   S   E   E   M   S   E   E   M   S   E   E   M   S   E   E   M   S   E   
E   M   S   E   E   M   S   E   E   M   S   E   E   M   S   E   E   M   S   E   
E   M   S   E   E   M   S   E   E   M   S   E   E   M   S   E   E   M   S   E   
E   M   S   E   E   M   S   E   E   M   S   E   E   M   S   E   E   M   S   E   
E   M   S   E   E   M   S   E   E   M   S   E   E   M   S   E   E   M   S   E   
E   M   S   E   E   M   S   E   E   M   S   E   E   M   S   E   E   M   S   E   
E   M   S   E   E   M   S   E   E   M   S   E   E   M   S   E   E   M   S   E   
E   M   S   E   E   M   S   E   E   M   S   E   E   M   S   E   E   M   S   E   
E   M   S   E   E   M   S   E   E   M   S   E   E   M   S   E   E   M   S   E   
E   M   S   E   E   M   S   E   E   M   S   E   E   M   S   E   E   M   S   E   
E   M   S   E   E   M   S   E   E   M   S   E   E   M   S   E   E   M   S   E   
E   M   S   E   E   M   S   E   E   M   S   E   E   M   S   E   E   M   S   E   
E   M   S   E   E   M   S   E   E   M   S   E   E   M   S   E   E   M   S   E   
E   M   S   E   E   M   S   E   E   M   S   E   E   M   S   E   E   M   S   E   
E   M   S   E   E   M   S   E   E   M   S   E   E   M   S   E   E   M   S   E   
E   M   S   E   E   M   S   E   E   M   S   E   E   M   S   E   E   M   S   E   
E   M   S   E   E   M   S   E   E   M   S   E   E   M   S   E   E   M   S   E   
E   M   S   E   E   M   S   E   E   M   S   E   E   M   S   E   E   M   S   E   
E   M   S   E   E   M   S   E   E   M   S   E   E   M   S   E   E   M   S   E   
E   M   S   E   E   M   S   E   E   M   S   E   E   M   S   E   E   M   S   E   
E   M   S   E   E   M   S   E   E   M   S   E   E   M   S   E   E   M   S   E   
E   M   S   E   E   M   S   E   E   M   S   E   E   M   S   E   E   M   S   E   
E   M   S   E   E   M   S   E   E   M   S   E   E   M   S   E   E   M   S   E   
E   M   S   E   E   M   S   E   E   M   S   E   E   M   S   E   E   M   S   E   
E   M   S   E   E   M   S   E   E   M   S   E   E   M   S   E   E   M   S   E   
E   M   S   E   E   M   S   E   E   M   S   E   E   M   S   E   E   M   S   E   
E   M   S   E   E   M   S   E   E   M   S   E   E   M   S   E   E   M   S   E   
E   M   S   E   E   M   S   E   E   M   S   E   E   M   S   E   E   M   S   E   
E   M   S   E   E   M   S   E   E   M   S   E   E   M   S   E   E   M   S   E   
E   M   S   E   E   M   S   E   E   M   S   E   E   M   S   E   E   M   S   E   
E   M   S   E   E   M   S   E   E   M   S   E   E   M   S   E   E   M   S   E   
E   M   S   E   E   M   S   E   E   M   S   E   E   M   S   E   E   M   S   E   
E   M   S   E   E   M   S   E   E   M   S   E   E   M   S   E   E   M   S   E   
E   M   S   E   E   M   S   E   E   M   S   E   E   M   S   E   E   M   S   E   
E   M   S   E   E   M   S   E   E   M   S   E   E   M   S   E   E   M   S   E   
E   M   S   E   E   M   S   E   E   M   S   E   E   M   S   E   E   M   S   E   
E   M   S   E   E   M   S   E   E   M   S   E   E   M   S   E   E   M   S   E   
E   M   S   E   E   M   S   E   E   M   S   E   E   M   S   E   E   M   S   E   
E   M   S   E   E   M   S   E   E   M   S   E   E   M   S   E   E   M   S   E   
E   M   S   E   E   M   S   E   E   M   S   E   E   M   S   E   E   M   S   E   
E   M   S   E   E   M   S   E   E   M   S   E   E   M   S   E   E   M   S   E   
E   M   S   E   E   M   S   E   E   M   S   E   E   M   S   E   E   M   S   E   
E   M   S   E   E   M   S   E   E   M   S   E   E   M   S   E   E   M   S   E   
E   M   S   E   E   M   S   E   E   M   S   E   E   M   S   E   E   M   S   E   
E   M   S   E   E   M   S   E   E   M   S   E   E   M   S   E   E   M   S   E   
E   M   S   E   E   M   S   E   E   M   S   E   E   M   S   E   E   M   S   E   
E   M   S   E   E   M   S   E   E   M   S   E   E   M   S   E   E   M   S   E   
E   M   S   E   E   M   S   E   E   M   S   E   E   M   S   E   E   M   S   E   
E   M   S   E   E   M   S   E   E   M   S   E   E   M   S   E   E   M   S   E   
E   M   S   E   E   M   S   E   E   M   S   E   E   M   S   E   E   M   S   E   
E   M   S   E   E   M   S   E   E   M   S   E   E   M   S   E   E   M   S   E   
E   M   S   E   E   M   S   E   E   M   S   E   E   M   S   E   E   M   S   E   
E   M   S   E   E   M   S   E   E   M   S   E   E   M   S   E   E   M   S   E   
E   M   S   E   E   M   S   E   E   M   S   E   E   M   S   E   E   M   S   E   
E   M   S   E   E   M   S   E   E   M   S   E   E   M   S   E   E   M   S   E   
E   M   S   E   E   M   S   E   E   M   S   E   E   M   S   E   E   M   S   E   
E   M   S   E   E   M   S   E   E   M   S   E   E   M   S   E   E   M   S   E   
E   M   S   E   E   M   S   E   E   M   S   E   E   M   S   E   E   M   S   E   
E   M   S   E   E   M   S   E   E   M   S   E   E   M   S   E   E   M   S   E   
E   M   S   E   E   M   S   E   E   M   S   E   E   M   S   E   E   M   S   E   
E   M   S   E   E   M   S   E   E   M   S   E   E   M   S   E   E   M   S   E   
E   M   S   E   E   M   S   E   E   M   S   E   E   M   S   E   E   M   S   E   
E   M   S   E   E   M   S   E   E   M   S   E   E   M   S   E   E   M   S   E   
E   M   S   E   E   M   S   E   E   M   S   E   E   M   S   E   E   M   S   E   
E   M   S   E   E   M   S   E   E   M   S   E   E   M   S   E   E   M   S   E   
E   M   S   E   E   M   S   E   E   M   S   E   E   M   S   E   E   M   S   E   
E   M   S   E   E   M   S   E   E   M   S   E   E   M   S   E   E   M   S   E   
E   M   S   E   E   M   S   E   E   M   S   E   E   M   S   E   E   M   S   E   
E   M   S   E   E   M   S   E   E   M   S   E   E   M   S   E   E   M   S   E   
E   M   S   E   E   M   S   E   E   M   S   E   E   M   S   E   E   M   S   E   
E   M   S   E   E   M   S   E   E   M   S   E   E   M   S   E   E   M   S   E   
E   M   S   E   E   M   S   E   E   M   S   E   E   M   S   E   E   M   S   E   
E   M   S   E   E   M   S   E   E   M   S   E   E   M   S   E   E   M   S   E   
E   M   S   E   E   M   S   E   E   M   S   E   E   M   S   E   E   M   S   E   
E   M   S   E   E   M   S   E   E   M   S   E   E   M   S   E   E   M   S   E   
E   M   S   E   E   M   S   E   E   M   S   E   E   M   S   E   E   M   S   E   
E   M   S   E   E   M   S   E   E   M   S   E   E   M   S   E   E   M   S   E   
E   M   S   E   E   M   S   E   E   M   S   E   E   M   S   E   E   M   S   E   
E   M   S   E   E   M   S   E   E   M   S   E   E   M   S   E   E   M   S   E   
E   M   S   E   E   M   S   E   E   M   S   E   E   M   S   E   E   M   S   E   
E   M   S   E   E   M   S   E   E   M   S   E   E   M   S   E   E   M   S   E   
E   M   S   E   E   M   S   E   E   M   S   E   E   M   S   E   E   M   S   E   
E   M   S   E   E   M   S   E   E   M   S   E   E   M   S   E   E   M   S   E   
E   M   S   E   E   M   S   E   E   M   S   E   E   M   S   E   E   M   S   E   
E   M   S   E   E   M   S   E   E   M   S   E   E   M   S   E   E   M   S   E   
E   M   S   E   E   M   S   E   E   M   S   E   E   M   S   E   E   M   S   E   
E   M   S   E   E   M   S   E   E   M   S   E   E   M   S   E   E   M   S   E   
E   M   S   E   E   M   S   E   E   M   S   E   E   M   S   E   E   M   S   E   
E   M   S   E   E   M   S   E   E   M   S   E   E   M   S   E   E   M   S   E   
E   M   S   E   E   M   S   E   E   M   S   E   E   M   S   E   E   M   S   E   
E   M   S   E   E   M   S   E   E   M   S   E   E   M   S   E   E   M   S   E   
E   M   S   E   E   M   S   E   E   M   S   E   E   M   S   E   E   M   S   E   
E   M   S   E   E   M   S   E   E   M   S   E   E   M   S   E   E   M   S   E   
E   M   S   E   E   M   S   E   E   M   S   E   E   M   S   E   E   M   S   E   
E   M   S   E   E   M   S   E   E   M   S   E   E   M   S   E   E   M   S   E   
E   M   S   E   E   M   S   E   E   M   S   E   E   M   S   E   E   M   S   E   
E   M   S   E   E   M   S   E   E   M   S   E   E   M   S   E   E   M   S   E   
E   M   S   E   E   M   S   E   E   M   S   E   E   M   S   E   E   M   S   E   
E   M   S   E   E   M   S   E   E   M   S   E   E   M   S   E   E   M   S   E   
E   M   S   E   E   M   S   E   E   M   S   E   E   M   S   E   E   M   S   E   
E   M   S   E   E   M   S   E   E   M   S   E   E   M   S   E   E   M   S   E   
E   M   S   E   E   M   S   E   E   M   S   E   E   M   S   E   E   M   S   E   
E   M   S   E   E   M   S   E   E   M   S   E   E   M   S   E   E   M   S   E   
E   M   S   E   E   M   S   E   E   M   S   E   E   M   S   E   E   M   S   E   
E   M   S   E   E   M   S   E   E   M   S   E   E   M   S   E   E   M   S   E   
E   M   S   E   E   M   S   E   E   M   S   E   E   M   S   E   E   M   S   E   
E   M   S   E   E   M   S   E   E   M   S   E   E   M   S   E   E   M   S   E   
E   M   S   E   E   M   S   E   E   M   S   E   E   M   S   E   E   M   S   E   
E   M   S   E   E   M   S   E   E   M   S   E   E   M   S   E   E   M   S   E   
E   M   S   E   E   M   S   E   E   M   S   E   E   M   S   E   E   M   S   E   
E   M   S   E   E   M   S   E   E   M   S   E   E   M   S   E   E   M   S   E   
E   M   S   E   E   M   S   E   E   M   S   E   E   M   S   E   E   M   S   E   
E   M   S   E   E   M   S   E   E   M   S   E   E   M   S   E   E   M   S   E   
E   M   S   E   E   M   S   E   E   M   S   E   E   M   S   E   E   M   S   E   
E   M   S   E   E   M   S   E   E   M   S   E   E   M   S   E   E   M   S   E   
E   M   S   E   E   M   S   E   E   M   S   E   E   M   S   E   E   M   S   E   
E   M   S   E   E   M   S   E   E   M   S   E   E   M   S   E   E   M   S   E   
E   M   S   E   E   M   S   E   E   M   S   E   E   M   S   E   E   M   S   E   
E   M   S   E   E   M   S   E   E   M   S   E   E   M   S   E   E   M   S   E   
E   M   S   E   E   M   S   E   E   M   S   E   E   M   S   E   E   M   S   E   
E   M   S   E   E   M   S   E   E   M   S   E   E   M   S   E   E   M   S   E   
E   M   S   E   E   M   S   E   E   M   S   E   E   M   S   E   E   M   S   E   
E   M   S   E   E   M   S   E   E   M   S   E   E   M   S   E   E   M   S   E   
E   M   S   E   E   M   S   E   E   M   S   E   E   M   S   E   E   M   S   E   
E   M   S   E   E   M   S   E   E   M   S   E   E   M   S   E   E   M   S   E   
E   M   S   E   E   M   S   E   E   M   S   E   E   M   S   E   E   M   S   E   
E   M   S   E   E   M   S   E   E   M   S   E   E   M   S   E   E   M   S   E   
E   M   S   E   E   M   S   E   E   M   S   E   E   M   S   E   E   M   S   E   
E   M   S   E   E   M   S   E   E   M   S   E   E   M   S   E   E   M   S   E   
E   M   S   E   E   M   S   E   E   M   S   E   E   M   S   E   E   M   S   E   
E   M   S   E   E   M   S   E   E   M   S   E   E   M   S   E   E   M   S   E   
E   M   S   E   E   M   S   E   E   M   S   E   E   M   S   E   E   M   S   E   
E   M   S   E   E   M   S   E   E   M   S   E   E   M   S   E   E   M   S   E   
E   M   S   E   E   M   S   E   E   M   S   E   E   M   S   E   E   M   S   E   
E   M   S   E   E   M   S   E   E   M   S   E   E   M   S   E   E   M   S   E   
E   M   S   E   E   M   S   E   E   M   S   E   E   M   S   E   E   M   S   E   
E   M   S   E   E   M   S   E   E   M   S   E   E   M   S   E   E   M   S   E   
E   M   S   E   E   M   S   E   E   M   S   E   E   M   S   E   E   M   S   E   
E   M   S   E   E   M   S   E   E   M   S   E   E   M   S   E   E   M   S   E   
E   M   S   E   E   M   S   E   E   M   S   E   E   M   S   E   E   M   S   E   
E   M   S   E   E   M   S   E   E   M   S   E   E   M   S   E   E   M   S   E   
E   M   S   E   E   M   S   E   E   M   S   E   E   M   S   E   E   M   S   E   
E   M   S   E   E   M   S   E   E   M   S   E   E   M   S   E   E   M   S   E   
E   M   S   E   E   M   S   E   E   M   S   E   E   M   S   E   E   M   S   E   
E   M   S   E   E   M   S   E   E   M   S   E   E   M   S   E   E   M   S   E   
E   M   S   E   E   M   S   E   E   M   S   E   E   M   S   E   E   M   S   E   
E   M   S   E   E   M   S   E   E   M   S   E   E   M   S   E   E   M   S   E   
E   M   S   E   E   M   S   E   E   M   S   E   E   M   S   E   E   M   S   E   
E   M   S   E   E   M   S   E   E   M   S   E   E   M   S   E   E   M   S   E   
E   M   S   E   E   M   S   E   E   M   S   E   E   M   S   E   E   M   S   E   
E   M   S   E   E   M   S   E   E   M   S   E   E   M   S   E   E   M   S   E   
E   M   S   E   E   M   S   E   E   M   S   E   E   M   S   E   E   M   S   E   
E   M   S   E   E   M   S   E   E   M   S   E   E   M   S   E   E   M   S   E   
E   M   S   E   E   M   S   E   E   M   S   E   E   M   S   E   E   M   S   E   
E   M   S   E   E   M   S   E   E   M   S   E   E   M   S   E   E   M   S   E   
E   M   S   E   E   M   S   E   E   M   S   E   E   M   S   E   E   M   S   E   
E   M   S   E   E   M   S   E   E   M   S   E   E   M   S   E   E   M   S   E   
E   M   S   E   E   M   S   E   E   M   S   E   E   M   S   E   E   M   S   E   
E   M   S   E   E   M   S   E   E   M   S   E   E   M   S   E   E   M   S   E   
E   M   S   E   E   M   S   E   E   M   S   E   E   M   S   E   E   M   S   E   
E   M   S   E   E   M   S   E   E   M   S   E   E   M   S   E   E   M   S   E   
E   M   S   E   E   M   S   E   E   M   S   E   E   M   S   E   E   M   S   E   
E   M   S   E   E   M   S   E   E   M   S   E   E   M   S   E   E   M   S   E   
E   M   S   E   E   M   S   E   E   M   S   E   E   M   S   E   E   M   S   E   
E   M   S   E   E   M   S   E   E   M   S   E   E   M   S   E   E   M   S   E   
E   M   S   E   E   M   S   E   E   M   S   E   E   M   S   E   E   M   S   E   
E   M   S   E   E   M   S   E   E   M   S   E   E   M   S   E   E   M   S   E   
E   M   S   E   E   M   S   E   E   M   S   E   E   M   S   E   E   M   S   E   
E   M   S   E   E   M   S   E   E   M   S   E   E   M   S   E   E   M   S   E   
E   M   S   E   E   M   S   E   E   M   S   E   E   M   S   E   E   M   S   E   
E   M   S   E   E   M   S   E   E   M   S   E   E   M   S   E   E   M   S   E   
E   M   S   E   E   M   S   E   E   M   S   E   E   M   S   E   E   M   S   E   
E   M   S   E   E   M   S   E   E   M   S   E   E   M   S   E   E   M   S   E   
E   M   S   E   E   M   S   E   E   M   S   E   E   M   S   E   E   M   S   E   
E   M   S   E   E   M   S   E   E   M   S   E   E   M   S   E   E   M   S   E   
E   M   S   E   E   M   S   E   E   M   S   E   E   M   S   E   E   M   S   E   
E   M   S   E   E   M   S   E   E   M   S   E   E   M   S   E   E   M   S   E   
E   M   S   E   E   M   S   E   E   M   S   E   E   M   S   E   E   M   S   E   
E   M   S   E   E   M   S   E   E   M   S   E   E   M   S   E   E   M   S   E   
E   M   S   E   E   M   S   E   E   M   S   E   E   M   S   E   E   M   S   E   
E   M   S   E   E   M   S   E   E   M   S   E   E   M   S   E   E   M   S   E   
E   M   S   E   E   M   S   E   E   M   S   E   E   M   S   E   E   M   S   E   
E   M   S   E   E   M   S   E   E   M   S   E   E   M   S   E   E   M   S   E   
E   M   S   E   E   M   S   E   E   M   S   E   E   M   S   E   E   M   S   E   
E   M   S   E   E   M   S   E   E   M   S   E   E   M   S   E   E   M   S   E   
E   M   S   E   E   M   S   E   E   M   S   E   E   M   S   E   E   M   S   E   
E   M   S   E   E   M   S   E   E   M   S   E   E   M   S   E   E   M   S   E   
E   M   S   E   E   M   S   E   E   M   S   E   E   M   S   E   E   M   S   E   
E   M   S   E   E   M   S   E   E   M   S   E   E   M   S   E   E   M   S   E   
E   M   S   E   E   M   S   E   E   M   S   E   E   M   S   E   E   M   S   E   
E   M   S   E   E   M   S   E   E   M   S   E   E   M   S   E   E   M   S   E   
E   M   S   E   E   M   S   E   E   M   S   E   E   M   S   E   E   M   S   E   
E   M   S   E   E   M   S   E   E   M   S   E   E   M   S   E   E   M   S   E   
E   M   S   E   E   M   S   E   E   M   S   E   E   M   S   E   E   M   S   E   
E   M   S   E   E   M   S   E   E   M   S   E   E   M   S   E   E   M   S   E   
E   M   S   E   E   M   S   E   E   M   S   E   E   M   S   E   E   M   S   E   
E   M   S   E   E   M   S   E   E   M   S   E   E   M   S   E   E   M   S   E   
E   M   S   E   E   M   S   E   E   M   S   E   E   M   S   E   E   M   S   E   
E   M   S   E   E   M   S   E   E   M   S   E   E   M   S   E   E   M   S   E   
E   M   S   E   E   M   S   E   E   M   S   E   E   M   S   E   E   M   S   E   
E   M   S   E   E   M   S   E   E   M   S   E   E   M   S   E   E   M   S   E   
E   M   S   E   E   M   S   E   E   M   S   E   E   M   S   E   E   M   S   E   
E   M   S   E   E   M   S   E   E   M   S   E   E   M   S   E   E   M   S   E   
E   M   S   E   E   M   S   E   E   M   S   E   E   M   S   E   E   M   S   E   
E   M   S   E   E   M   S   E   E   M   S   E   E   M   S   E   E   M   S   E   
E   M   S   E   E   M   S   E   E   M   S   E   E   M   S   E   E   M   S   E   
E   M   S   E   E   M   S   E   E   M   S   E   E   M   S   E   E   M   S   E   
E   M   S   E   E   M   S   E   E   M   S   E   E   M   S   E   E   M   S   E   
E   M   S   E   E   M   S   E   E   M   S   E   E   M   S   E   E   M   S   E   
E   M   S   E   E   M   S   E   E   M   S   E   E   M   S   E   E   M   S   E   
E   M   S   E   E   M   S   E   E   M   S   E   E   M   S   E   E   M   S   E   
E   M   S   E   E   M   S   E   E   M   S   E   E   M   S   E   E   M   S   E   
E   M   S   E   E   M   S   E   E   M   S   E   E   M   S   E   E   M   S   E   
E   M   S   E   E   M   S   E   E   M   S   E   E   M   S   E   E   M   S   E   
E   M   S   E   E   M   S   E   E   M   S   E   E   M   S   E   E   M   S   E   
E   M   S   E   E   M   S   E   E   M   S   E   E   M   S   E   E   M   S   E   
E   M   S   E   E   M   S   E   E   M   S   E   E   M   S   E   E   M   S   E   
E   M   S   E   E   M   S   E   E   M   S   E   E   M   S   E   E   M   S   E   
E   M   S   E   E   M   S   E   E   M   S   E   E   M   S   E   E   M   S   E   
E   M   S   E   E   M   S   E   E   M   S   E   E   M   S   E   E   M   S   E   
E   M   S   E   E   M   S   E   E   M   S   E   E   M   S   E   E   M   S   E   
E   M   S   E   E   M   S   E   E   M   S   E   E   M   S   E   E   M   S   E   
E   M   S   E   E   M   S   E   E   M   S   E   E   M   S   E   E   M   S   E   
E   M   S   E   E   M   S   E   E   M   S   E   E   M   S   E   E   M   S   E   
E   M   S   E   E   M   S   E   E   M   S   E   E   M   S   E   E   M   S   E   
E   M   S   E   E   M   S   E   E   M   S   E   E   M   S   E   E   M   S   E   
E   M   S   E   E   M   S   E   E   M   S   E   E   M   S   E   E   M   S   E   
E   M   S   E   E   M   S   E   E   M   S   E   E   M   S   E   E   M   S   E   
E   M   S   E   E   M   S   E   E   M   S   E   E   M   S   E   E   M   S   E   
E   M   S   E   E   M   S   E   E   M   S   E   E   M   S   E   E   M   S   E   
E   M   S   E   E   M   S   E   E   M   S   E   E   M   S   E   E   M   S   E   
E   M   S   E   E   M   S   E   E   M   S   E   E   M   S   E   E   M   S   E   
E   M   S   E   E   M   S   E   E   M   S   E   E   M   S   E   E   M   S   E   
E   M   S   E   E   M   S   E   E   M   S   E   E   M   S   E   E   M   S   E   
E   M   S   E   E   M   S   E   E   M   S   E   E   M   S   E   E   M   S   E   
E   M   S   E   E   M   S   E   E   M   S   E   E   M   S   E   E   M   S   E   
E   M   S   E   E   M   S   E   E   M   S   E   E   M   S   E   E   M   S   E   
E   M   S   E   E   M   S   E   E   M   S   E   E   M   S   E   E   M   S   E   
E   M   S   E   E   M   S   E   E   M   S   E   E   M   S   E   E   M   S   E   
E   M   S   E   E   M   S   E   E   M   S   E   E   M   S   E   E   M   S   E   
E   M   S   E   E   M   S   E   E   M   S   E   E   M   S   E   E   M   S   E   
E   M   S   E   E   M   S   E   E   M   S   E   E   M   S   E   E   M   S   E   
E   M   S   E   E   M   S   E   E   M   S   E   E   M   S   E   E   M   S   E   
E   M   S   E   E   M   S   E   E   M   S   E   E   M   S   E   E   M   S   E   
E   M   S   E   E   M   S   E   E   M   S   E   E   M   S   E   E   M   S   E   
E   M   S   E   E   M   S   E   E   M   S   E   E   M   S   E   E   M   S   E   
E   M   S   E   E   M   S   E   E   M   S   E   E   M   S   E   E   M   S   E   
E   M   S   E   E   M   S   E   E   M   S   E   E   M   S   E   E   M   S   E   
E   M   S   E   E   M   S   E   E   M   S   E   E   M   S   E   E   M   S   E   
E   M   S   E   E   M   S   E   E   M   S   E   E   M   S   E   E   M   S   E   
E   M   S   E   E   M   S   E   E   M   S   E   E   M   S   E   E   M   S   E   
E   M   S   E   E   M   S   E   E   M   S   E   E   M   S   E   E   M   S   E   
E   M   S   E   E   M   S   E   E   M   S   E   E   M   S   E   E   M   S   E   
E   M   S   E   E   M   S   E   E   M   S   E   E   M   S   E   E   M   S   E   
E   M   S   E   E   M   S   E   E   M   S   E   E   M   S   E   E   M   S   E   
E   M   S   E   E   M   S   E   E   M   S   E   E   M   S   E   E   M   S   E   
E   M   S   E   E   M   S   E   E   M   S   E   E   M   S   E   E   M   S   E   
E   M   S   E   E   M   S   E   E   M   S   E   E   M   S   E   E   M   S   E   
E   M   S   E   E   M   S   E   E   M   S   E   E   M   S   E   E   M   S   E   
E   M   S   E   E   M   S   E   E   M   S   E   E   M   S   E   E   M   S   E   
E   M   S   E   E   M   S   E   E   M   S   E   E   M   S   E   E   M   S   E   
E   M   S   E   E   M   S   E   E   M   S   E   E   M   S   E   E   M   S   E   
E   M   S   E   E   M   S   E   E   M   S   E   E   M   S   E   E   M   S   E   
E   M   S   E   E   M   S   E   E   M   S   E   E   M   S   E   E   M   S   E   
E   M   S   E   E   M   S   E   E   M   S   E   E   M   S   E   E   M   S   E   
E   M   S   E   E   M   S   E   E   M   S   E   E   M   S   E   E   M   S   E   
E   M   S   E   E   M   S   E   E   M   S   E   E   M   S   E   E   M   S   E   
E   M   S   E   E   M   S   E   E   M   S   E   E   M   S   E   E   M   S   E   
E   M   S   E   E   M   S   E   E   M   S   E   E   M   S   E   E   M   S   E   
E   M   S   E   E   M   S   E   E   M   S   E   E   M   S   E   E   M   S   E   
E   M   S   E   E   M   S   E   E   M   S   E   E   M   S   E   E   M   S   E   
E   M   S   E   E   M   S   E   E   M   S   E   E   M   S   E   E   M   S   E   
E   M   S   E   E   M   S   E   E   M   S   E   E   M   S   E   E   M   S   E   
E   M   S   E   E   M   S   E   E   M   S   E   E   M   S   E   E   M   S   E   
E   M   S   E   E   M   S   E   E   M   S   E   E   M   S   E   E   M   S   E   
E   M   S   E   E   M   S   E   E   M   S   E   E   M   S   E   E   M   S   E   
E   M   S   E   E   M   S   E   E   M   S   E   E   M   S   E   E   M   S   E   
E   M   S   E   E   M   S   E   E   M   S   E   E   M   S   E   E   M   S   E   
E   M   S   E   E   M   S   E   E   M   S   E   E   M   S   E   E   M   S   E   
E   M   S   E   E   M   S   E   E   M   S   E   E   M   S   E   E   M   S   E   
E   M   S   E   E   M   S   E   E   M   S   E   E   M   S   E   E   M   S   E   
E   M   S   E   E   M   S   E   E   M   S   E   E   M   S   E   E   M   S   E   
E   M   S   E   E   M   S   E   E   M   S   E   E   M   S   E   E   M   S   E   
E   M   S   E   E   M   S   E   E   M   S   E   E   M   S   E   E   M   S   E   
E   M   S   E   E   M   S   E   E   M   S   E   E   M   S   E   E   M   S   E   
E   M   S   E   E   M   S   E   E   M   S   E   E   M   S   E   E   M   S   E   
E   M   S   E   E   M   S   E   E   M   S   E   E   M   S   E   E   M   S   E   
E   M   S   E   E   M   S   E   E   M   S   E   E   M   S   E   E   M   S   E   
E   M   S   E   E   M   S   E   E   M   S   E   E   M   S   E   E   M   S   E   
E   M   S   E   E   M   S   E   E   M   S   E   E   M   S   E   E   M   S   E   
E   M   S   E   E   M   S   E   E   M   S   E   E   M   S   E   E   M   S   E   
E   M   S   E   E   M   S   E   E   M   S   E   E   M   S   E   E   M   S   E   
E   M   S   E   E   M   S   E   E   M   S   E   E   M   S   E   E   M   S   E   
E   M   S   E   E   M   S   E   E   M   S   E   E   M   S   E   E   M   S   E   
E   M   S   E   E   M   S   E   E   M   S   E   E   M   S   E   E   M   S   E   
E   M   S   E   E   M   S   E   E   M   S   E   E   M   S   E   E   M   S   E   
E   M   S   E   E   M   S   E   E   M   S   E   E   M   S   E   E   M   S   E   
E   M   S   E   E   M   S   E   E   M   S   E   E   M   S   E   E   M   S   E   
E   M   S   E   E   M   S   E   E   M   S   E   E   M   S   E   E   M   S   E   
E   M   S   E   E   M   S   E   E   M   S   E   E   M   S   E   E   M   S   E   
E   M   S   E   E   M   S   E   E   M   S   E   E   M   S   E   E   M   S   E   
E   M   S   E   E   M   S   E   E   M   S   E   E   M   S   E   E   M   S   E   
E   M   S   E   E   M   S   E   E   M   S   E   E   M   S   E   E   M   S   E   
E   M   S   E   E   M   S   E   E   M   S   E   E   M   S   E   E   M   S   E   
E   M   S   E   E   M   S   E   E   M   S   E   E   M   S   E   E   M   S   E   
E   M   S   E   E   M   S   E   E   M   S   E   E   M   S   E   E   M   S   E   
E   M   S   E   E   M   S   E   E   M   S   E   E   M   S   E   E   M   S   E   
E   M   S   E   E   M   S   E   E   M   S   E   E   M   S   E   E   M   S   E   
E   M   S   E   E   M   S   E   E   M   S   E   E   M   S   E   E   M   S   E   
E   M   S   E   E   M   S   E   E   M   S   E   E   M   S   E   E   M   S   E   
E   M   S   E   E   M   S   E   E   M   S   E   E   M   S   E   E   M   S   E   
E   M   S   E   E   M   S   E   E   M   S   E   E   M   S   E   E   M   S   E   
E   M   S   E   E   M   S   E   E   M   S   E   E   M   S   E   E   M   S   E   
E   M   S   E   E   M   S   E   E   M   S   E   E   M   S   E   E   M   S   E   
E   M   S   E   E   M   S   E   E   M   S   E   E   M   S   E   E   M   S   E   
E   M   S   E   E   M   S   E   E   M   S   E   E   M   S   E   E   M   S   E   
E   M   S   E   E   M   S   E   E   M   S   E   E   M   S   E   E   M   S   E   
E   M   S   E   E   M   S   E   E   M   S   E   E   M   S   E   E   M   S   E   
E   M   S   E   E   M   S   E   E   M   S   E   E   M   S   E   E   M   S   E   
E   M   S   E   E   M   S   E   E   M   S   E   E   M   S   E   E   M   S   E   
E   M   S   E   E   M   S   E   E   M   S   E   E   M   S   E   E   M   S   E   
E   M   S   E   E   M   S   E   E   M   S   E   E   M   S   E   E   M   S   E   
E   M   S   E   E   M   S   E   E   M   S   E   E   M   S   E   E   M   S   E   
E   M   S   E   E   M   S   E   E   M   S   E   E   M   S   E   E   M   S   E   
E   M   S   E   E   M   S   E   E   M   S   E   E   M   S   E   E   M   S   E   
E   M   S   E   E   M   S   E   E   M   S   E   E   M   S   E   E   M   S   E   
E   M   S   E   E   M   S   E   E   M   S   E   E   M   S   E   E   M   S   E   
E   M   S   E   E   M   S   E   E   M   S   E   E   M   S   E   E   M   S   E   
E   M   S   E   E   M   S   E   E   M   S   E   E   M   S   E   E   M   S   E   
E   M   S   E   E   M   S   E   E   M   S   E   E   M   S   E   E   M   S   E   
E   M   S   E   E   M   S   E   E   M   S   E   E   M   S   E   E   M   S   E   
E   M   S   E   E   M   S   E   E   M   S   E   E   M   S   E   E   M   S   E   
E   M   S   E   E   M   S   E   E   M   S   E   E   M   S   E   E   M   S   E   
E   M   S   E   E   M   S   E   E   M   S   E   E   M   S   E   E   M   S   E   
E   M   S   E   E   M   S   E   E   M   S   E   E   M   S   E   E   M   S   E   
E   M   S   E   E   M   S   E   E   M   S   E   E   M   S   E   E   M   S   E   
E   M   S   E   E   M   S   E   E   M   S   E   E   M   S   E   E   M   S   E   
E   M   S   E   E   M   S   E   E   M   S   E   E   M   S   E   E   M   S   E   
E   M   S   E   E   M   S   E   E   M   S   E   E   M   S   E   E   M   S   E   
E   M   S   E   E   M   S   E   E   M   S   E   E   M   S   E   E   M   S   E   
E   M   S   E   E   M   S   E   E   M   S   E   E   M   S   E   E   M   S   E   
E   M   S   E   E   M   S   E   E   M   S   E   E   M   S   E   E   M   S   E   
E   M   S   E   E   M   S   E   E   M   S   E   E   M   S   E   E   M   S   E   
E   M   S   E   E   M   S   E   E   M   S   E   E   M   S   E   E   M   S   E   
E   M   S   E   E   M   S   E   E   M   S   E   E   M   S   E   E   M   S   E   
E   M   S   E   E   M   S   E   E   M   S   E   E   M   S   E   E   M   S   E   
E   M   S   E   E   M   S   E   E   M   S   E   E   M   S   E   E   M   S   E   
E   M   S   E   E   M   S   E   E   M   S   E   E   M   S   E   E   M   S   E   
E   M   S   E   E   M   S   E   E   M   S   E   E   M   S   E   E   M   S   E   
E   M   S   E   E   M   S   E   E   M   S   E   E   M   S   E   E   M   S   E   
E   M   S   E   E   M   S   E   E   M   S   E   E   M   S   E   E   M   S   E   
E   M   S   E   E   M   S   E   E   M   S   E   E   M   S   E   E   M   S   E   
E   M   S   E   E   M   S   E   E   M   S   E   E   M   S   E   E   M   S   E   
E   M   S   E   E   M   S   E   E   M   S   E   E   M   S   E   E   M   S   E   
E   M   S   E   E   M   S   E   E   M   S   E   E   M   S   E   E   M   S   E   
E   M   S   E   E   M   S   E   E   M   S   E   E   M   S   E   E   M   S   E   
E   M   S   E   E   M   S   E   E   M   S   E   E   M   S   E   E   M   S   E   
E   M   S   E   E   M   S   E   E   M   S   E   E   M   S   E   E   M   S   E   
E   M   S   E   E   M   S   E   E   M   S   E   E   M   S   E   E   M   S   E   
E   M   S   E   E   M   S   E   E   M   S   E   E   M   S   E   E   M   S   E   
E   M   S   E   E   M   S   E   E   M   S   E   E   M   S   E   E   M   S   E   
E   M   S   E   E   M   S   E   E   M   S   E   E   M   S   E   E   M   S   E   
E   M   S   E   E   M   S   E   E   M   S   E   E   M   S   E   E   M   S   E   
E   M   S   E   E   M   S   E   E   M   S   E   E   M   S   E   E   M   S   E   
E   M   S   E   E   M   S   E   E   M   S   E   E   M   S   E   E   M   S   E   
E   M   S   E   E   M   S   E   E   M   S   E   E   M   S   E   E   M   S   E   
E   M   S   E   E   M   S   E   E   M   S   E   E   M   S   E   E   M   S   E   
E   M   S   E   E   M   S   E   E   M   S   E   E   M   S   E   E   M   S   E   
E   M   S   E   E   M   S   E   E   M   S   E   E   M   S   E   E   M   S   E   
E   M   S   E   E   M   S   E   E   M   S   E   E   M   S   E   E   M   S   E   
E   M   S   E   E   M   S   E   E   M   S   E   E   M   S   E   E   M   S   E   
E   M   S   E   E   M   S   E   E   M   S   E   E   M   S   E   E   M   S   E   
E   M   S   E   E   M   S   E   E   M   S   E   E   M   S   E   E   M   S   E   
E   M   S   E   E   M   S   E   E   M   S   E   E   M   S   E   E   M   S   E   
E   M   S   E   E   M   S   E   E   M   S   E   E   M   S   E   E   M   S   E   
E   M   S   E   E   M   S   E   E   M   S   E   E   M   S   E   E   M   S   E   
E   M   S   E   E   M   S   E   E   M   S   E   E   M   S   E   E   M   S   E   
E   M   S   E   E   M   S   E   E   M   S   E   E   M   S   E   E   M   S   E   
E   M   S   E   E   M   S   E   E   M   S   E   E   M   S   E   E   M   S   E   
E   M   S   E   E   M   S   E   E   M   S   E   E   M   S   E   E   M   S   E   
E   M   S   E   E   M   S   E   E   M   S   E   E   M   S   E   E   M   S   E   
E   M   S   E   E   M   S   E   E   M   S   E   E   M   S   E   E   M   S   E   
E   M   S   E   E   M   S   E   E   M   S   E   E   M   S   E   E   M   S   E   
E   M   S   E   E   M   S   E   E   M   S   E   E   M   S   E   E   M   S   E   
E   M   S   E   E   M   S   E   E   M   S   E   E   M   S   E   E   M   S   E   
E   M   S   E   E   M   S   E   E   M   S   E   E   M   S   E   E   M   S   E   
E   M   S   E   E   M   S   E   E   M   S   E   E   M   S   E   E   M   S   E   
E   M   S   E   E   M   S   E   E   M   S   E   E   M   S   E   E   M   S   E   
E   M   S   E   E   M   S   E   E   M   S   E   E   M   S   E   E   M   S   E   
E   M   S   E   E   M   S   E   E   M   S   E   E   M   S   E   E   M   S   E   
E   M   S   E   E   M   S   E   E   M   S   E   E   M   S   E   E   M   S   E   
E   M   S   E   E   M   S   E   E   M   S   E   E   M   S   E   E   M   S   E   
E   M   S   E   E   M   S   E   E   M   S   E   E   M   S   E   E   M   S   E   
E   M   S   E   E   M   S   E   E   M   S   E   E   M   S   E   E   M   S   E   
E   M   S   E   E   M   S   E   E   M   S   E   E   M   S   E   E   M   S   E   
E   M   S   E   E   M   S   E   E   M   S   E   E   M   S   E   E   M   S   E   
E   M   S   E   E   M   S   E   E   M   S   E   E   M   S   E   E   M   S   E   
E   M   S   E   E   M   S   E   E   M   S   E   E   M   S   E   E   M   S   E   
E   M   S   E   E   M   S   E   E   M   S   E   E   M   S   E   E   M   S   E   
E   M   S   E   E   M   S   E   E   M   S   E   E   M   S   E   E   M   S   E   
E   M   S   E   E   M   S   E   E   M   S   E   E   M   S   E   E   M   S   E   
E   M   S   E   E   M   S   E   E   M   S   E   E   M   S   E   E   M   S   E   
E   M   S   E   E   M   S   E   E   M   S   E   E   M   S   E   E   M   S   E   
E   M   S   E   E   M   S   E   E   M   S   E   E   M   S   E   E   M   S   E   
E   M   S   E   E   M   S   E   E   M   S   E   E   M   S   E   E   M   S   E   
E   M   S   E   E   M   S   E   E   M   S   E   E   M   S   E   E   M   S   E   
E   M   S   E   E   M   S   E   E   M   S   E   E   M   S   E   E   M   S   E   
E   M   S   E   E   M   S   E   E   M   S   E   E   M   S   E   E   M   S   E   
E   M   S   E   E   M   S   E   E   M   S   E   E   M   S   E   E   M   S   E   
E   M   S   E   E   M   S   E   E   M   S   E   E   M   S   E   E   M   S   E   
E   M   S   E   E   M   S   E   E   M   S   E   E   M   S   E   E   M   S   E   
E   M   S   E   E   M   S   E   E   M   S   E   E   M   S   E   E   M   S   E   
E   M   S   E   E   M   S   E   E   M   S   E   E   M   S   E   E   M   S   E   
E   M   S   E   E   M   S   E   E   M   S   E   E   M   S   E   E   M   S   E   
E   M   S   E   E   M   S   E   E   M   S   E   E   M   S   E   E   M   S   E   
E   M   S   E   E   M   S   E   E   M   S   E   E   M   S   E   E   M   S   E   
E   M   S   E   E   M   S   E   E   M   S   E   E   M   S   E   E   M   S   E   
E   M   S   E   E   M   S   E   E   M   S   E   E   M   S   E   E   M   S   E   
E   M   S   E   E   M   S   E   E   M   S   E   E   M   S   E   E   M   S   E   
E   M   S   E   E   M   S   E   E   M   S   E   E   M   S   E   E   M   S   E   
E   M   S   E   E   M   S   E   E   M   S   E   E   M   S   E   E   M   S   E   
E   M   S   E   E   M   S   E   E   M   S   E   E   M   S   E   E   M   S   E   
E   M   S   E   E   M   S   E   E   M   S   E   E   M   S   E   E   M   S   E   
E   M   S   E   E   M   S   E   E   M   S   E   E   M   S   E   E   M   S   E   
E   M   S   E   E   M   S   E   E   M   S   E   E   M   S   E   E   M   S   E   
E   M   S   E   E   M   S   E   E   M   S   E   E   M   S   E   E   M   S   E   
E   M   S   E   E   M   S   E   E   M   S   E   E   M   S   E   E   M   S   E   
E   M   S   E   E   M   S   E   E   M   S   E   E   M   S   E   E   M   S   E   
E   M   S   E   E   M   S   E   E   M   S   E   E   M   S   E   E   M   S   E   
E   M   S   E   E   M   S   E   E   M   S   E   E   M   S   E   E   M   S   E   
E   M   S   E   E   M   S   E   E   M   S   E   E   M   S   E   E   M   S   E   
E   M   S   E   E   M   S   E   E   M   S   E   E   M   S   E   E   M   S   E   
E   M   S   E   E   M   S   E   E   M   S   E   E   M   S   E   E   M   S   E   
E   M   S   E   E   M   S   E   E   M   S   E   E   M   S   E   E   M   S   E   
E   M   S   E   E   M   S   E   E   M   S   E   E   M   S   E   E   M   S   E   
E   M   S   E   E   M   S   E   E   M   S   E   E   M   S   E   E   M   S   E   
E   M   S   E   E   M   S   E   E   M   S   E   E   M   S   E   E   M   S   E   
E   M   S   E   E   M   S   E   E   M   S   E   E   M   S   E   E   M   S   E   
E   M   S   E   E   M   S   E   E   M   S   E   E   M   S   E   E   M   S   E   
E   M   S   E   E   M   S   E   E   M   S   E   E   M   S   E   E   M   S   E   
E   M   S   E   E   M   S   E   E   M   S   E   E   M   S   E   E   M   S   E   
E   M   S   E   E   M   S   E   E   M   S   E   E   M   S   E   E   M   S   E   
E   M   S   E   E   M   S   E   E   M   S   E   E   M   S   E   E   M   S   E   
E   M   S   E   E   M   S   E   E   M   S   E   E   M   S   E   E   M   S   E   
E   M   S   E   E   M   S   E   E   M   S   E   E   M   S   E   E   M   S   E   
E   M   S   E   E   M   S   E   E   M   S   E   E   M   S   E   E   M   S   E   
E   M   S   E   E   M   S   E   E   M   S   E   E   M   S   E   E   M   S   E   
E   M   S   E   E   M   S   E   E   M   S   E   E   M   S   E   E   M   S   E   
E   M   S   E   E   M   S   E   E   M   S   E   E   M   S   E   E   M   S   E   
E   M   S   E   E   M   S   E   E   M   S   E   E   M   S   E   E   M   S   E   
E   M   S   E   E   M   S   E   E   M   S   E   E   M   S   E   E   M   S   E   
E   M   S   E   E   M   S   E   E   M   S   E   E   M   S   E   E   M   S   E   
E   M   S   E   E   M   S   E   E   M   S   E   E   M   S   E   E   M   S   E   
E   M   S   E   E   M   S   E   E   M   S   E   E   M   S   E   E   M   S   E   
E   M   S   E   E   M   S   E   E   M   S   E   E   M   S   E   E   M   S   E   
E   M   S   E   E   M   S   E   E   M   S   E   E   M   S   E   E   M   S   E   
E   M   S   E   E   M   S   E   E   M   S   E   E   M   S   E   E   M   S   E   
E   M   S   E   E   M   S   E   E   M   S   E   E   M   S   E   E   M   S   E   
E   M   S   E   E   M   S   E   E   M   S   E   E   M   S   E   E   M   S   E   
E   M   S   E   E   M   S   E   E   M   S   E   E   M   S   E   E   M   S   E   
E   M   S   E   E   M   S   E   E   M   S   E   E   M   S   E   E   M   S   E   
E   M   S   E   E   M   S   E   E   M   S   E   E   M   S   E   E   M   S   E   
E   M   S   E   E   M   S   E   E   M   S   E   E   M   S   E   E   M   S   E   
E   M   S   E   E   M   S   E   E   M   S   E   E   M   S   E   E   M   S   E   
E   M   S   E   E   M   S   E   E   M   S   E   E   M   S   E   E   M   S   E   
E   M   S   E   E   M   S   E   E   M   S   E   E   M   S   E   E   M   S   E   
E   M   S   E   E   M   S   E   E   M   S   E   E   M   S   E   E   M   S   E   
E   M   S   E   E   M   S   E   E   M   S   E   E   M   S   E   E   M   S   E   
E   M   S   E   E   M   S   E   E   M   S   E   E   M   S   E   E   M   S   E   
E   M   S   E   E   M   S   E   E   M   S   E   E   M   S   E   E   M   S   E   
E   M   S   E   E   M   S   E   E   M   S   E   E   M   S   E   E   M   S   E   
E   M   S   E   E   M   S   E   E   M   S   E   E   M   S   E   E   M   S   E   
E   M   S   E   E   M   S   E   E   M   S   E   E   M   S   E   E   M   S   E   
E   M   S   E   E   M   S   E   E   M   S   E   E   M   S   E   E   M   S   E   
E   M   S   E   E   M   S   E   E   M   S   E   E   M   S   E   E   M   S   E   
E   M   S   E   E   M   S   E   E   M   S   E   E   M   S   E   E   M   S   E   
E   M   S   E   E   M   S   E   E   M   S   E   E   M   S   E   E   M   S   E   
E   M   S   E   E   M   S   E   E   M   S   E   E   M   S   E   E   M   S   E   
E   M   S   E   E   M   S   E   E   M   S   E   E   M   S   E   E   M   S   E   
E   M   S   E   E   M   S   E   E   M   S   E   E   M   S   E   E   M   S   E   
E   M   S   E   E   M   S   E   E   M   S   E   E   M   S   E   E   M   S   E   
E   M   S   E   E   M   S   E   E   M   S   E   E   M   S   E   E   M   S   E   
E   M   S   E   E   M   S   E   E   M   S   E   E   M   S   E   E   M   S   E   
E   M   S   E   E   M   S   E   E   M   S   E   E   M   S   E   E   M   S   E   
E   M   S   E   E   M   S   E   E   M   S   E   E   M   S   E   E   M   S   E   
E   M   S   E   E   M   S   E   E   M   S   E   E   M   S   E   E   M   S   E   
E   M   S   E   E   M   S   E   E   M   S   E   E   M   S   E   E   M   S   E   
E   M   S   E   E   M   S   E   E   M   S   E   E   M   S   E   E   M   S   E   
E   M   S   E   E   M   S   E   E   M   S   E   E   M   S   E   E   M   S   E   
E   M   S   E   E   M   S   E   E   M   S   E   E   M   S   E   E   M   S   E   
E   M   S   E   E   M   S   E   E   M   S   E   E   M   S   E   E   M   S   E   
E   M   S   E   E   M   S   E   E   M   S   E   E   M   S   E   E   M   S   E   
E   M   S   E   E   M   S   E   E   M   S   E   E   M   S   E   E   M   S   E   
E   M   S   E   E   M   S   E   E   M   S   E   E   M   S   E   E   M   S   E   
E   M   S   E   E   M   S   E   E   M   S   E   E   M   S   E   E   M   S   E   
E   M   S   E   E   M   S   E   E   M   S   E   E   M   S   E   E   M   S   E   
E   M   S   E   E   M   S   E   E   M   S   E   E   M   S   E   E   M   S   E   
E   M   S   E   E   M   S   E   E   M   S   E   E   M   S   E   E   M   S   E   
E   M   S   E   E   M   S   E   E   M   S   E   E   M   S   E   E   M   S   E   
E   M   S   E   E   M   S   E   E   M   S   E   E   M   S   E   E   M   S   E   
E   M   S   E   E   M   S   E   E   M   S   E   E   M   S   E   E   M   S   E   
E   M   S   E   E   M   S   E   E   M   S   E   E   M   S   E   E   M   S   E   
E   M   S   E   E   M   S   E   E   M   S   E   E   M   S   E   E   M   S   E   
E   M   S   E   E   M   S   E   E   M   S   E   E   M   S   E   E   M   S   E   
E   M   S   E   E   M   S   E   E   M   S   E   E   M   S   E   E   M   S   E   
E   M   S   E   E   M   S   E   E   M   S   E   E   M   S   E   E   M   S   E   
E   M   S   E   E   M   S   E   E   M   S   E   E   M   S   E   E   M   S   E   
E   M   S   E   E   M   S   E   E   M   S   E   E   M   S   E   E   M   S   E   
E   M   S   E   E   M   S   E   E   M   S   E   E   M   S   E   E   M   S   E   
E   M   S   E   E   M   S   E   E   M   S   E   E   M   S   E   E   M   S   E   
E   M   S   E   E   M   S   E   E   M   S   E   E   M   S   E   E   M   S   E   
E   M   S   E   E   M   S   E   E   M   S   E   E   M   S   E   E   M   S   E   
E   M   S   E   E   M   S   E   E   M   S   E   E   M   S   E   E   M   S   E   
E   M   S   E   E   M   S   E   E   M   S   E   E   M   S   E   E   M   S   E   
E   M   S   E   E   M   S   E   E   M   S   E   E   M   S   E   E   M   S   E   
E   M   S   E   E   M   S   E   E   M   S   E   E   M   S   E   E   M   S   E   
E   M   S   E   E   M   S   E   E   M   S   E   E   M   S   E   E   M   S   E   
E   M   S   E   E   M   S   E   E   M   S   E   E   M   S   E   E   M   S   E   
E   M   S   E   E   M   S   E   E   M   S   E   E   M   S   E   E   M   S   E   
E   M   S   E   E   M   S   E   E   M   S   E   E   M   S   E   E   M   S   E   
E   M   S   E   E   M   S   E   E   M   S   E   E   M   S   E   E   M   S   E   
E   M   S   E   E   M   S   E   E   M   S   E   E   M   S   E   E   M   S   E   
E   M   S   E   E   M   S   E   E   M   S   E   E   M   S   E   E   M   S   E   
E   M   S   E   E   M   S   E   E   M   S   E   E   M   S   E   E   M   S   E   
E   M   S   E   E   M   S   E   E   M   S   E   E   M   S   E   E   M   S   E   
E   M   S   E   E   M   S   E   E   M   S   E   E   M   S   E   E   M   S   E   
E   M   S   E   E   M   S   E   E   M   S   E   E   M   S   E   E   M   S   E   
E   M   S   E   E   M   S   E   E   M   S   E   E   M   S   E   E   M   S   E   
E   M   S   E   E   M   S   E   E   M   S   E   E   M   S   E   E   M   S   E   
E   M   S   E   E   M   S   E   E   M   S   E   E   M   S   E   E   M   S   E   
E   M   S   E   E   M   S   E   E   M   S   E   E   M   S   E   E   M   S   E   
E   M   S   E   E   M   S   E   E   M   S   E   E   M   S   E   E   M   S   E   
E   M   S   E   E   M   S   E   E   M   S   E   E   M   S   E   E   M   S   E   
E   M   S   E   E   M   S   E   E   M   S   E   E   M   S   E   E   M   S   E   
E   M   S   E   E   M   S   E   E   M   S   E   E   M   S   E   E   M   S   E   
E   M   S   E   E   M   S   E   E   M   S   E   E   M   S   E   E   M   S   E   
E   M   S   E   E   M   S   E   E   M   S   E   E   M   S   E   E   M   S   E   
E   M   S   E   E   M   S   E   E   M   S   E   E   M   S   E   E   M   S   E   
E   M   S   E   E   M   S   E   E   M   S   E   E   M   S   E   E   M   S   E   
E   M   S   E   E   M   S   E   E   M   S   E   E   M   S   E   E   M   S   E   
E   M   S   E   E   M   S   E   E   M   S   E   E   M   S   E   E   M   S   E   
E   M   S   E   E   M   S   E   E   M   S   E   E   M   S   E   E   M   S   E   
E   M   S   E   E   M   S   E   E   M   S   E   E   M   S   E   E   M   S   E   
E   M   S   E   E   M   S   E   E   M   S   E   E   M   S   E   E   M   S   E   
E   M   S   E   E   M   S   E   E   M   S   E   E   M   S   E   E   M   S   E   
E   M   S   E   E   M   S   E   E   M   S   E   E   M   S   E   E   M   S   E   
E   M   S   E   E   M   S   E   E   M   S   E   E   M   S   E   E   M   S   E   
E   M   S   E   E   M   S   E   E   M   S   E   E   M   S   E   E   M   S   E   
E   M   S   E   E   M   S   E   E   M   S   E   E   M   S   E   E   M   S   E   
E   M   S   E   E   M   S   E   E   M   S   E   E   M   S   E   E   M   S   E   
E   M   S   E   E   M   S   E   E   M   S   E   E   M   S   E   E   M   S   E   
E   M   S   E   E   M   S   E   E   M   S   E   E   M   S   E   E   M   S   E   
E   M   S   E   E   M   S   E   E   M   S   E   E   M   S   E   E   M   S   E   
E   M   S   E   E   M   S   E   E   M   S   E   E   M   S   E   E   M   S   E   
E   M   S   E   E   M   S   E   E   M   S   E   E   M   S   E   E   M   S   E   
E   M   S   E   E   M   S   E   E   M   S   E   E   M   S   E   E   M   S   E   
E   M   S   E   E   M   S   E   E   M   S   E   E   M   S   E   E   M   S   E   
E   M   S   E   E   M   S   E   E   M   S   E   E   M   S   E   E   M   S   E   
E   M   S   E   E   M   S   E   E   M   S   E   E   M   S   E   E   M   S   E   
E   M   S   E   E   M   S   E   E   M   S   E   E   M   S   E   E   M   S   E   
E   M   S   E   E   M   S   E   E   M   S   E   E   M   S   E   E   M   S   E   
E   M   S   E   E   M   S   E   E   M   S   E   E   M   S   E   E   M   S   E   
E   M   S   E   E   M   S   E   E   M   S   E   E   M   S   E   E   M   S   E   
E   M   S   E   E   M   S   E   E   M   S   E   E   M   S   E   E   M   S   E   
E   M   S   E   E   M   S   E   E   M   S   E   E   M   S   E   E   M   S   E   
E   M   S   E   E   M   S   E   E   M   S   E   E   M   S   E   E   M   S   E   
E   M   S   E   E   M   S   E   E   M   S   E   E   M   S   E   E   M   S   E   
E   M   S   E   E   M   S   E   E   M   S   E   E   M   S   E   E   M   S   E   
E   M   S   E   E   M   S   E   E   M   S   E   E   M   S   E   E   M   S   E   
E   M   S   E   E   M   S   E   E   M   S   E   E   M   S   E   E   M   S   E   
E   M   S   E   E   M   S   E   E   M   S   E   E   M   S   E   E   M   S   E   
E   M   S   E   E   M   S   E   E   M   S   E   E   M   S   E   E   M   S   E   
E   M   S   E   E   M   S   E   E   M   S   E   E   M   S   E   E   M   S   E   
E   M   S   E   E   M   S   E   E   M   S   E   E   M   S   E   E   M   S   E   
E   M   S   E   E   M   S   E   E   M   S   E   E   M   S   E   E   M   S   E   
E   M   S   E   E   M   S   E   E   M   S   E   E   M   S   E   E   M   S   E   
E   M   S   E   E   M   S   E   E   M   S   E   E   M   S   E   E   M   S   E   
E   M   S   E   E   M   S   E   E   M   S   E   E   M   S   E   E   M   S   E   
E   M   S   E   E   M   S   E   E   M   S   E   E   M   S   E   E   M   S   E   
E   M   S   E   E   M   S   E   E   M   S   E   E   M   S   E   E   M   S   E   
E   M   S   E   E   M   S   E   E   M   S   E   E   M   S   E   E   M   S   E   
E   M   S   E   E   M   S   E   E   M   S   E   E   M   S   E   E   M   S   E   
E   M   S   E   E   M   S   E   E   M   S   E   E   M   S   E   E   M   S   E   
E   M   S   E   E   M   S   E   E   M   S   E   E   M   S   E   E   M   S   E   
E   M   S   E   E   M   S   E   E   M   S   E   E   M   S   E   E   M   S   E   
E   M   S   E   E   M   S   E   E   M   S   E   E   M   S   E   E   M   S   E   
E   M   S   E   E   M   S   E   E   M   S   E   E   M   S   E   E   M   S   E   
E   M   S   E   E   M   S   E   E   M   S   E   E   M   S   E   E   M   S   E   
E   M   S   E   E   M   S   E   E   M   S   E   E   M   S   E   E   M   S   E   
E   M   S   E   E   M   S   E   E   M   S   E   E   M   S   E   E   M   S   E   
E   M   S   E   E   M   S   E   E   M   S   E   E   M   S   E   E   M   S   E   
E   M   S   E   E   M   S   E   E   M   S   E   E   M   S   E   E   M   S   E   
E   M   S   E   E   M   S   E   E   M   S   E   E   M   S   E   E   M   S   E   
E   M   S   E   E   M   S   E   E   M   S   E   E   M   S   E   E   M   S   E   
E   M   S   E   E   M   S   E   E   M   S   E   E   M   S   E   E   M   S   E   
E   M   S   E   E   M   S   E   E   M   S   E   E   M   S   E   E   M   S   E   
E   M   S   E   E   M   S   E   E   M   S   E   E   M   S   E   E   M   S   E   
E   M   S   E   E   M   S   E   E   M   S   E   E   M   S   E   E   M   S   E   
E   M   S   E   E   M   S   E   E   M   S   E   E   M   S   E   E   M   S   E   
E   M   S   E   E   M   S   E   E   M   S   E   E   M   S   E   E   M   S   E   
E   M   S   E   E   M   S   E   E   M   S   E   E   M   S   E   E   M   S   E   
E   M   S   E   E   M   S   E   E   M   S   E   E   M   S   E   E   M   S   E   
E   M   S   E   E   M   S   E   E   M   S   E   E   M   S   E   E   M   S   E   
E   M   S   E   E   M   S   E   E   M   S   E   E   M   S   E   E   M   S   E   
E   M   S   E   E   M   S   E   E   M   S   E   E   M   S   E   E   M   S   E   
E   M   S   E   E   M   S   E   E   M   S   E   E   M   S   E   E   M   S   E   
E   M   S   E   E   M   S   E   E   M   S   E   E   M   S   E   E   M   S   E   
E   M   S   E   E   M   S   E   E   M   S   E   E   M   S   E   E   M   S   E   
E   M   S   E   E   M   S   E   E   M   S   E   E   M   S   E   E   M   S   E   
E   M   S   E   E   M   S   E   E   M   S   E   E   M   S   E   E   M   S   E   
E   M   S   E   E   M   S   E   E   M   S   E   E   M   S   E   E   M   S   E   
E   M   S   E   E   M   S   E   E   M   S   E   E   M   S   E   E   M   S   E   
E   M   S   E   E   M   S   E   E   M   S   E   E   M   S   E   E   M   S   E   
E   M   S   E   E   M   S   E   E   M   S   E   E   M   S   E   E   M   S   E   
E   M   S   E   E   M   S   E   E   M   S   E   E   M   S   E   E   M   S   E   
E   M   S   E   E   M   S   E   E   M   S   E   E   M   S   E   E   M   S   E   
E   M   S   E   E   M   S   E   E   M   S   E   E   M   S   E   E   M   S   E   
E   M   S   E   E   M   S   E   E   M   S   E   E   M   S   E   E   M   S   E   
E   M   S   E   E   M   S   E   E   M   S   E   E   M   S   E   E   M   S   E   
E   M   S   E   E   M   S   E   E   M   S   E   E   M   S   E   E   M   S   E   
E   M   S   E   E   M   S   E   E   M   S   E   E   M   S   E   E   M   S   E   
E   M   S   E   E   M   S   E   E   M   S   E   E   M   S   E   E   M   S   E   
E   M   S   E   E   M   S   E   E   M   S   E   E   M   S   E   E   M   S   E   
E   M   S   E   E   M   S   E   E   M   S   E   E   M   S   E   E   M   S   E   
E   M   S   E   E   M   S   E   E   M   S   E   E   M   S   E   E   M   S   E   
E   M   S   E   E   M   S   E   E   M   S   E   E   M   S   E   E   M   S   E   
E   M   S   E   E   M   S   E   E   M   S   E   E   M   S   E   E   M   S   E   
E   M   S   E   E   M   S   E   E   M   S   E   E   M   S   E   E   M   S   E   
E   M   S   E   E   M   S   E   E   M   S   E   E   M   S   E   E   M   S   E   
E   M   S   E   E   M   S   E   E   M   S   E   E   M   S   E   E   M   S   E   
E   M   S   E   E   M   S   E   E   M   S   E   E   M   S   E   E   M   S   E   
E   M   S   E   E   M   S   E   E   M   S   E   E   M   S   E   E   M   S   E   
E   M   S   E   E   M   S   E   E   M   S   E   E   M   S   E   E   M   S   E   
E   M   S   E   E   M   S   E   E   M   S   E   E   M   S   E   E   M   S   E   
E   M   S   E   E   M   S   E   E   M   S   E   E   M   S   E   E   M   S   E   
E   M   S   E   E   M   S   E   E   M   S   E   E   M   S   E   E   M   S   E   
E   M   S   E   E   M   S   E   E   M   S   E   E   M   S   E   E   M   S   E   
E   M   S   E   E   M   S   E   E   M   S   E   E   M   S   E   E   M   S   E   
E   M   S   E   E   M   S   E   E   M   S   E   E   M   S   E   E   M   S   E   
E   M   S   E   E   M   S   E   E   M   S   E   E   M   S   E   E   M   S   E   
E   M   S   E   E   M   S   E   E   M   S   E   E   M   S   E   E   M   S   E   
E   M   S   E   E   M   S   E   E   M   S   E   E   M   S   E   E   M   S   E   
E   M   S   E   E   M   S   E   E   M   S   E   E   M   S   E   E   M   S   E   
E   M   S   E   E   M   S   E   E   M   S   E   E   M   S   E   E   M   S   E   
E   M   S   E   E   M   S   E   E   M   S   E   E   M   S   E   E   M   S   E   
E   M   S   E   E   M   S   E   E   M   S   E   E   M   S   E   E   M   S   E   
E   M   S   E   E   M   S   E   E   M   S   E   E   M   S   E   E   M   S   E   
E   M   S   E   E   M   S   E   E   M   S   E   E   M   S   E   E   M   S   E   
E   M   S   E   E   M   S   E   E   M   S   E   E   M   S   E   E   M   S   E   
E   M   S   E   E   M   S   E   E   M   S   E   E   M   S   E   E   M   S   E   
E   M   S   E   E   M   S   E   E   M   S   E   E   M   S   E   E   M   S   E   
E   M   S   E   E   M   S   E   E   M   S   E   E   M   S   E   E   M   S   E   
E   M   S   E   E   M   S   E   E   M   S   E   E   M   S   E   E   M   S   E   
E   M   S   E   E   M   S   E   E   M   S   E   E   M   S   E   E   M   S   E   
E   M   S   E   E   M   S   E   E   M   S   E   E   M   S   E   E   M   S   E   
E   M   S   E   E   M   S   E   E   M   S   E   E   M   S   E   E   M   S   E   
E   M   S   E   E   M   S   E   E   M   S   E   E   M   S   E   E   M   S   E   
E   M   S   E   E   M   S   E   E   M   S   E   E   M   S   E   E   M   S   E   
E   M   S   E   E   M   S   E   E   M   S   E   E   M   S   E   E   M   S   E   
E   M   S   E   E   M   S   E   E   M   S   E   E   M   S   E   E   M   S   E   
E   M   S   E   E   M   S   E   E   M   S   E   E   M   S   E   E   M   S   E   
E   M   S   E   E   M   S   E   E   M   S   E   E   M   S   E   E   M   S   E   
E   M   S   E   E   M   S   E   E   M   S   E   E   M   S   E   E   M   S   E   
E   M   S   E   E   M   S   E   E   M   S   E   E   M   S   E   E   M   S   E   
E   M   S   E   E   M   S   E   E   M   S   E   E   M   S   E   E   M   S   E   
E   M   S   E   E   M   S   E   E   M   S   E   E   M   S   E   E   M   S   E   
E   M   S   E   E   M   S   E   E   M   S   E   E   M   S   E   E   M   S   E   
E   M   S   E   E   M   S   E   E   M   S   E   E   M   S   E   E   M   S   E   
E   M   S   E   E   M   S   E   E   M   S   E   E   M   S   E   E   M   S   E   
E   M   S   E   E   M   S   E   E   M   S   E   E   M   S   E   E   M   S   E   
E   M   S   E   E   M   S   E   E   M   S   E   E   M   S   E   E   M   S   E   
E   M   S   E   E   M   S   E   E   M   S   E   E   M   S   E   E   M   S   E   
E   M   S   E   E   M   S   E   E   M   S   E   E   M   S   E   E   M   S   E   
E   M   S   E   E   M   S   E   E   M   S   E   E   M   S   E   E   M   S   E   
E   M   S   E   E   M   S   E   E   M   S   E   E   M   S   E   E   M   S   E   
E   M   S   E   E   M   S   E   E   M   S   E   E   M   S   E   E   M   S   E   
E   M   S   E   E   M   S   E   E   M   S   E   E   M   S   E   E   M   S   E   
E   M   S   E   E   M   S   E   E   M   S   E   E   M   S   E   E   M   S   E   
E   M   S   E   E   M   S   E   E   M   S   E   E   M   S   E   E   M   S   E   
E   M   S   E   E   M   S   E   E   M   S   E   E   M   S   E   E   M   S   E   
E   M   S   E   E   M   S   E   E   M   S   E   E   M   S   E   E   M   S   E   
E   M   S   E   E   M   S   E   E   M   S   E   E   M   S   E   E   M   S   E   
E   M   S   E   E   M   S   E   E   M   S   E   E   M   S   E   E   M   S   E   
E   M   S   E   E   M   S   E   E   M   S   E   E   M   S   E   E   M   S   E   
E   M   S   E   E   M   S   E   E   M   S   E   E   M   S   E   E   M   S   E   
E   M   S   E   E   M   S   E   E   M   S   E   E   M   S   E   E   M   S   E   
E   M   S   E   E   M   S   E   E   M   S   E   E   M   S   E   E   M   S   E   
E   M   S   E   E   M   S   E   E   M   S   E   E   M   S   E   E   M   S   E   
E   M   S   E   E   M   S   E   E   M   S   E   E   M   S   E   E   M   S   E   
E   M   S   E   E   M   S   E   E   M   S   E   E   M   S   E   E   M   S   E   
E   M   S   E   E   M   S   E   E   M   S   E   E   M   S   E   E   M   S   E   
E   M   S   E   E   M   S   E   E   M   S   E   E   M   S   E   E   M   S   E   
E   M   S   E   E   M   S   E   E   M   S   E   E   M   S   E   E   M   S   E   
E   M   S   E   E   M   S   E   E   M   S   E   E   M   S   E   E   M   S   E   
E   M   S   E   E   M   S   E   E   M   S   E   E   M   S   E   E   M   S   E   
E   M   S   E   E   M   S   E   E   M   S   E   E   M   S   E   E   M   S   E   
E   M   S   E   E   M   S   E   E   M   S   E   E   M   S   E   E   M   S   E   
E   M   S   E   E   M   S   E   E   M   S   E   E   M   S   E   E   M   S   E   
E   M   S   E   E   M   S   E   E   M   S   E   E   M   S   E   E   M   S   E   
E   M   S   E   E   M   S   E   E   M   S   E   E   M   S   E   E   M   S   E   
E   M   S   E   E   M   S   E   E   M   S   E   E   M   S   E   E   M   S   E   
E   M   S   E   E   M   S   E   E   M   S   E   E   M   S   E   E   M   S   E   
E   M   S   E   E   M   S   E   E   M   S   E   E   M   S   E   E   M   S   E   
E   M   S   E   E   M   S   E   E   M   S   E   E   M   S   E   E   M   S   E   
E   M   S   E   E   M   S   E   E   M   S   E   E   M   S   E   E   M   S   E   
E   M   S   E   E   M   S   E   E   M   S   E   E   M   S   E   E   M   S   E   
E   M   S   E   E   M   S   E   E   M   S   E   E   M   S   E   E   M   S   E   
E   M   S   E   E   M   S   E   E   M   S   E   E   M   S   E   E   M   S   E   
E   M   S   E   E   M   S   E   E   M   S   E   E   M   S   E   E   M   S   E   
E   M   S   E   E   M   S   E   E   M   S   E   E   M   S   E   E   M   S   E   
E   M   S   E   E   M   S   E   E   M   S   E   E   M   S   E   E   M   S   E   
E   M   S   E   E   M   S   E   E   M   S   E   E   M   S   E   E   M   S   E   
E   M   S   E   E   M   S   E   E   M   S   E   E   M   S   E   E   M   S   E   
E   M   S   E   E   M   S   E   E   M   S   E   E   M   S   E   E   M   S   E   
E   M   S   E   E   M   S   E   E   M   S   E   E   M   S   E   E   M   S   E   
E   M   S   E   E   M   S   E   E   M   S   E   E   M   S   E   E   M   S   E   
E   M   S   E   E   M   S   E   E   M   S   E   E   M   S   E   E   M   S   E   
E   M   S   E   E   M   S   E   E   M   S   E   E   M   S   E   E   M   S   E   
E   M   S   E   E   M   S   E   E   M   S   E   E   M   S   E   E   M   S   E   
E   M   S   E   E   M   S   E   E   M   S   E   E   M   S   E   E   M   S   E   
E   M   S   E   E   M   S   E   E   M   S   E   E   M   S   E   E   M   S   E   
E   M   S   E   E   M   S   E   E   M   S   E   E   M   S   E   E   M   S   E   
E   M   S   E   E   M   S   E   E   M   S   E   E   M   S   E   E   M   S   E   
E   M   S   E   E   M   S   E   E   M   S   E   E   M   S   E   E   M   S   E   
E   M   S   E   E   M   S   E   E   M   S   E   E   M   S   E   E   M   S   E   
E   M   S   E   E   M   S   E   E   M   S   E   E   M   S   E   E   M   S   E   
E   M   S   E   E   M   S   E   E   M   S   E   E   M   S   E   E   M   S   E   
E   M   S   E   E   M   S   E   E   M   S   E   E   M   S   E   E   M   S   E   
E   M   S   E   E   M   S   E   E   M   S   E   E   M   S   E   E   M   S   E   
E   M   S   E   E   M   S   E   E   M   S   E   E   M   S   E   E   M   S   E   
E   M   S   E   E   M   S   E   E   M   S   E   E   M   S   E   E   M   S   E   
E   M   S   E   E   M   S   E   E   M   S   E   E   M   S   E   E   M   S   E   
E   M   S   E   E   M   S   E   E   M   S   E   E   M   S   E   E   M   S   E   
E   M   S   E   E   M   S   E   E   M   S   E   E   M   S   E   E   M   S   E   
E   M   S   E   E   M   S   E   E   M   S   E   E   M   S   E   E   M   S   E   
E   M   S   E   E   M   S   E   E   M   S   E   E   M   S   E   E   M   S   E   
E   M   S   E   E   M   S   E   E   M   S   E   E   M   S   E   E   M   S   E   
E   M   S   E   E   M   S   E   E   M   S   E   E   M   S   E   E   M   S   E   
E   M   S   E   E   M   S   E   E   M   S   E   E   M   S   E   E   M   S   E   
E   M   S   E   E   M   S   E   E   M   S   E   E   M   S   E   E   M   S   E   
E   M   S   E   E   M   S   E   E   M   S   E   E   M   S   E   E   M   S   E   
E   M   S   E   E   M   S   E   E   M   S   E   E   M   S   E   E   M   S   E   
E   M   S   E   E   M   S   E   E   M   S   E   E   M   S   E   E   M   S   E   
E   M   S   E   E   M   S   E   E   M   S   E   E   M   S   E   E   M   S   E   
E   M   S   E   E   M   S   E   E   M   S   E   E   M   S   E   E   M   S   E   
E   M   S   E   E   M   S   E   E   M   S   E   E   M   S   E   E   M   S   E   
E   M   S   E   E   M   S   E   E   M   S   E   E   M   S   E   E   M   S   E   
E   M   S   E   E   M   S   E   E   M   S   E   E   M   S   E   E   M   S   E   
E   M   S   E   E   M   S   E   E   M   S   E   E   M   S   E   E   M   S   E   
E   M   S   E   E   M   S   E   E   M   S   E   E   M   S   E   E   M   S   E   
E   M   S   E   E   M   S   E   E   M   S   E   E   M   S   E   E   M   S   E   
E   M   S   E   E   M   S   E   E   M   S   E   E   M   S   E   E   M   S   E   
E   M   S   E   E   M   S   E   E   M   S   E   E   M   S   E   E   M   S   E   
E   M   S   E   E   M   S   E   E   M   S   E   E   M   S   E   E   M   S   E   
E   M   S   E   E   M   S   E   E   M   S   E   E   M   S   E   E   M   S   E   
E   M   S   E   E   M   S   E   E   M   S   E   E   M   S   E   E   M   S   E   
E   M   S   E   E   M   S   E   E   M   S   E   E   M   S   E   E   M   S   E   
E   M   S   E   E   M   S   E   E   M   S   E   E   M   S   E   E   M   S   E   
E   M   S   E   E   M   S   E   E   M   S   E   E   M   S   E   E   M   S   E   
E   M   S   E   E   M   S   E   E   M   S   E   E   M   S   E   E   M   S   E   
E   M   S   E   E   M   S   E   E   M   S   E   E   M   S   E   E   M   S   E   
E   M   S   E   E   M   S   E   E   M   S   E   E   M   S   E   E   M   S   E   
E   M   S   E   E   M   S   E   E   M   S   E   E   M   S   E   E   M   S   E   
E   M   S   E   E   M   S   E   E   M   S   E   E   M   S   E   E   M   S   E   
E   M   S   E   E   M   S   E   E   M   S   E   E   M   S   E   E   M   S   E   
E   M   S   E   E   M   S   E   E   M   S   E   E   M   S   E   E   M   S   E   
E   M   S   E   E   M   S   E   E   M   S   E   E   M   S   E   E   M   S   E   
E   M   S   E   E   M   S   E   E   M   S   E   E   M   S   E   E   M   S   E   
E   M   S   E   E   M   S   E   E   M   S   E   E   M   S   E   E   M   S   E   
E   M   S   E   E   M   S   E   E   M   S   E   E   M   S   E   E   M   S   E   
E   M   S   E   E   M   S   E   E   M   S   E   E   M   S   E   E   M   S   E   
E   M   S   E   E   M   S   E   E   M   S   E   E   M   S   E   E   M   S   E   
E   M   S   E   E   M   S   E   E   M   S   E   E   M   S   E   E   M   S   E   
E   M   S   E   E   M   S   E   E   M   S   E   E   M   S   E   E   M   S   E   
E   M   S   E   E   M   S   E   E   M   S   E   E   M   S   E   E   M   S   E   
E   M   S   E   E   M   S   E   E   M   S   E   E   M   S   E   E   M   S   E   
E   M   S   E   E   M   S   E   E   M   S   E   E   M   S   E   E   M   S   E   
E   M   S   E   E   M   S   E   E   M   S   E   E   M   S   E   E   M   S   E   
E   M   S   E   E   M   S   E   E   M   S   E   E   M   S   E   E   M   S   E   
E   M   S   E   E   M   S   E   E   M   S   E   E   M   S   E   E   M   S   E   
E   M   S   E   E   M   S   E   E   M   S   E   E   M   S   E   E   M   S   E   
E   M   S   E   E   M   S   E   E   M   S   E   E   M   S   E   E   M   S   E   
E   M   S   E   E   M   S   E   E   M   S   E   E   M   S   E   E   M   S   E   
E   M   S   E   E   M   S   E   E   M   S   E   E   M   S   E   E   M   S   E   
E   M   S   E   E   M   S   E   E   M   S   E   E   M   S   E   E   M   S   E   
E   M   S   E   E   M   S   E   E   M   S   E   E   M   S   E   E   M   S   E   
E   M   S   E   E   M   S   E   E   M   S   E   E   M   S   E   E   M   S   E   
E   M   S   E   E   M   S   E   E   M   S   E   E   M   S   E   E   M   S   E   
E   M   S   E   E   M   S   E   E   M   S   E   E   M   S   E   E   M   S   E   
E   M   S   E   E   M   S   E   E   M   S   E   E   M   S   E   E   M   S   E   
E   M   S   E   E   M   S   E   E   M   S   E   E   M   S   E   E   M   S   E   
E   M   S   E   E   M   S   E   E   M   S   E   E   M   S   E   E   M   S   E   
E   M   S   E   E   M   S   E   E   M   S   E   E   M   S   E   E   M   S   E   
E   M   S   E   E   M   S   E   E   M   S   E   E   M   S   E   E   M   S   E   
E   M   S   E   E   M   S   E   E   M   S   E   E   M   S   E   E   M   S   E   
E   M   S   E   E   M   S   E   E   M   S   E   E   M   S   E   E   M   S   E   
E   M   S   E   E   M   S   E   E   M   S   E   E   M   S   E   E   M   S   E   
E   M   S   E   E   M   S   E   E   M   S   E   E   M   S   E   E   M   S   E   
E   M   S   E   E   M   S   E   E   M   S   E   E   M   S   E   E   M   S   E   
E   M   S   E   E   M   S   E   E   M   S   E   E   M   S   E   E   M   S   E   
E   M   S   E   E   M   S   E   E   M   S   E   E   M   S   E   E   M   S   E   
E   M   S   E   E   M   S   E   E   M   S   E   E   M   S   E   E   M   S   E   
E   M   S   E   E   M   S   E   E   M   S   E   E   M   S   E   E   M   S   E   
E   M   S   E   E   M   S   E   E   M   S   E   E   M   S   E   E   M   S   E   
E   M   S   E   E   M   S   E   E   M   S   E   E   M   S   E   E   M   S   E   
E   M   S   E   E   M   S   E   E   M   S   E   E   M   S   E   E   M   S   E   
E   M   S   E   E   M   S   E   E   M   S   E   E   M   S   E   E   M   S   E   
E   M   S   E   E   M   S   E   E   M   S   E   E   M   S   E   E   M   S   E   
E   M   S   E   E   M   S   E   E   M   S   E   E   M   S   E   E   M   S   E   
E   M   S   E   E   M   S   E   E   M   S   E   E   M   S   E   E   M   S   E   
E   M   S   E   E   M   S   E   E   M   S   E   E   M   S   E   E   M   S   E   
E   M   S   E   E   M   S   E   E   M   S   E   E   M   S   E   E   M   S   E   
E   M   S   E   E   M   S   E   E   M   S   E   E   M   S   E   E   M   S   E   
E   M   S   E   E   M   S   E   E   M   S   E   E   M   S   E   E   M   S   E   
E   M   S   E   E   M   S   E   E   M   S   E   E   M   S   E   E   M   S   E   
E   M   S   E   E   M   S   E   E   M   S   E   E   M   S   E   E   M   S   E   
E   M   S   E   E   M   S   E   E   M   S   E   E   M   S   E   E   M   S   E   
E   M   S   E   E   M   S   E   E   M   S   E   E   M   S   E   E   M   S   E   
E   M   S   E   E   M   S   E   E   M   S   E   E   M   S   E   E   M   S   E   
E   M   S   E   E   M   S   E   E   M   S   E   E   M   S   E   E   M   S   E   
E   M   S   E   E   M   S   E   E   M   S   E   E   M   S   E   E   M   S   E   
E   M   S   E   E   M   S   E   E   M   S   E   E   M   S   E   E   M   S   E   
E   M   S   E   E   M   S   E   E   M   S   E   E   M   S   E   E   M   S   E   
E   M   S   E   E   M   S   E   E   M   S   E   E   M   S   E   E   M   S   E   
E   M   S   E   E   M   S   E   E   M   S   E   E   M   S   E   E   M   S   E   
E   M   S   E   E   M   S   E   E   M   S   E   E   M   S   E   E   M   S   E   
E   M   S   E   E   M   S   E   E   M   S   E   E   M   S   E   E   M   S   E   
E   M   S   E   E   M   S   E   E   M   S   E   E   M   S   E   E   M   S   E   
E   M   S   E   E   M   S   E   E   M   S   E   E   M   S   E   E   M   S   E   
E   M   S   E   E   M   S   E   E   M   S   E   E   M   S   E   E   M   S   E   
E   M   S   E   E   M   S   E   E   M   S   E   E   M   S   E   E   M   S   E   
E   M   S   E   E   M   S   E   E   M   S   E   E   M   S   E   E   M   S   E   
E   M   S   E   E   M   S   E   E   M   S   E   E   M   S   E   E   M   S   E   
E   M   S   E   E   M   S   E   E   M   S   E   E   M   S   E   E   M   S   E   
E   M   S   E   E   M   S   E   E   M   S   E   E   M   S   E   E   M   S   E   
E   M   S   E   E   M   S   E   E   M   S   E   E   M   S   E   E   M   S   E   
E   M   S   E   E   M   S   E   E   M   S   E   E   M   S   E   E   M   S   E   
E   M   S   E   E   M   S   E   E   M   S   E   E   M   S   E   E   M   S   E   
E   M   S   E   E   M   S   E   E   M   S   E   E   M   S   E   E   M   S   E   
E   M   S   E   E   M   S   E   E   M   S   E   E   M   S   E   E   M   S   E   
E   M   S   E   E   M   S   E   E   M   S   E   E   M   S   E   E   M   S   E   
E   M   S   E   E   M   S   E   E   M   S   E   E   M   S   E   E   M   S   E   
E   M   S   E   E   M   S   E   E   M   S   E   E   M   S   E   E   M   S   E   
E   M   S   E   E   M   S   E   E   M   S   E   E   M   S   E   E   M   S   E   
E   M   S   E   E   M   S   E   E   M   S   E   E   M   S   E   E   M   S   E   
E   M   S   E   E   M   S   E   E   M   S   E   E   M   S   E   E   M   S   E   
E   M   S   E   E   M   S   E   E   M   S   E   E   M   S   E   E   M   S   E   
E   M   S   E   E   M   S   E   E   M   S   E   E   M   S   E   E   M   S   E   
E   M   S   E   E   M   S   E   E   M   S   E   E   M   S   E   E   M   S   E   
E   M   S   E   E   M   S   E   E   M   S   E   E   M   S   E   E   M   S   E   
E   M   S   E   E   M   S   E   E   M   S   E   E   M   S   E   E   M   S   E   
E   M   S   E   E   M   S   E   E   M   S   E   E   M   S   E   E   M   S   E   
E   M   S   E   E   M   S   E   E   M   S   E   E   M   S   E   E   M   S   E   
E   M   S   E   E   M   S   E   E   M   S   E   E   M   S   E   E   M   S   E   
E   M   S   E   E   M   S   E   E   M   S   E   E   M   S   E   E   M   S   E   
E   M   S   E   E   M   S   E   E   M   S   E   E   M   S   E   E   M   S   E   
E   M   S   E   E   M   S   E   E   M   S   E   E   M   S   E   E   M   S   E   
E   M   S   E   E   M   S   E   E   M   S   E   E   M   S   E   E   M   S   E   
E   M   S   E   E   M   S   E   E   M   S   E   E   M   S   E   E   M   S   E   
E   M   S   E   E   M   S   E   E   M   S   E   E   M   S   E   E   M   S   E   
E   M   S   E   E   M   S   E   E   M   S   E   E   M   S   E   E   M   S   E   
E   M   S   E   E   M   S   E   E   M   S   E   E   M   S   E   E   M   S   E   
E   M   S   E   E   M   S   E   E   M   S   E   E   M   S   E   E   M   S   E   
E   M   S   E   E   M   S   E   E   M   S   E   E   M   S   E   E   M   S   E   
E   M   S   E   E   M   S   E   E   M   S   E   E   M   S   E   E   M   S   E   
E   M   S   E   E   M   S   E   E   M   S   E   E   M   S   E   E   M   S   E   
E   M   S   E   E   M   S   E   E   M   S   E   E   M   S   E   E   M   S   E   
E   M   S   E   E   M   S   E   E   M   S   E   E   M   S   E   E   M   S   E   
E   M   S   E   E   M   S   E   E   M   S   E   E   M   S   E   E   M   S   E   
E   M   S   E   E   M   S   E   E   M   S   E   E   M   S   E   E   M   S   E   
E   M   S   E   E   M   S   E   E   M   S   E   E   M   S   E   E   M   S   E   
E   M   S   E   E   M   S   E   E   M   S   E   E   M   S   E   E   M   S   E   
E   M   S   E   E   M   S   E   E   M   S   E   E   M   S   E   E   M   S   E   
E   M   S   E   E   M   S   E   E   M   S   E   E   M   S   E   E   M   S   E   
E   M   S   E   E   M   S   E   E   M   S   E   E   M   S   E   E   M   S   E   
E   M   S   E   E   M   S   E   E   M   S   E   E   M   S   E   E   M   S   E   
E   M   S   E   E   M   S   E   E   M   S   E   E   M   S   E   E   M   S   E   
E   M   S   E   E   M   S   E   E   M   S   E   E   M   S   E   E   M   S   E   
E   M   S   E   E   M   S   E   E   M   S   E   E   M   S   E   E   M   S   E   
E   M   S   E   E   M   S   E   E   M   S   E   E   M   S   E   E   M   S   E   
E   M   S   E   E   M   S   E   E   M   S   E   E   M   S   E   E   M   S   E   
E   M   S   E   E   M   S   E   E   M   S   E   E   M   S   E   E   M   S   E   
E   M   S   E   E   M   S   E   E   M   S   E   E   M   S   E   E   M   S   E   
E   M   S   E   E   M   S   E   E   M   S   E   E   M   S   E   E   M   S   E   
E   M   S   E   E   M   S   E   E   M   S   E   E   M   S   E   E   M   S   E   
E   M   S   E   E   M   S   E   E   M   S   E   E   M   S   E   E   M   S   E   
E   M   S   E   E   M   S   E   E   M   S   E   E   M   S   E   E   M   S   E   
E   M   S   E   E   M   S   E   E   M   S   E   E   M   S   E   E   M   S   E   
E   M   S   E   E   M   S   E   E   M   S   E   E   M   S   E   E   M   S   E   
E   M   S   E   E   M   S   E   E   M   S   E   E   M   S   E   E   M   S   E   
E   M   S   E   E   M   S   E   E   M   S   E   E   M   S   E   E   M   S   E   
E   M   S   E   E   M   S   E   E   M   S   E   E   M   S   E   E   M   S   E   
E   M   S   E   E   M   S   E   E   M   S   E   E   M   S   E   E   M   S   E   
E   M   S   E   E   M   S   E   E   M   S   E   E   M   S   E   E   M   S   E   
E   M   S   E   E   M   S   E   E   M   S   E   E   M   S   E   E   M   S   E   
E   M   S   E   E   M   S   E   E   M   S   E   E   M   S   E   E   M   S   E   
E   M   S   E   E   M   S   E   E   M   S   E   E   M   S   E   E   M   S   E   
E   M   S   E   E   M   S   E   E   M   S   E   E   M   S   E   E   M   S   E   
E   M   S   E   E   M   S   E   E   M   S   E   E   M   S   E   E   M   S   E   
E   M   S   E   E   M   S   E   E   M   S   E   E   M   S   E   E   M   S   E   
E   M   S   E   E   M   S   E   E   M   S   E   E   M   S   E   E   M   S   E   
E   M   S   E   E   M   S   E   E   M   S   E   E   M   S   E   E   M   S   E   
E   M   S   E   E   M   S   E   E   M   S   E   E   M   S   E   E   M   S   E   
E   M   S   E   E   M   S   E   E   M   S   E   E   M   S   E   E   M   S   E   
E   M   S   E   E   M   S   E   E   M   S   E   E   M   S   E   E   M   S   E   
E   M   S   E   E   M   S   E   E   M   S   E   E   M   S   E   E   M   S   E   
E   M   S   E   E   M   S   E   E   M   S   E   E   M   S   E   E   M   S   E   
E   M   S   E   E   M   S   E   E   M   S   E   E   M   S   E   E   M   S   E   
E   M   S   E   E   M   S   E   E   M   S   E   E   M   S   E   E   M   S   E   
E   M   S   E   E   M   S   E   E   M   S   E   E   M   S   E   E   M   S   E   
E   M   S   E   E   M   S   E   E   M   S   E   E   M   S   E   E   M   S   E   
E   M   S   E   E   M   S   E   E   M   S   E   E   M   S   E   E   M   S   E   
E   M   S   E   E   M   S   E   E   M   S   E   E   M   S   E   E   M   S   E   
E   M   S   E   E   M   S   E   E   M   S   E   E   M   S   E   E   M   S   E   
E   M   S   E   E   M   S   E   E   M   S   E   E   M   S   E   E   M   S   E   
E   M   S   E   E   M   S   E   E   M   S   E   E   M   S   E   E   M   S   E   
E   M   S   E   E   M   S   E   E   M   S   E   E   M   S   E   E   M   S   E   
E   M   S   E   E   M   S   E   E   M   S   E   E   M   S   E   E   M   S   E   
E   M   S   E   E   M   S   E   E   M   S   E   E   M   S   E   E   M   S   E   
E   M   S   E   E   M   S   E   E   M   S   E   E   M   S   E   E   M   S   E   
E   M   S   E   E   M   S   E   E   M   S   E   E   M   S   E   E   M   S   E   
E   M   S   E   E   M   S   E   E   M   S   E   E   M   S   E   E   M   S   E   
E   M   S   E   E   M   S   E   E   M   S   E   E   M   S   E   E   M   S   E   
E   M   S   E   E   M   S   E   E   M   S   E   E   M   S   E   E   M   S   E   
E   M   S   E   E   M   S   E   E   M   S   E   E   M   S   E   E   M   S   E   
E   M   S   E   E   M   S   E   E   M   S   E   E   M   S   E   E   M   S   E   
E   M   S   E   E   M   S   E   E   M   S   E   E   M   S   E   E   M   S   E   
E   M   S   E   E   M   S   E   E   M   S   E   E   M   S   E   E   M   S   E   
E   M   S   E   E   M   S   E   E   M   S   E   E   M   S   E   E   M   S   E   
E   M   S   E   E   M   S   E   E   M   S   E   E   M   S   E   E   M   S   E   
E   M   S   E   E   M   S   E   E   M   S   E   E   M   S   E   E   M   S   E   
E   M   S   E   E   M   S   E   E   M   S   E   E   M   S   E   E   M   S   E   
E   M   S   E   E   M   S   E   E   M   S   E   E   M   S   E   E   M   S   E   
E   M   S   E   E   M   S   E   E   M   S   E   E   M   S   E   E   M   S   E   
E   M   S   E   E   M   S   E   E   M   S   E   E   M   S   E   E   M   S   E   
E   M   S   E   E   M   S   E   E   M   S   E   E   M   S   E   E   M   S   E   
E   M   S   E   E   M   S   E   E   M   S   E   E   M   S   E   E   M   S   E   
E   M   S   E   E   M   S   E   E   M   S   E   E   M   S   E   E   M   S   E   
E   M   S   E   E   M   S   E   E   M   S   E   E   M   S   E   E   M   S   E   
E   M   S   E   E   M   S   E   E   M   S   E   E   M   S   E   E   M   S   E   
E   M   S   E   E   M   S   E   E   M   S   E   E   M   S   E   E   M   S   E   
E   M   S   E   E   M   S   E   E   M   S   E   E   M   S   E   E   M   S   E   
E   M   S   E   E   M   S   E   E   M   S   E   E   M   S   E   E   M   S   E   
E   M   S   E   E   M   S   E   E   M   S   E   E   M   S   E   E   M   S   E   
E   M   S   E   E   M   S   E   E   M   S   E   E   M   S   E   E   M   S   E   
E   M   S   E   E   M   S   E   E   M   S   E   E   M   S   E   E   M   S   E   
E   M   S   E   E   M   S   E   E   M   S   E   E   M   S   E   E   M   S   E   
E   M   S   E   E   M   S   E   E   M   S   E   E   M   S   E   E   M   S   E   
E   M   S   E   E   M   S   E   E   M   S   E   E   M   S   E   E   M   S   E   
E   M   S   E   E   M   S   E   E   M   S   E   E   M   S   E   E   M   S   E   
E   M   S   E   E   M   S   E   E   M   S   E   E   M   S   E   E   M   S   E   
E   M   S   E   E   M   S   E   E   M   S   E   E   M   S   E   E   M   S   E   
E   M   S   E   E   M   S   E   E   M   S   E   E   M   S   E   E   M   S   E   
E   M   S   E   E   M   S   E   E   M   S   E   E   M   S   E   E   M   S   E   
E   M   S   E   E   M   S   E   E   M   S   E   E   M   S   E   E   M   S   E   
E   M   S   E   E   M   S   E   E   M   S   E   E   M   S   E   E   M   S   E   
E   M   S   E   E   M   S   E   E   M   S   E   E   M   S   E   E   M   S   E   
E   M   S   E   E   M   S   E   E   M   S   E   E   M   S   E   E   M   S   E   
E   M   S   E   E   M   S   E   E   M   S   E   E   M   S   E   E   M   S   E   
E   M   S   E   E   M   S   E   E   M   S   E   E   M   S   E   E   M   S   E   
E   M   S   E   E   M   S   E   E   M   S   E   E   M   S   E   E   M   S   E   
E   M   S   E   E   M   S   E   E   M   S   E   E   M   S   E   E   M   S   E   
E   M   S   E   E   M   S   E   E   M   S   E   E   M   S   E   E   M   S   E   
E   M   S   E   E   M   S   E   E   M   S   E   E   M   S   E   E   M   S   E   
E   M   S   E   E   M   S   E   E   M   S   E   E   M   S   E   E   M   S   E   
E   M   S   E   E   M   S   E   E   M   S   E   E   M   S   E   E   M   S   E   
E   M   S   E   E   M   S   E   E   M   S   E   E   M   S   E   E   M   S   E   
E   M   S   E   E   M   S   E   E   M   S   E   E   M   S   E   E   M   S   E   
E   M   S   E   E   M   S   E   E   M   S   E   E   M   S   E   E   M   S   E   
E   M   S   E   E   M   S   E   E   M   S   E   E   M   S   E   E   M   S   E   
E   M   S   E   E   M   S   E   E   M   S   E   E   M   S   E   E   M   S   E   
E   M   S   E   E   M   S   E   E   M   S   E   E   M   S   E   E   M   S   E   
E   M   S   E   E   M   S   E   E   M   S   E   E   M   S   E   E   M   S   E   
E   M   S   E   E   M   S   E   E   M   S   E   E   M   S   E   E   M   S   E   
E   M   S   E   E   M   S   E   E   M   S   E   E   M   S   E   E   M   S   E   
E   M   S   E   E   M   S   E   E   M   S   E   E   M   S   E   E   M   S   E   
E   M   S   E   E   M   S   E   E   M   S   E   E   M   S   E   E   M   S   E   
E   M   S   E   E   M   S   E   E   M   S   E   E   M   S   E   E   M   S   E   
E   M   S   E   E   M   S   E   E   M   S   E   E   M   S   E   E   M   S   E   
E   M   S   E   E   M   S   E   E   M   S   E   E   M   S   E   E   M   S   E   
E   M   S   E   E   M   S   E   E   M   S   E   E   M   S   E   E   M   S   E   
E   M   S   E   E   M   S   E   E   M   S   E   E   M   S   E   E   M   S   E   
E   M   S   E   E   M   S   E   E   M   S   E   E   M   S   E   E   M   S   E   
E   M   S   E   E   M   S   E   E   M   S   E   E   M   S   E   E   M   S   E   
E   M   S   E   E   M   S   E   E   M   S   E   E   M   S   E   E   M   S   E   
E   M   S   E   E   M   S   E   E   M   S   E   E   M   S   E   E   M   S   E   
E   M   S   E   E   M   S   E   E   M   S   E   E   M   S   E   E   M   S   E   
E   M   S   E   E   M   S   E   E   M   S   E   E   M   S   E   E   M   S   E   
E   M   S   E   E   M   S   E   E   M   S   E   E   M   S   E   E   M   S   E   
E   M   S   E   E   M   S   E   E   M   S   E   E   M   S   E   E   M   S   E   
E   M   S   E   E   M   S   E   E   M   S   E   E   M   S   E   E   M   S   E   
E   M   S   E   E   M   S   E   E   M   S   E   E   M   S   E   E   M   S   E   
E   M   S   E   E   M   S   E   E   M   S   E   E   M   S   E   E   M   S   E   
E   M   S   E   E   M   S   E   E   M   S   E   E   M   S   E   E   M   S   E   
E   M   S   E   E   M   S   E   E   M   S   E   E   M   S   E   E   M   S   E   
E   M   S   E   E   M   S   E   E   M   S   E   E   M   S   E   E   M   S   E   
E   M   S   E   E   M   S   E   E   M   S   E   E   M   S   E   E   M   S   E   
E   M   S   E   E   M   S   E   E   M   S   E   E   M   S   E   E   M   S   E   
E   M   S   E   E   M   S   E   E   M   S   E   E   M   S   E   E   M   S   E   
E   M   S   E   E   M   S   E   E   M   S   E   E   M   S   E   E   M   S   E   
E   M   S   E   E   M   S   E   E   M   S   E   E   M   S   E   E   M   S   E   
E   M   S   E   E   M   S   E   E   M   S   E   E   M   S   E   E   M   S   E   
E   M   S   E   E   M   S   E   E   M   S   E   E   M   S   E   E   M   S   E   
E   M   S   E   E   M   S   E   E   M   S   E   E   M   S   E   E   M   S   E   
E   M   S   E   E   M   S   E   E   M   S   E   E   M   S   E   E   M   S   E   
E   M   S   E   E   M   S   E   E   M   S   E   E   M   S   E   E   M   S   E   
E   M   S   E   E   M   S   E   E   M   S   E   E   M   S   E   E   M   S   E   
E   M   S   E   E   M   S   E   E   M   S   E   E   M   S   E   E   M   S   E   
E   M   S   E   E   M   S   E   E   M   S   E   E   M   S   E   E   M   S   E   
E   M   S   E   E   M   S   E   E   M   S   E   E   M   S   E   E   M   S   E   
E   M   S   E   E   M   S   E   E   M   S   E   E   M   S   E   E   M   S   E   
E   M   S   E   E   M   S   E   E   M   S   E   E   M   S   E   E   M   S   E   
E   M   S   E   E   M   S   E   E   M   S   E   E   M   S   E   E   M   S   E   
E   M   S   E   E   M   S   E   E   M   S   E   E   M   S   E   E   M   S   E   
E   M   S   E   E   M   S   E   E   M   S   E   E   M   S   E   E   M   S   E   
E   M   S   E   E   M   S   E   E   M   S   E   E   M   S   E   E   M   S   E   
E   M   S   E   E   M   S   E   E   M   S   E   E   M   S   E   E   M   S   E   
E   M   S   E   E   M   S   E   E   M   S   E   E   M   S   E   E   M   S   E   
E   M   S   E   E   M   S   E   E   M   S   E   E   M   S   E   E   M   S   E   
E   M   S   E   E   M   S   E   E   M   S   E   E   M   S   E   E   M   S   E   
E   M   S   E   E   M   S   E   E   M   S   E   E   M   S   E   E   M   S   E   
E   M   S   E   E   M   S   E   E   M   S   E   E   M   S   E   E   M   S   E   
E   M   S   E   E   M   S   E   E   M   S   E   E   M   S   E   E   M   S   E   
E   M   S   E   E   M   S   E   E   M   S   E   E   M   S   E   E   M   S   E   
E   M   S   E   E   M   S   E   E   M   S   E   E   M   S   E   E   M   S   E   
E   M   S   E   E   M   S   E   E   M   S   E   E   M   S   E   E   M   S   E   
E   M   S   E   E   M   S   E   E   M   S   E   E   M   S   E   E   M   S   E   
E   M   S   E   E   M   S   E   E   M   S   E   E   M   S   E   E   M   S   E   
E   M   S   E   E   M   S   E   E   M   S   E   E   M   S   E   E   M   S   E   
E   M   S   E   E   M   S   E   E   M   S   E   E   M   S   E   E   M   S   E   
E   M   S   E   E   M   S   E   E   M   S   E   E   M   S   E   E   M   S   E   
E   M   S   E   E   M   S   E   E   M   S   E   E   M   S   E   E   M   S   E   
E   M   S   E   E   M   S   E   E   M   S   E   E   M   S   E   E   M   S   E   
E   M   S   E   E   M   S   E   E   M   S   E   E   M   S   E   E   M   S   E   
E   M   S   E   E   M   S   E   E   M   S   E   E   M   S   E   E   M   S   E   
E   M   S   E   E   M   S   E   E   M   S   E   E   M   S   E   E   M   S   E   
E   M   S   E   E   M   S   E   E   M   S   E   E   M   S   E   E   M   S   E   
E   M   S   E   E   M   S   E   E   M   S   E   E   M   S   E   E   M   S   E   
E   M   S   E   E   M   S   E   E   M   S   E   E   M   S   E   E   M   S   E   
E   M   S   E   E   M   S   E   E   M   S   E   E   M   S   E   E   M   S   E   
E   M   S   E   E   M   S   E   E   M   S   E   E   M   S   E   E   M   S   E   
E   M   S   E   E   M   S   E   E   M   S   E   E   M   S   E   E   M   S   E   
E   M   S   E   E   M   S   E   E   M   S   E   E   M   S   E   E   M   S   E   
E   M   S   E   E   M   S   E   E   M   S   E   E   M   S   E   E   M   S   E   
E   M   S   E   E   M   S   E   E   M   S   E   E   M   S   E   E   M   S   E   
E   M   S   E   E   M   S   E   E   M   S   E   E   M   S   E   E   M   S   E   
E   M   S   E   E   M   S   E   E   M   S   E   E   M   S   E   E   M   S   E   
E   M   S   E   E   M   S   E   E   M   S   E   E   M   S   E   E   M   S   E   
E   M   S   E   E   M   S   E   E   M   S   E   E   M   S   E   E   M   S   E   
E   M   S   E   E   M   S   E   E   M   S   E   E   M   S   E   E   M   S   E   
E   M   S   E   E   M   S   E   E   M   S   E   E   M   S   E   E   M   S   E   
E   M   S   E   E   M   S   E   E   M   S   E   E   M   S   E   E   M   S   E   
E   M   S   E   E   M   S   E   E   M   S   E   E   M   S   E   E   M   S   E   
E   M   S   E   E   M   S   E   E   M   S   E   E   M   S   E   E   M   S   E   
E   M   S   E   E   M   S   E   E   M   S   E   E   M   S   E   E   M   S   E   
E   M   S   E   E   M   S   E   E   M   S   E   E   M   S   E   E   M   S   E   
E   M   S   E   E   M   S   E   E   M   S   E   E   M   S   E   E   M   S   E   
E   M   S   E   E   M   S   E   E   M   S   E   E   M   S   E   E   M   S   E   
E   M   S   E   E   M   S   E   E   M   S   E   E   M   S   E   E   M   S   E   
E   M   S   E   E   M   S   E   E   M   S   E   E   M   S   E   E   M   S   E   
E   M   S   E   E   M   S   E   E   M   S   E   E   M   S   E   E   M   S   E   
E   M   S   E   E   M   S   E   E   M   S   E   E   M   S   E   E   M   S   E   
E   M   S   E   E   M   S   E   E   M   S   E   E   M   S   E   E   M   S   E   
E   M   S   E   E   M   S   E   E   M   S   E   E   M   S   E   E   M   S   E   
E   M   S   E   E   M   S   E   E   M   S   E   E   M   S   E   E   M   S   E   
E   M   S   E   E   M   S   E   E   M   S   E   E   M   S   E   E   M   S   E   
E   M   S   E   E   M   S   E   E   M   S   E   E   M   S   E   E   M   S   E   
E   M   S   E   E   M   S   E   E   M   S   E   E   M   S   E   E   M   S   E   
E   M   S   E   E   M   S   E   E   M   S   E   E   M   S   E   E   M   S   E   
E   M   S   E   E   M   S   E   E   M   S   E   E   M   S   E   E   M   S   E   
E   M   S   E   E   M   S   E   E   M   S   E   E   M   S   E   E   M   S   E   
E   M   S   E   E   M   S   E   E   M   S   E   E   M   S   E   E   M   S   E   
E   M   S   E   E   M   S   E   E   M   S   E   E   M   S   E   E   M   S   E   
E   M   S   E   E   M   S   E   E   M   S   E   E   M   S   E   E   M   S   E   
E   M   S   E   E   M   S   E   E   M   S   E   E   M   S   E   E   M   S   E   
E   M   S   E   E   M   S   E   E   M   S   E   E   M   S   E   E   M   S   E   
E   M   S   E   E   M   S   E   E   M   S   E   E   M   S   E   E   M   S   E   
E   M   S   E   E   M   S   E   E   M   S   E   E   M   S   E   E   M   S   E   
E   M   S   E   E   M   S   E   E   M   S   E   E   M   S   E   E   M   S   E   
E   M   S   E   E   M   S   E   E   M   S   E   E   M   S   E   E   M   S   E   
E   M   S   E   E   M   S   E   E   M   S   E   E   M   S   E   E   M   S   E   
E   M   S   E   E   M   S   E   E   M   S   E   E   M   S   E   E   M   S   E   
E   M   S   E   E   M   S   E   E   M   S   E   E   M   S   E   E   M   S   E   
E   M   S   E   E   M   S   E   E   M   S   E   E   M   S   E   E   M   S   E   
E   M   S   E   E   M   S   E   E   M   S   E   E   M   S   E   E   M   S   E   
E   M   S   E   E   M   S   E   E   M   S   E   E   M   S   E   E   M   S   E   
E   M   S   E   E   M   S   E   E   M   S   E   E   M   S   E   E   M   S   E   
E   M   S   E   E   M   S   E   E   M   S   E   E   M   S   E   E   M   S   E   
E   M   S   E   E   M   S   E   E   M   S   E   E   M   S   E   E   M   S   E   
E   M   S   E   E   M   S   E   E   M   S   E   E   M   S   E   E   M   S   E   
E   M   S   E   E   M   S   E   E   M   S   E   E   M   S   E   E   M   S   E   
E   M   S   E   E   M   S   E   E   M   S   E   E   M   S   E   E   M   S   E   
E   M   S   E   E   M   S   E   E   M   S   E   E   M   S   E   E   M   S   E   
E   M   S   E   E   M   S   E   E   M   S   E   E   M   S   E   E   M   S   E   
E   M   S   E   E   M   S   E   E   M   S   E   E   M   S   E   E   M   S   E   
E   M   S   E   E   M   S   E   E   M   S   E   E   M   S   E   E   M   S   E   
E   M   S   E   E   M   S   E   E   M   S   E   E   M   S   E   E   M   S   E   
E   M   S   E   E   M   S   E   E   M   S   E   E   M   S   E   E   M   S   E   
E   M   S   E   E   M   S   E   E   M   S   E   E   M   S   E   E   M   S   E   
E   M   S   E   E   M   S   E   E   M   S   E   E   M   S   E   E   M   S   E   
E   M   S   E   E   M   S   E   E   M   S   E   E   M   S   E   E   M   S   E   
E   M   S   E   E   M   S   E   E   M   S   E   E   M   S   E   E   M   S   E   
E   M   S   E   E   M   S   E   E   M   S   E   E   M   S   E   E   M   S   E   
E   M   S   E   E   M   S   E   E   M   S   E   E   M   S   E   E   M   S   E   
E   M   S   E   E   M   S   E   E   M   S   E   E   M   S   E   E   M   S   E   
E   M   S   E   E   M   S   E   E   M   S   E   E   M   S   E   E   M   S   E   
E   M   S   E   E   M   S   E   E   M   S   E   E   M   S   E   E   M   S   E   
E   M   S   E   E   M   S   E   E   M   S   E   E   M   S   E   E   M   S   E   
E   M   S   E   E   M   S   E   E   M   S   E   E   M   S   E   E   M   S   E   
E   M   S   E   E   M   S   E   E   M   S   E   E   M   S   E   E   M   S   E   
E   M   S   E   E   M   S   E   E   M   S   E   E   M   S   E   E   M   S   E   
E   M   S   E   E   M   S   E   E   M   S   E   E   M   S   E   E   M   S   E   
E   M   S   E   E   M   S   E   E   M   S   E   E   M   S   E   E   M   S   E   
E   M   S   E   E   M   S   E   E   M   S   E   E   M   S   E   E   M   S   E   
E   M   S   E   E   M   S   E   E   M   S   E   E   M   S   E   E   M   S   E   
E   M   S   E   E   M   S   E   E   M   S   E   E   M   S   E   E   M   S   E   
E   M   S   E   E   M   S   E   E   M   S   E   E   M   S   E   E   M   S   E   
E   M   S   E   E   M   S   E   E   M   S   E   E   M   S   E   E   M   S   E   
E   M   S   E   E   M   S   E   E   M   S   E   E   M   S   E   E   M   S   E   
E   M   S   E   E   M   S   E   E   M   S   E   E   M   S   E   E   M   S   E   
E   M   S   E   E   M   S   E   E   M   S   E   E   M   S   E   E   M   S   E   
E   M   S   E   E   M   S   E   E   M   S   E   E   M   S   E   E   M   S   E   
E   M   S   E   E   M   S   E   E   M   S   E   E   M   S   E   E   M   S   E   
E   M   S   E   E   M   S   E   E   M   S   E   E   M   S   E   E   M   S   E   
E   M   S   E   E   M   S   E   E   M   S   E   E   M   S   E   E   M   S   E   
E   M   S   E   E   M   S   E   E   M   S   E   E   M   S   E   E   M   S   E   
E   M   S   E   E   M   S   E   E   M   S   E   E   M   S   E   E   M   S   E   
E   M   S   E   E   M   S   E   E   M   S   E   E   M   S   E   E   M   S   E   
E   M   S   E   E   M   S   E   E   M   S   E   E   M   S   E   E   M   S   E   
E   M   S   E   E   M   S   E   E   M   S   E   E   M   S   E   E   M   S   E   
E   M   S   E   E   M   S   E   E   M   S   E   E   M   S   E   E   M   S   E   
E   M   S   E   E   M   S   E   E   M   S   E   E   M   S   E   E   M   S   E   
E   M   S   E   E   M   S   E   E   M   S   E   E   M   S   E   E   M   S   E   
E   M   S   E   E   M   S   E   E   M   S   E   E   M   S   E   E   M   S   E   
E   M   S   E   E   M   S   E   E   M   S   E   E   M   S   E   E   M   S   E   
E   M   S   E   E   M   S   E   E   M   S   E   E   M   S   E   E   M   S   E   
E   M   S   E   E   M   S   E   E   M   S   E   E   M   S   E   E   M   S   E   
E   M   S   E   E   M   S   E   E   M   S   E   E   M   S   E   E   M   S   E   
E   M   S   E   E   M   S   E   E   M   S   E   E   M   S   E   E   M   S   E   
E   M   S   E   E   M   S   E   E   M   S   E   E   M   S   E   E   M   S   E   
E   M   S   E   E   M   S   E   E   M   S   E   E   M   S   E   E   M   S   E   
E   M   S   E   E   M   S   E   E   M   S   E   E   M   S   E   E   M   S   E   
E   M   S   E   E   M   S   E   E   M   S   E   E   M   S   E   E   M   S   E   
E   M   S   E   E   M   S   E   E   M   S   E   E   M   S   E   E   M   S   E   
E   M   S   E   E   M   S   E   E   M   S   E   E   M   S   E   E   M   S   E   
E   M   S   E   E   M   S   E   E   M   S   E   E   M   S   E   E   M   S   E   
E   M   S   E   E   M   S   E   E   M   S   E   E   M   S   E   E   M   S   E   
E   M   S   E   E   M   S   E   E   M   S   E   E   M   S   E   E   M   S   E   
E   M   S   E   E   M   S   E   E   M   S   E   E   M   S   E   E   M   S   E   
E   M   S   E   E   M   S   E   E   M   S   E   E   M   S   E   E   M   S   E   
E   M   S   E   E   M   S   E   E   M   S   E   E   M   S   E   E   M   S   E   
E   M   S   E   E   M   S   E   E   M   S   E   E   M   S   E   E   M   S   E   
E   M   S   E   E   M   S   E   E   M   S   E   E   M   S   E   E   M   S   E   
E   M   S   E   E   M   S   E   E   M   S   E   E   M   S   E   E   M   S   E   
E   M   S   E   E   M   S   E   E   M   S   E   E   M   S   E   E   M   S   E   
E   M   S   E   E   M   S   E   E   M   S   E   E   M   S   E   E   M   S   E   
E   M   S   E   E   M   S   E   E   M   S   E   E   M   S   E   E   M   S   E   
E   M   S   E   E   M   S   E   E   M   S   E   E   M   S   E   E   M   S   E   
E   M   S   E   E   M   S   E   E   M   S   E   E   M   S   E   E   M   S   E   
E   M   S   E   E   M   S   E   E   M   S   E   E   M   S   E   E   M   S   E   
E   M   S   E   E   M   S   E   E   M   S   E   E   M   S   E   E   M   S   E   
E   M   S   E   E   M   S   E   E   M   S   E   E   M   S   E   E   M   S   E   
E   M   S   E   E   M   S   E   E   M   S   E   E   M   S   E   E   M   S   E   
E   M   S   E   E   M   S   E   E   M   S   E   E   M   S   E   E   M   S   E   
E   M   S   E   E   M   S   E   E   M   S   E   E   M   S   E   E   M   S   E   
E   M   S   E   E   M   S   E   E   M   S   E   E   M   S   E   E   M   S   E   
E   M   S   E   E   M   S   E   E   M   S   E   E   M   S   E   E   M   S   E   
E   M   S   E   E   M   S   E   E   M   S   E   E   M   S   E   E   M   S   E   
E   M   S   E   E   M   S   E   E   M   S   E   E   M   S   E   E   M   S   E   
E   M   S   E   E   M   S   E   E   M   S   E   E   M   S   E   E   M   S   E   
E   M   S   E   E   M   S   E   E   M   S   E   E   M   S   E   E   M   S   E   
E   M   S   E   E   M   S   E   E   M   S   E   E   M   S   E   E   M   S   E   
E   M   S   E   E   M   S   E   E   M   S   E   E   M   S   E   E   M   S   E   
E   M   S   E   E   M   S   E   E   M   S   E   E   M   S   E   E   M   S   E   
E   M   S   E   E   M   S   E   E   M   S   E   E   M   S   E   E   M   S   E   
E   M   S   E   E   M   S   E   E   M   S   E   E   M   S   E   E   M   S   E   
E   M   S   E   E   M   S   E   E   M   S   E   E   M   S   E   E   M   S   E   
E   M   S   E   E   M   S   E   E   M   S   E   E   M   S   E   E   M   S   E   
E   M   S   E   E   M   S   E   E   M   S   E   E   M   S   E   E   M   S   E   
E   M   S   E   E   M   S   E   E   M   S   E   E   M   S   E   E   M   S   E   
E   M   S   E   E   M   S   E   E   M   S   E   E   M   S   E   E   M   S   E   
E   M   S   E   E   M   S   E   E   M   S   E   E   M   S   E   E   M   S   E   
E   M   S   E   E   M   S   E   E   M   S   E   E   M   S   E   E   M   S   E   
E   M   S   E   E   M   S   E   E   M   S   E   E   M   S   E   E   M   S   E   
E   M   S   E   E   M   S   E   E   M   S   E   E   M   S   E   E   M   S   E   
E   M   S   E   E   M   S   E   E   M   S   E   E   M   S   E   E   M   S   E   
E   M   S   E   E   M   S   E   E   M   S   E   E   M   S   E   E   M   S   E   
E   M   S   E   E   M   S   E   E   M   S   E   E   M   S   E   E   M   S   E   
E   M   S   E   E   M   S   E   E   M   S   E   E   M   S   E   E   M   S   E   
E   M   S   E   E   M   S   E   E   M   S   E   E   M   S   E   E   M   S   E   
E   M   S   E   E   M   S   E   E   M   S   E   E   M   S   E   E   M   S   E   
E   M   S   E   E   M   S   E   E   M   S   E   E   M   S   E   E   M   S   E   
E   M   S   E   E   M   S   E   E   M   S   E   E   M   S   E   E   M   S   E   
E   M   S   E   E   M   S   E   E   M   S   E   E   M   S   E   E   M   S   E   
E   M   S   E   E   M   S   E   E   M   S   E   E   M   S   E   E   M   S   E   
E   M   S   E   E   M   S   E   E   M   S   E   E   M   S   E   E   M   S   E   
E   M   S   E   E   M   S   E   E   M   S   E   E   M   S   E   E   M   S   E   
E   M   S   E   E   M   S   E   E   M   S   E   E   M   S   E   E   M   S   E   
E   M   S   E   E   M   S   E   E   M   S   E   E   M   S   E   E   M   S   E   
E   M   S   E   E   M   S   E   E   M   S   E   E   M   S   E   E   M   S   E   
E   M   S   E   E   M   S   E   E   M   S   E   E   M   S   E   E   M   S   E   
E   M   S   E   E   M   S   E   E   M   S   E   E   M   S   E   E   M   S   E   
E   M   S   E   E   M   S   E   E   M   S   E   E   M   S   E   E   M   S   E   
E   M   S   E   E   M   S   E   E   M   S   E   E   M   S   E   E   M   S   E   
E   M   S   E   E   M   S   E   E   M   S   E   E   M   S   E   E   M   S   E   
E   M   S   E   E   M   S   E   E   M   S   E   E   M   S   E   E   M   S   E   
E   M   S   E   E   M   S   E   E   M   S   E   E   M   S   E   E   M   S   E   
E   M   S   E   E   M   S   E   E   M   S   E   E   M   S   E   E   M   S   E   
E   M   S   E   E   M   S   E   E   M   S   E   E   M   S   E   E   M   S   E   
E   M   S   E   E   M   S   E   E   M   S   E   E   M   S   E   E   M   S   E   
E   M   S   E   E   M   S   E   E   M   S   E   E   M   S   E   E   M   S   E   
E   M   S   E   E   M   S   E   E   M   S   E   E   M   S   E   E   M   S   E   
E   M   S   E   E   M   S   E   E   M   S   E   E   M   S   E   E   M   S   E   
E   M   S   E   E   M   S   E   E   M   S   E   E   M   S   E   E   M   S   E   
E   M   S   E   E   M   S   E   E   M   S   E   E   M   S   E   E   M   S   E   
E   M   S   E   E   M   S   E   E   M   S   E   E   M   S   E   E   M   S   E   
E   M   S   E   E   M   S   E   E   M   S   E   E   M   S   E   E   M   S   E   
E   M   S   E   E   M   S   E   E   M   S   E   E   M   S   E   E   M   S   E   
E   M   S   E   E   M   S   E   E   M   S   E   E   M   S   E   E   M   S   E   
E   M   S   E   E   M   S   E   E   M   S   E   E   M   S   E   E   M   S   E   
E   M   S   E   E   M   S   E   E   M   S   E   E   M   S   E   E   M   S   E   
E   M   S   E   E   M   S   E   E   M   S   E   E   M   S   E   E   M   S   E   
E   M   S   E   E   M   S   E   E   M   S   E   E   M   S   E   E   M   S   E   
E   M   S   E   E   M   S   E   E   M   S   E   E   M   S   E   E   M   S   E   
E   M   S   E   E   M   S   E   E   M   S   E   E   M   S   E   E   M   S   E   
E   M   S   E   E   M   S   E   E   M   S   E   E   M   S   E   E   M   S   E   
E   M   S   E   E   M   S   E   E   M   S   E   E   M   S   E   E   M   S   E   
E   M   S   E   E   M   S   E   E   M   S   E   E   M   S   E   E   M   S   E   
E   M   S   E   E   M   S   E   E   M   S   E   E   M   S   E   E   M   S   E   
E   M   S   E   E   M   S   E   E   M   S   E   E   M   S   E   E   M   S   E   
E   M   S   E   E   M   S   E   E   M   S   E   E   M   S   E   E   M   S   E   
E   M   S   E   E   M   S   E   E   M   S   E   E   M   S   E   E   M   S   E   
E   M   S   E   E   M   S   E   E   M   S   E   E   M   S   E   E   M   S   E   
E   M   S   E   E   M   S   E   E   M   S   E   E   M   S   E   E   M   S   E   
E   M   S   E   E   M   S   E   E   M   S   E   E   M   S   E   E   M   S   E   
E   M   S   E   E   M   S   E   E   M   S   E   E   M   S   E   E   M   S   E   
E   M   S   E   E   M   S   E   E   M   S   E   E   M   S   E   E   M   S   E   
E   M   S   E   E   M   S   E   E   M   S   E   E   M   S   E   E   M   S   E   
E   M   S   E   E   M   S   E   E   M   S   E   E   M   S   E   E   M   S   E   
E   M   S   E   E   M   S   E   E   M   S   E   E   M   S   E   E   M   S   E   
E   M   S   E   E   M   S   E   E   M   S   E   E   M   S   E   E   M   S   E   
E   M   S   E   E   M   S   E   E   M   S   E   E   M   S   E   E   M   S   E   
E   M   S   E   E   M   S   E   E   M   S   E   E   M   S   E   E   M   S   E   
E   M   S   E   E   M   S   E   E   M   S   E   E   M   S   E   E   M   S   E   
E   M   S   E   E   M   S   E   E   M   S   E   E   M   S   E   E   M   S   E   
E   M   S   E   E   M   S   E   E   M   S   E   E   M   S   E   E   M   S   E   
E   M   S   E   E   M   S   E   E   M   S   E   E   M   S   E   E   M   S   E   
E   M   S   E   E   M   S   E   E   M   S   E   E   M   S   E   E   M   S   E   
E   M   S   E   E   M   S   E   E   M   S   E   E   M   S   E   E   M   S   E   
E   M   S   E   E   M   S   E   E   M   S   E   E   M   S   E   E   M   S   E   
E   M   S   E   E   M   S   E   E   M   S   E   E   M   S   E   E   M   S   E   
E   M   S   E   E   M   S   E   E   M   S   E   E   M   S   E   E   M   S   E   
E   M   S   E   E   M   S   E   E   M   S   E   E   M   S   E   E   M   S   E   
E   M   S   E   E   M   S   E   E   M   S   E   E   M   S   E   E   M   S   E   
E   M   S   E   E   M   S   E   E   M   S   E   E   M   S   E   E   M   S   E   
E   M   S   E   E   M   S   E   E   M   S   E   E   M   S   E   E   M   S   E   
E   M   S   E   E   M   S   E   E   M   S   E   E   M   S   E   E   M   S   E   
E   M   S   E   E   M   S   E   E   M   S   E   E   M   S   E   E   M   S   E   
E   M   S   E   E   M   S   E   E   M   S   E   E   M   S   E   E   M   S   E   
E   M   S   E   E   M   S   E   E   M   S   E   E   M   S   E   E   M   S   E   
E   M   S   E   E   M   S   E   E   M   S   E   E   M   S   E   E   M   S   E   
E   M   S   E   E   M   S   E   E   M   S   E   E   M   S   E   E   M   S   E   
E   M   S   E   E   M   S   E   E   M   S   E   E   M   S   E   E   M   S   E   
E   M   S   E   E   M   S   E   E   M   S   E   E   M   S   E   E   M   S   E   
E   M   S   E   E   M   S   E   E   M   S   E   E   M   S   E   E   M   S   E   
E   M   S   E   E   M   S   E   E   M   S   E   E   M   S   E   E   M   S   E   
E   M   S   E   E   M   S   E   E   M   S   E   E   M   S   E   E   M   S   E   
E   M   S   E   E   M   S   E   E   M   S   E   E   M   S   E   E   M   S   E   
E   M   S   E   E   M   S   E   E   M   S   E   E   M   S   E   E   M   S   E   
E   M   S   E   E   M   S   E   E   M   S   E   E   M   S   E   E   M   S   E   
E   M   S   E   E   M   S   E   E   M   S   E   E   M   S   E   E   M   S   E   
E   M   S   E   E   M   S   E   E   M   S   E   E   M   S   E   E   M   S   E   
E   M   S   E   E   M   S   E   E   M   S   E   E   M   S   E   E   M   S   E   
E   M   S   E   E   M   S   E   E   M   S   E   E   M   S   E   E   M   S   E   
E   M   S   E   E   M   S   E   E   M   S   E   E   M   S   E   E   M   S   E   
E   M   S   E   E   M   S   E   E   M   S   E   E   M   S   E   E   M   S   E   
E   M   S   E   E   M   S   E   E   M   S   E   E   M   S   E   E   M   S   E   
E   M   S   E   E   M   S   E   E   M   S   E   E   M   S   E   E   M   S   E   
E   M   S   E   E   M   S   E   E   M   S   E   E   M   S   E   E   M   S   E   
E   M   S   E   E   M   S   E   E   M   S   E   E   M   S   E   E   M   S   E   
E   M   S   E   E   M   S   E   E   M   S   E   E   M   S   E   E   M   S   E   
E   M   S   E   E   M   S   E   E   M   S   E   E   M   S   E   E   M   S   E   
E   M   S   E   E   M   S   E   E   M   S   E   E   M   S   E   E   M   S   E   
E   M   S   E   E   M   S   E   E   M   S   E   E   M   S   E   E   M   S   E   
E   M   S   E   E   M   S   E   E   M   S   E   E   M   S   E   E   M   S   E   
E   M   S   E   E   M   S   E   E   M   S   E   E   M   S   E   E   M   S   E   
E   M   S   E   E   M   S   E   E   M   S   E   E   M   S   E   E   M   S   E   
E   M   S   E   E   M   S   E   E   M   S   E   E   M   S   E   E   M   S   E   
E   M   S   E   E   M   S   E   E   M   S   E   E   M   S   E   E   M   S   E   
E   M   S   E   E   M   S   E   E   M   S   E   E   M   S   E   E   M   S   E   
E   M   S   E   E   M   S   E   E   M   S   E   E   M   S   E   E   M   S   E   
E   M   S   E   E   M   S   E   E   M   S   E   E   M   S   E   E   M   S   E   
E   M   S   E   E   M   S   E   E   M   S   E   E   M   S   E   E   M   S   E   
E   M   S   E   E   M   S   E   E   M   S   E   E   M   S   E   E   M   S   E   
E   M   S   E   E   M   S   E   E   M   S   E   E   M   S   E   E   M   S   E   
E   M   S   E   E   M   S   E   E   M   S   E   E   M   S   E   E   M   S   E   
E   M   S   E   E   M   S   E   E   M   S   E   E   M   S   E   E   M   S   E   
E   M   S   E   E   M   S   E   E   M   S   E   E   M   S   E   E   M   S   E   
E   M   S   E   E   M   S   E   E   M   S   E   E   M   S   E   E   M   S   E   
E   M   S   E   E   M   S   E   E   M   S   E   E   M   S   E   E   M   S   E   
E   M   S   E   E   M   S   E   E   M   S   E   E   M   S   E   E   M   S   E   
E   M   S   E   E   M   S   E   E   M   S   E   E   M   S   E   E   M   S   E   
E   M   S   E   E   M   S   E   E   M   S   E   E   M   S   E   E   M   S   E   
E   M   S   E   E   M   S   E   E   M   S   E   E   M   S   E   E   M   S   E   
E   M   S   E   E   M   S   E   E   M   S   E   E   M   S   E   E   M   S   E   
E   M   S   E   E   M   S   E   E   M   S   E   E   M   S   E   E   M   S   E   
E   M   S   E   E   M   S   E   E   M   S   E   E   M   S   E   E   M   S   E   
E   M   S   E   E   M   S   E   E   M   S   E   E   M   S   E   E   M   S   E   
E   M   S   E   E   M   S   E   E   M   S   E   E   M   S   E   E   M   S   E   
E   M   S   E   E   M   S   E   E   M   S   E   E   M   S   E   E   M   S   E   
E   M   S   E   E   M   S   E   E   M   S   E   E   M   S   E   E   M   S   E   
E   M   S   E   E   M   S   E   E   M   S   E   E   M   S   E   E   M   S   E   
E   M   S   E   E   M   S   E   E   M   S   E   E   M   S   E   E   M   S   E   
E   M   S   E   E   M   S   E   E   M   S   E   E   M   S   E   E   M   S   E   
E   M   S   E   E   M   S   E   E   M   S   E   E   M   S   E   E   M   S   E   
E   M   S   E   E   M   S   E   E   M   S   E   E   M   S   E   E   M   S   E   
E   M   S   E   E   M   S   E   E   M   S   E   E   M   S   E   E   M   S   E   
E   M   S   E   E   M   S   E   E   M   S   E   E   M   S   E   E   M   S   E   
E   M   S   E   E   M   S   E   E   M   S   E   E   M   S   E   E   M   S   E   
E   M   S   E   E   M   S   E   E   M   S   E   E   M   S   E   E   M   S   E   
E   M   S   E   E   M   S   E   E   M   S   E   E   M   S   E   E   M   S   E   
E   M   S   E   E   M   S   E   E   M   S   E   E   M   S   E   E   M   S   E   
E   M   S   E   E   M   S   E   E   M   S   E   E   M   S   E   E   M   S   E   
E   M   S   E   E   M   S   E   E   M   S   E   E   M   S   E   E   M   S   E   
E   M   S   E   E   M   S   E   E   M   S   E   E   M   S   E   E   M   S   E   
E   M   S   E   E   M   S   E   E   M   S   E   E   M   S   E   E   M   S   E   
E   M   S   E   E   M   S   E   E   M   S   E   E   M   S   E   E   M   S   E   
E   M   S   E   E   M   S   E   E   M   S   E   E   M   S   E   E   M   S   E   
E   M   S   E   E   M   S   E   E   M   S   E   E   M   S   E   E   M   S   E   
E   M   S   E   E   M   S   E   E   M   S   E   E   M   S   E   E   M   S   E   
E   M   S   E   E   M   S   E   E   M   S   E   E   M   S   E   E   M   S   E   
E   M   S   E   E   M   S   E   E   M   S   E   E   M   S   E   E   M   S   E   
E   M   S   E   E   M   S   E   E   M   S   E   E   M   S   E   E   M   S   E   
E   M   S   E   E   M   S   E   E   M   S   E   E   M   S   E   E   M   S   E   
E   M   S   E   E   M   S   E   E   M   S   E   E   M   S   E   E   M   S   E   
E   M   S   E   E   M   S   E   E   M   S   E   E   M   S   E   E   M   S   E   
E   M   S   E   E   M   S   E   E   M   S   E   E   M   S   E   E   M   S   E   
E   M   S   E   E   M   S   E   E   M   S   E   E   M   S   E   E   M   S   E   
E   M   S   E   E   M   S   E   E   M   S   E   E   M   S   E   E   M   S   E   
E   M   S   E   E   M   S   E   E   M   S   E   E   M   S   E   E   M   S   E   
E   M   S   E   E   M   S   E   E   M   S   E   E   M   S   E   E   M   S   E   
E   M   S   E   E   M   S   E   E   M   S   E   E   M   S   E   E   M   S   E   
E   M   S   E   E   M   S   E   E   M   S   E   E   M   S   E   E   M   S   E   
E   M   S   E   E   M   S   E   E   M   S   E   E   M   S   E   E   M   S   E   
E   M   S   E   E   M   S   E   E   M   S   E   E   M   S   E   E   M   S   E   
E   M   S   E   E   M   S   E   E   M   S   E   E   M   S   E   E   M   S   E   
E   M   S   E   E   M   S   E   E   M   S   E   E   M   S   E   E   M   S   E   
E   M   S   E   E   M   S   E   E   M   S   E   E   M   S   E   E   M   S   E   
E   M   S   E   E   M   S   E   E   M   S   E   E   M   S   E   E   M   S   E   
E   M   S   E   E   M   S   E   E   M   S   E   E   M   S   E   E   M   S   E   
E   M   S   E   E   M   S   E   E   M   S   E   E   M   S   E   E   M   S   E   
E   M   S   E   E   M   S   E   E   M   S   E   E   M   S   E   E   M   S   E   
E   M   S   E   E   M   S   E   E   M   S   E   E   M   S   E   E   M   S   E   
E   M   S   E   E   M   S   E   E   M   S   E   E   M   S   E   E   M   S   E   
E   M   S   E   E   M   S   E   E   M   S   E   E   M   S   E   E   M   S   E   
E   M   S   E   E   M   S   E   E   M   S   E   E   M   S   E   E   M   S   E   
E   M   S   E   E   M   S   E   E   M   S   E   E   M   S   E   E   M   S   E   
E   M   S   E   E   M   S   E   E   M   S   E   E   M   S   E   E   M   S   E   
E   M   S   E   E   M   S   E   E   M   S   E   E   M   S   E   E   M   S   E   
E   M   S   E   E   M   S   E   E   M   S   E   E   M   S   E   E   M   S   E   
E   M   S   E   E   M   S   E   E   M   S   E   E   M   S   E   E   M   S   E   
E   M   S   E   E   M   S   E   E   M   S   E   E   M   S   E   E   M   S   E   
E   M   S   E   E   M   S   E   E   M   S   E   E   M   S   E   E   M   S   E   
E   M   S   E   E   M   S   E   E   M   S   E   E   M   S   E   E   M   S   E   
E   M   S   E   E   M   S   E   E   M   S   E   E   M   S   E   E   M   S   E   
E   M   S   E   E   M   S   E   E   M   S   E   E   M   S   E   E   M   S   E   
E   M   S   E   E   M   S   E   E   M   S   E   E   M   S   E   E   M   S   E   
E   M   S   E   E   M   S   E   E   M   S   E   E   M   S   E   E   M   S   E   
E   M   S   E   E   M   S   E   E   M   S   E   E   M   S   E   E   M   S   E   
E   M   S   E   E   M   S   E   E   M   S   E   E   M   S   E   E   M   S   E   
E   M   S   E   E   M   S   E   E   M   S   E   E   M   S   E   E   M   S   E   
E   M   S   E   E   M   S   E   E   M   S   E   E   M   S   E   E   M   S   E   
E   M   S   E   E   M   S   E   E   M   S   E   E   M   S   E   E   M   S   E   
E   M   S   E   E   M   S   E   E   M   S   E   E   M   S   E   E   M   S   E   
E   M   S   E   E   M   S   E   E   M   S   E   E   M   S   E   E   M   S   E   
E   M   S   E   E   M   S   E   E   M   S   E   E   M   S   E   E   M   S   E   
E   M   S   E   E   M   S   E   E   M   S   E   E   M   S   E   E   M   S   E   
E   M   S   E   E   M   S   E   E   M   S   E   E   M   S   E   E   M   S   E   
E   M   S   E   E   M   S   E   E   M   S   E   E   M   S   E   E   M   S   E   
E   M   S   E   E   M   S   E   E   M   S   E   E   M   S   E   E   M   S   E   
E   M   S   E   E   M   S   E   E   M   S   E   E   M   S   E   E   M   S   E   
E   M   S   E   E   M   S   E   E   M   S   E   E   M   S   E   E   M   S   E   
E   M   S   E   E   M   S   E   E   M   S   E   E   M   S   E   E   M   S   E   
E   M   S   E   E   M   S   E   E   M   S   E   E   M   S   E   E   M   S   E   
E   M   S   E   E   M   S   E   E   M   S   E   E   M   S   E   E   M   S   E   
E   M   S   E   E   M   S   E   E   M   S   E   E   M   S   E   E   M   S   E   
E   M   S   E   E   M   S   E   E   M   S   E   E   M   S   E   E   M   S   E   
E   M   S   E   E   M   S   E   E   M   S   E   E   M   S   E   E   M   S   E   
E   M   S   E   E   M   S   E   E   M   S   E   E   M   S   E   E   M   S   E   
E   M   S   E   E   M   S   E   E   M   S   E   E   M   S   E   E   M   S   E   
E   M   S   E   E   M   S   E   E   M   S   E   E   M   S   E   E   M   S   E   
E   M   S   E   E   M   S   E   E   M   S   E   E   M   S   E   E   M   S   E   
E   M   S   E   E   M   S   E   E   M   S   E   E   M   S   E   E   M   S   E   
E   M   S   E   E   M   S   E   E   M   S   E   E   M   S   E   E   M   S   E   
E   M   S   E   E   M   S   E   E   M   S   E   E   M   S   E   E   M   S   E   
E   M   S   E   E   M   S   E   E   M   S   E   E   M   S   E   E   M   S   E   
E   M   S   E   E   M   S   E   E   M   S   E   E   M   S   E   E   M   S   E   
E   M   S   E   E   M   S   E   E   M   S   E   E   M   S   E   E   M   S   E   
E   M   S   E   E   M   S   E   E   M   S   E   E   M   S   E   E   M   S   E   
E   M   S   E   E   M   S   E   E   M   S   E   E   M   S   E   E   M   S   E   
E   M   S   E   E   M   S   E   E   M   S   E   E   M   S   E   E   M   S   E   
E   M   S   E   E   M   S   E   E   M   S   E   E   M   S   E   E   M   S   E   
E   M   S   E   E   M   S   E   E   M   S   E   E   M   S   E   E   M   S   E   
E   M   S   E   E   M   S   E   E   M   S   E   E   M   S   E   E   M   S   E   
E   M   S   E   E   M   S   E   E   M   S   E   E   M   S   E   E   M   S   E   
E   M   S   E   E   M   S   E   E   M   S   E   E   M   S   E   E   M   S   E   
E   M   S   E   E   M   S   E   E   M   S   E   E   M   S   E   E   M   S   E   
E   M   S   E   E   M   S   E   E   M   S   E   E   M   S   E   E   M   S   E   
E   M   S   E   E   M   S   E   E   M   S   E   E   M   S   E   E   M   S   E   
E   M   S   E   E   M   S   E   E   M   S   E   E   M   S   E   E   M   S   E   
E   M   S   E   E   M   S   E   E   M   S   E   E   M   S   E   E   M   S   E   
E   M   S   E   E   M   S   E   E   M   S   E   E   M   S   E   E   M   S   E   
E   M   S   E   E   M   S   E   E   M   S   E   E   M   S   E   E   M   S   E   
E   M   S   E   E   M   S   E   E   M   S   E   E   M   S   E   E   M   S   E   
E   M   S   E   E   M   S   E   E   M   S   E   E   M   S   E   E   M   S   E   
E   M   S   E   E   M   S   E   E   M   S   E   E   M   S   E   E   M   S   E   
E   M   S   E   E   M   S   E   E   M   S   E   E   M   S   E   E   M   S   E   
E   M   S   E   E   M   S   E   E   M   S   E   E   M   S   E   E   M   S   E   
E   M   S   E   E   M   S   E   E   M   S   E   E   M   S   E   E   M   S   E   
E   M   S   E   E   M   S   E   E   M   S   E   E   M   S   E   E   M   S   E   
E   M   S   E   E   M   S   E   E   M   S   E   E   M   S   E   E   M   S   E   
E   M   S   E   E   M   S   E   E   M   S   E   E   M   S   E   E   M   S   E   
E   M   S   E   E   M   S   E   E   M   S   E   E   M   S   E   E   M   S   E   
E   M   S   E   E   M   S   E   E   M   S   E   E   M   S   E   E   M   S   E   
E   M   S   E   E   M   S   E   E   M   S   E   E   M   S   E   E   M   S   E   
E   M   S   E   E   M   S   E   E   M   S   E   E   M   S   E   E   M   S   E   
E   M   S   E   E   M   S   E   E   M   S   E   E   M   S   E   E   M   S   E   
E   M   S   E   E   M   S   E   E   M   S   E   E   M   S   E   E   M   S   E   
E   M   S   E   E   M   S   E   E   M   S   E   E   M   S   E   E   M   S   E   
E   M   S   E   E   M   S   E   E   M   S   E   E   M   S   E   E   M   S   E   
E   M   S   E   E   M   S   E   E   M   S   E   E   M   S   E   E   M   S   E   
E   M   S   E   E   M   S   E   E   M   S   E   E   M   S   E   E   M   S   E   
E   M   S   E   E   M   S   E   E   M   S   E   E   M   S   E   E   M   S   E   
E   M   S   E   E   M   S   E   E   M   S   E   E   M   S   E   E   M   S   E   
E   M   S   E   E   M   S   E   E   M   S   E   E   M   S   E   E   M   S   E   
E   M   S   E   E   M   S   E   E   M   S   E   E   M   S   E   E   M   S   E   
E   M   S   E   E   M   S   E   E   M   S   E   E   M   S   E   E   M   S   E   
E   M   S   E   E   M   S   E   E   M   S   E   E   M   S   E   E   M   S   E   
E   M   S   E   E   M   S   E   E   M   S   E   E   M   S   E   E   M   S   E   
E   M   S   E   E   M   S   E   E   M   S   E   E   M   S   E   E   M   S   E   
E   M   S   E   E   M   S   E   E   M   S   E   E   M   S   E   E   M   S   E   
E   M   S   E   E   M   S   E   E   M   S   E   E   M   S   E   E   M   S   E   
E   M   S   E   E   M   S   E   E   M   S   E   E   M   S   E   E   M   S   E   
E   M   S   E   E   M   S   E   E   M   S   E   E   M   S   E   E   M   S   E   
E   M   S   E   E   M   S   E   E   M   S   E   E   M   S   E   E   M   S   E   
E   M   S   E   E   M   S   E   E   M   S   E   E   M   S   E   E   M   S   E   
E   M   S   E   E   M   S   E   E   M   S   E   E   M   S   E   E   M   S   E   
E   M   S   E   E   M   S   E   E   M   S   E   E   M   S   E   E   M   S   E   
E   M   S   E   E   M   S   E   E   M   S   E   E   M   S   E   E   M   S   E   
E   M   S   E   E   M   S   E   E   M   S   E   E   M   S   E   E   M   S   E   
E   M   S   E   E   M   S   E   E   M   S   E   E   M   S   E   E   M   S   E   
E   M   S   E   E   M   S   E   E   M   S   E   E   M   S   E   E   M   S   E   
E   M   S   E   E   M   S   E   E   M   S   E   E   M   S   E   E   M   S   E   
E   M   S   E   E   M   S   E   E   M   S   E   E   M   S   E   E   M   S   E   
E   M   S   E   E   M   S   E   E   M   S   E   E   M   S   E   E   M   S   E   
E   M   S   E   E   M   S   E   E   M   S   E   E   M   S   E   E   M   S   E   
E   M   S   E   E   M   S   E   E   M   S   E   E   M   S   E   E   M   S   E   
E   M   S   E   E   M   S   E   E   M   S   E   E   M   S   E   E   M   S   E   
E   M   S   E   E   M   S   E   E   M   S   E   E   M   S   E   E   M   S   E   
E   M   S   E   E   M   S   E   E   M   S   E   E   M   S   E   E   M   S   E   
E   M   S   E   E   M   S   E   E   M   S   E   E   M   S   E   E   M   S   E   
E   M   S   E   E   M   S   E   E   M   S   E   E   M   S   E   E   M   S   E   
E   M   S   E   E   M   S   E   E   M   S   E   E   M   S   E   E   M   S   E   
E   M   S   E   E   M   S   E   E   M   S   E   E   M   S   E   E   M   S   E   
E   M   S   E   E   M   S   E   E   M   S   E   E   M   S   E   E   M   S   E   
E   M   S   E   E   M   S   E   E   M   S   E   E   M   S   E   E   M   S   E   
E   M   S   E   E   M   S   E   E   M   S   E   E   M   S   E   E   M   S   E   
E   M   S   E   E   M   S   E   E   M   S   E   E   M   S   E   E   M   S   E   
E   M   S   E   E   M   S   E   E   M   S   E   E   M   S   E   E   M   S   E   
E   M   S   E   E   M   S   E   E   M   S   E   E   M   S   E   E   M   S   E   
E   M   S   E   E   M   S   E   E   M   S   E   E   M   S   E   E   M   S   E   
E   M   S   E   E   M   S   E   E   M   S   E   E   M   S   E   E   M   S   E   
E   M   S   E   E   M   S   E   E   M   S   E   E   M   S   E   E   M   S   E   
E   M   S   E   E   M   S   E   E   M   S   E   E   M   S   E   E   M   S   E   
E   M   S   E   E   M   S   E   E   M   S   E   E   M   S   E   E   M   S   E   
E   M   S   E   E   M   S   E   E   M   S   E   E   M   S   E   E   M   S   E   
E   M   S   E   E   M   S   E   E   M   S   E   E   M   S   E   E   M   S   E   
E   M   S   E   E   M   S   E   E   M   S   E   E   M   S   E   E   M   S   E   
E   M   S   E   E   M   S   E   E   M   S   E   E   M   S   E   E   M   S   E   
E   M   S   E   E   M   S   E   E   M   S   E   E   M   S   E   E   M   S   E   
E   M   S   E   E   M   S   E   E   M   S   E   E   M   S   E   E   M   S   E   
E   M   S   E   E   M   S   E   E   M   S   E   E   M   S   E   E   M   S   E   
E   M   S   E   E   M   S   E   E   M   S   E   E   M   S   E   E   M   S   E   
E   M   S   E   E   M   S   E   E   M   S   E   E   M   S   E   E   M   S   E   
E   M   S   E   E   M   S   E   E   M   S   E   E   M   S   E   E   M   S   E   
E   M   S   E   E   M   S   E   E   M   S   E   E   M   S   E   E   M   S   E   
E   M   S   E   E   M   S   E   E   M   S   E   E   M   S   E   E   M   S   E   
E   M   S   E   E   M   S   E   E   M   S   E   E   M   S   E   E   M   S   E   
E   M   S   E   E   M   S   E   E   M   S   E   E   M   S   E   E   M   S   E   
E   M   S   E   E   M   S   E   E   M   S   E   E   M   S   E   E   M   S   E   
E   M   S   E   E   M   S   E   E   M   S   E   E   M   S   E   E   M   S   E   
E   M   S   E   E   M   S   E   E   M   S   E   E   M   S   E   E   M   S   E   
E   M   S   E   E   M   S   E   E   M   S   E   E   M   S   E   E   M   S   E   
E   M   S   E   E   M   S   E   E   M   S   E   E   M   S   E   E   M   S   E   
E   M   S   E   E   M   S   E   E   M   S   E   E   M   S   E   E   M   S   E   
E   M   S   E   E   M   S   E   E   M   S   E   E   M   S   E   E   M   S   E   
E   M   S   E   E   M   S   E   E   M   S   E   E   M   S   E   E   M   S   E   
E   M   S   E   E   M   S   E   E   M   S   E   E   M   S   E   E   M   S   E   
E   M   S   E   E   M   S   E   E   M   S   E   E   M   S   E   E   M   S   E   
E   M   S   E   E   M   S   E   E   M   S   E   E   M   S   E   E   M   S   E   
E   M   S   E   E   M   S   E   E   M   S   E   E   M   S   E   E   M   S   E   
E   M   S   E   E   M   S   E   E   M   S   E   E   M   S   E   E   M   S   E   
E   M   S   E   E   M   S   E   E   M   S   E   E   M   S   E   E   M   S   E   
E   M   S   E   E   M   S   E   E   M   S   E   E   M   S   E   E   M   S   E   
E   M   S   E   E   M   S   E   E   M   S   E   E   M   S   E   E   M   S   E   
E   M   S   E   E   M   S   E   E   M   S   E   E   M   S   E   E   M   S   E   
E   M   S   E   E   M   S   E   E   M   S   E   E   M   S   E   E   M   S   E   
E   M   S   E   E   M   S   E   E   M   S   E   E   M   S   E   E   M   S   E   
E   M   S   E   E   M   S   E   E   M   S   E   E   M   S   E   E   M   S   E   
E   M   S   E   E   M   S   E   E   M   S   E   E   M   S   E   E   M   S   E   
E   M   S   E   E   M   S   E   E   M   S   E   E   M   S   E   E   M   S   E   
E   M   S   E   E   M   S   E   E   M   S   E   E   M   S   E   E   M   S   E   
E   M   S   E   E   M   S   E   E   M   S   E   E   M   S   E   E   M   S   E   
E   M   S   E   E   M   S   E   E   M   S   E   E   M   S   E   E   M   S   E   
E   M   S   E   E   M   S   E   E   M   S   E   E   M   S   E   E   M   S   E   
E   M   S   E   E   M   S   E   E   M   S   E   E   M   S   E   E   M   S   E   
E   M   S   E   E   M   S   E   E   M   S   E   E   M   S   E   E   M   S   E   
E   M   S   E   E   M   S   E   E   M   S   E   E   M   S   E   E   M   S   E   
E   M   S   E   E   M   S   E   E   M   S   E   E   M   S   E   E   M   S   E   
E   M   S   E   E   M   S   E   E   M   S   E   E   M   S   E   E   M   S   E   
E   M   S   E   E   M   S   E   E   M   S   E   E   M   S   E   E   M   S   E   
E   M   S   E   E   M   S   E   E   M   S   E   E   M   S   E   E   M   S   E   
E   M   S   E   E   M   S   E   E   M   S   E   E   M   S   E   E   M   S   E   
E   M   S   E   E   M   S   E   E   M   S   E   E   M   S   E   E   M   S   E   
E   M   S   E   E   M   S   E   E   M   S   E   E   M   S   E   E   M   S   E   
E   M   S   E   E   M   S   E   E   M   S   E   E   M   S   E   E   M   S   E   
E   M   S   E   E   M   S   E   E   M   S   E   E   M   S   E   E   M   S   E   
E   M   S   E   E   M   S   E   E   M   S   E   E   M   S   E   E   M   S   E   
E   M   S   E   E   M   S   E   E   M   S   E   E   M   S   E   E   M   S   E   
E   M   S   E   E   M   S   E   E   M   S   E   E   M   S   E   E   M   S   E   
E   M   S   E   E   M   S   E   E   M   S   E   E   M   S   E   E   M   S   E   
E   M   S   E   E   M   S   E   E   M   S   E   E   M   S   E   E   M   S   E   
E   M   S   E   E   M   S   E   E   M   S   E   E   M   S   E   E   M   S   E   
E   M   S   E   E   M   S   E   E   M   S   E   E   M   S   E   E   M   S   E   
E   M   S   E   E   M   S   E   E   M   S   E   E   M   S   E   E   M   S   E   
E   M   S   E   E   M   S   E   E   M   S   E   E   M   S   E   E   M   S   E   
E   M   S   E   E   M   S   E   E   M   S   E   E   M   S   E   E   M   S   E   
E   M   S   E   E   M   S   E   E   M   S   E   E   M   S   E   E   M   S   E   
E   M   S   E   E   M   S   E   E   M   S   E   E   M   S   E   E   M   S   E   
E   M   S   E   E   M   S   E   E   M   S   E   E   M   S   E   E   M   S   E   
E   M   S   E   E   M   S   E   E   M   S   E   E   M   S   E   E   M   S   E   
E   M   S   E   E   M   S   E   E   M   S   E   E   M   S   E   E   M   S   E   
E   M   S   E   E   M   S   E   E   M   S   E   E   M   S   E   E   M   S   E   
E   M   S   E   E   M   S   E   E   M   S   E   E   M   S   E   E   M   S   E   
E   M   S   E   E   M   S   E   E   M   S   E   E   M   S   E   E   M   S   E   
E   M   S   E   E   M   S   E   E   M   S   E   E   M   S   E   E   M   S   E   
E   M   S   E   E   M   S   E   E   M   S   E   E   M   S   E   E   M   S   E   
E   M   S   E   E   M   S   E   E   M   S   E   E   M   S   E   E   M   S   E   
E   M   S   E   E   M   S   E   E   M   S   E   E   M   S   E   E   M   S   E   
E   M   S   E   E   M   S   E   E   M   S   E   E   M   S   E   E   M   S   E   
E   M   S   E   E   M   S   E   E   M   S   E   E   M   S   E   E   M   S   E   
E   M   S   E   E   M   S   E   E   M   S   E   E   M   S   E   E   M   S   E   
E   M   S   E   E   M   S   E   E   M   S   E   E   M   S   E   E   M   S   E   
E   M   S   E   E   M   S   E   E   M   S   E   E   M   S   E   E   M   S   E   
E   M   S   E   E   M   S   E   E   M   S   E   E   M   S   E   E   M   S   E   
E   M   S   E   E   M   S   E   E   M   S   E   E   M   S   E   E   M   S   E   
E   M   S   E   E   M   S   E   E   M   S   E   E   M   S   E   E   M   S   E   
E   M   S   E   E   M   S   E   E   M   S   E   E   M   S   E   E   M   S   E   
E   M   S   E   E   M   S   E   E   M   S   E   E   M   S   E   E   M   S   E   
E   M   S   E   E   M   S   E   E   M   S   E   E   M   S   E   E   M   S   E   
E   M   S   E   E   M   S   E   E   M   S   E   E   M   S   E   E   M   S   E   
E   M   S   E   E   M   S   E   E   M   S   E   E   M   S   E   E   M   S   E   
E   M   S   E   E   M   S   E   E   M   S   E   E   M   S   E   E   M   S   E   
E   M   S   E   E   M   S   E   E   M   S   E   E   M   S   E   E   M   S   E   
E   M   S   E   E   M   S   E   E   M   S   E   E   M   S   E   E   M   S   E   
E   M   S   E   E   M   S   E   E   M   S   E   E   M   S   E   E   M   S   E   
E   M   S   E   E   M   S   E   E   M   S   E   E   M   S   E   E   M   S   E   
E   M   S   E   E   M   S   E   E   M   S   E   E   M   S   E   E   M   S   E   
E   M   S   E   E   M   S   E   E   M   S   E   E   M   S   E   E   M   S   E   
E   M   S   E   E   M   S   E   E   M   S   E   E   M   S   E   E   M   S   E   
E   M   S   E   E   M   S   E   E   M   S   E   E   M   S   E   E   M   S   E   
E   M   S   E   E   M   S   E   E   M   S   E   E   M   S   E   E   M   S   E   
E   M   S   E   E   M   S   E   E   M   S   E   E   M   S   E   E   M   S   E   
E   M   S   E   E   M   S   E   E   M   S   E   E   M   S   E   E   M   S   E   
E   M   S   E   E   M   S   E   E   M   S   E   E   M   S   E   E   M   S   E   
E   M   S   E   E   M   S   E   E   M   S   E   E   M   S   E   E   M   S   E   
E   M   S   E   E   M   S   E   E   M   S   E   E   M   S   E   E   M   S   E   
E   M   S   E   E   M   S   E   E   M   S   E   E   M   S   E   E   M   S   E   
E   M   S   E   E   M   S   E   E   M   S   E   E   M   S   E   E   M   S   E   
E   M   S   E   E   M   S   E   E   M   S   E   E   M   S   E   E   M   S   E   
E   M   S   E   E   M   S   E   E   M   S   E   E   M   S   E   E   M   S   E   
E   M   S   E   E   M   S   E   E   M   S   E   E   M   S   E   E   M   S   E   
E   M   S   E   E   M   S   E   E   M   S   E   E   M   S   E   E   M   S   E   
E   M   S   E   E   M   S   E   E   M   S   E   E   M   S   E   E   M   S   E   
E   M   S   E   E   M   S   E   E   M   S   E   E   M   S   E   E   M   S   E   
E   M   S   E   E   M   S   E   E   M   S   E   E   M   S   E   E   M   S   E   
E   M   S   E   E   M   S   E   E   M   S   E   E   M   S   E   E   M   S   E   
E   M   S   E   E   M   S   E   E   M   S   E   E   M   S   E   E   M   S   E   
E   M   S   E   E   M   S   E   E   M   S   E   E   M   S   E   E   M   S   E   
E   M   S   E   E   M   S   E   E   M   S   E   E   M   S   E   E   M   S   E   
E   M   S   E   E   M   S   E   E   M   S   E   E   M   S   E   E   M   S   E   
E   M   S   E   E   M   S   E   E   M   S   E   E   M   S   E   E   M   S   E   
E   M   S   E   E   M   S   E   E   M   S   E   E   M   S   E   E   M   S   E   
E   M   S   E   E   M   S   E   E   M   S   E   E   M   S   E   E   M   S   E   
E   M   S   E   E   M   S   E   E   M   S   E   E   M   S   E   E   M   S   E   
E   M   S   E   E   M   S   E   E   M   S   E   E   M   S   E   E   M   S   E   
E   M   S   E   E   M   S   E   E   M   S   E   E   M   S   E   E   M   S   E   
E   M   S   E   E   M   S   E   E   M   S   E   E   M   S   E   E   M   S   E   
E   M   S   E   E   M   S   E   E   M   S   E   E   M   S   E   E   M   S   E   
E   M   S   E   E   M   S   E   E   M   S   E   E   M   S   E   E   M   S   E   
E   M   S   E   E   M   S   E   E   M   S   E   E   M   S   E   E   M   S   E   
E   M   S   E   E   M   S   E   E   M   S   E   E   M   S   E   E   M   S   E   
E   M   S   E   E   M   S   E   E   M   S   E   E   M   S   E   E   M   S   E   
E   M   S   E   E   M   S   E   E   M   S   E   E   M   S   E   E   M   S   E   
E   M   S   E   E   M   S   E   E   M   S   E   E   M   S   E   E   M   S   E   
E   M   S   E   E   M   S   E   E   M   S   E   E   M   S   E   E   M   S   E   
E   M   S   E   E   M   S   E   E   M   S   E   E   M   S   E   E   M   S   E   
E   M   S   E   E   M   S   E   E   M   S   E   E   M   S   E   E   M   S   E   
E   M   S   E   E   M   S   E   E   M   S   E   E   M   S   E   E   M   S   E   
E   M   S   E   E   M   S   E   E   M   S   E   E   M   S   E   E   M   S   E   
E   M   S   E   E   M   S   E   E   M   S   E   E   M   S   E   E   M   S   E   
E   M   S   E   E   M   S   E   E   M   S   E   E   M   S   E   E   M   S   E   
E   M   S   E   E   M   S   E   E   M   S   E   E   M   S   E   E   M   S   E   
E   M   S   E   E   M   S   E   E   M   S   E   E   M   S   E   E   M   S   E   
E   M   S   E   E   M   S   E   E   M   S   E   E   M   S   E   E   M   S   E   
E   M   S   E   E   M   S   E   E   M   S   E   E   M   S   E   E   M   S   E   
E   M   S   E   E   M   S   E   E   M   S   E   E   M   S   E   E   M   S   E   
E   M   S   E   E   M   S   E   E   M   S   E   E   M   S   E   E   M   S   E   
E   M   S   E   E   M   S   E   E   M   S   E   E   M   S   E   E   M   S   E   
E   M   S   E   E   M   S   E   E   M   S   E   E   M   S   E   E   M   S   E   
E   M   S   E   E   M   S   E   E   M   S   E   E   M   S   E   E   M   S   E   
E   M   S   E   E   M   S   E   E   M   S   E   E   M   S   E   E   M   S   E   
E   M   S   E   E   M   S   E   E   M   S   E   E   M   S   E   E   M   S   E   
E   M   S   E   E   M   S   E   E   M   S   E   E   M   S   E   E   M   S   E   
E   M   S   E   E   M   S   E   E   M   S   E   E   M   S   E   E   M   S   E   
E   M   S   E   E   M   S   E   E   M   S   E   E   M   S   E   E   M   S   E   
E   M   S   E   E   M   S   E   E   M   S   E   E   M   S   E   E   M   S   E   
E   M   S   E   E   M   S   E   E   M   S   E   E   M   S   E   E   M   S   E   
E   M   S   E   E   M   S   E   E   M   S   E   E   M   S   E   E   M   S   E   
E   M   S   E   E   M   S   E   E   M   S   E   E   M   S   E   E   M   S   E   
E   M   S   E   E   M   S   E   E   M   S   E   E   M   S   E   E   M   S   E   
E   M   S   E   E   M   S   E   E   M   S   E   E   M   S   E   E   M   S   E   
E   M   S   E   E   M   S   E   E   M   S   E   E   M   S   E   E   M   S   E   
E   M   S   E   E   M   S   E   E   M   S   E   E   M   S   E   E   M   S   E   
E   M   S   E   E   M   S   E   E   M   S   E   E   M   S   E   E   M   S   E   
E   M   S   E   E   M   S   E   E   M   S   E   E   M   S   E   E   M   S   E   
E   M   S   E   E   M   S   E   E   M   S   E   E   M   S   E   E   M   S   E   
E   M   S   E   E   M   S   E   E   M   S   E   E   M   S   E   E   M   S   E   
E   M   S   E   E   M   S   E   E   M   S   E   E   M   S   E   E   M   S   E   
E   M   S   E   E   M   S   E   E   M   S   E   E   M   S   E   E   M   S   E   
E   M   S   E   E   M   S   E   E   M   S   E   E   M   S   E   E   M   S   E   
E   M   S   E   E   M   S   E   E   M   S   E   E   M   S   E   E   M   S   E   
E   M   S   E   E   M   S   E   E   M   S   E   E   M   S   E   E   M   S   E   
E   M   S   E   E   M   S   E   E   M   S   E   E   M   S   E   E   M   S   E   
E   M   S   E   E   M   S   E   E   M   S   E   E   M   S   E   E   M   S   E   
E   M   S   E   E   M   S   E   E   M   S   E   E   M   S   E   E   M   S   E   
E   M   S   E   E   M   S   E   E   M   S   E   E   M   S   E   E   M   S   E   
E   M   S   E   E   M   S   E   E   M   S   E   E   M   S   E   E   M   S   E   
E   M   S   E   E   M   S   E   E   M   S   E   E   M   S   E   E   M   S   E   
E   M   S   E   E   M   S   E   E   M   S   E   E   M   S   E   E   M   S   E   
E   M   S   E   E   M   S   E   E   M   S   E   E   M   S   E   E   M   S   E   
E   M   S   E   E   M   S   E   E   M   S   E   E   M   S   E   E   M   S   E   
E   M   S   E   E   M   S   E   E   M   S   E   E   M   S   E   E   M   S   E   
E   M   S   E   E   M   S   E   E   M   S   E   E   M   S   E   E   M   S   E   
E   M   S   E   E   M   S   E   E   M   S   E   E   M   S   E   E   M   S   E   
E   M   S   E   E   M   S   E   E   M   S   E   E   M   S   E   E   M   S   E   
E   M   S   E   E   M   S   E   E   M   S   E   E   M   S   E   E   M   S   E   
E   M   S   E   E   M   S   E   E   M   S   E   E   M   S   E   E   M   S   E   
E   M   S   E   E   M   S   E   E   M   S   E   E   M   S   E   E   M   S   E   
E   M   S   E   E   M   S   E   E   M   S   E   E   M   S   E   E   M   S   E   
E   M   S   E   E   M   S   E   E   M   S   E   E   M   S   E   E   M   S   E   
E   M   S   E   E   M   S   E   E   M   S   E   E   M   S   E   E   M   S   E   
E   M   S   E   E   M   S   E   E   M   S   E   E   M   S   E   E   M   S   E   
E   M   S   E   E   M   S   E   E   M   S   E   E   M   S   E   E   M   S   E   
E   M   S   E   E   M   S   E   E   M   S   E   E   M   S   E   E   M   S   E   
E   M   S   E   E   M   S   E   E   M   S   E   E   M   S   E   E   M   S   E   
E   M   S   E   E   M   S   E   E   M   S   E   E   M   S   E   E   M   S   E   
E   M   S   E   E   M   S   E   E   M   S   E   E   M   S   E   E   M   S   E   
E   M   S   E   E   M   S   E   E   M   S   E   E   M   S   E   E   M   S   E   
E   M   S   E   E   M   S   E   E   M   S   E   E   M   S   E   E   M   S   E   
E   M   S   E   E   M   S   E   E   M   S   E   E   M   S   E   E   M   S   E   
E   M   S   E   E   M   S   E   E   M   S   E   E   M   S   E   E   M   S   E   
E   M   S   E   E   M   S   E   E   M   S   E   E   M   S   E   E   M   S   E   
E   M   S   E   E   M   S   E   E   M   S   E   E   M   S   E   E   M   S   E   
E   M   S   E   E   M   S   E   E   M   S   E   E   M   S   E   E   M   S   E   
E   M   S   E   E   M   S   E   E   M   S   E   E   M   S   E   E   M   S   E   
E   M   S   E   E   M   S   E   E   M   S   E   E   M   S   E   E   M   S   E   
E   M   S   E   E   M   S   E   E   M   S   E   E   M   S   E   E   M   S   E   
E   M   S   E   E   M   S   E   E   M   S   E   E   M   S   E   E   M   S   E   
E   M   S   E   E   M   S   E   E   M   S   E   E   M   S   E   E   M   S   E   
E   M   S   E   E   M   S   E   E   M   S   E   E   M   S   E   E   M   S   E   
E   M   S   E   E   M   S   E   E   M   S   E   E   M   S   E   E   M   S   E   
E   M   S   E   E   M   S   E   E   M   S   E   E   M   S   E   E   M   S   E   
E   M   S   E   E   M   S   E   E   M   S   E   E   M   S   E   E   M   S   E   
E   M   S   E   E   M   S   E   E   M   S   E   E   M   S   E   E   M   S   E   
E   M   S   E   E   M   S   E   E   M   S   E   E   M   S   E   E   M   S   E   
E   M   S   E   E   M   S   E   E   M   S   E   E   M   S   E   E   M   S   E   
E   M   S   E   E   M   S   E   E   M   S   E   E   M   S   E   E   M   S   E   
E   M   S   E   E   M   S   E   E   M   S   E   E   M   S   E   E   M   S   E   
E   M   S   E   E   M   S   E   E   M   S   E   E   M   S   E   E   M   S   E   
E   M   S   E   E   M   S   E   E   M   S   E   E   M   S   E   E   M   S   E   
E   M   S   E   E   M   S   E   E   M   S   E   E   M   S   E   E   M   S   E   
E   M   S   E   E   M   S   E   E   M   S   E   E   M   S   E   E   M   S   E   
E   M   S   E   E   M   S   E   E   M   S   E   E   M   S   E   E   M   S   E   
E   M   S   E   E   M   S   E   E   M   S   E   E   M   S   E   E   M   S   E   
E   M   S   E   E   M   S   E   E   
%FLAG JOIN_ARRAY                                                                
%FORMAT(10I8)                                                                   
       0       0       0       0       0       0       0       0       0       0
       0       0       0       0       0       0       0       0       0       0
       0       0       0       0       0       0       0       0       0       0
       0       0       0       0       0       0       0       0       0       0
       0       0       0       0       0       0       0       0       0       0
       0       0       0       0       0       0       0       0       0       0
       0       0       0       0       0       0       0       0       0       0
       0       0       0       0       0       0       0       0       0       0
       0       0       0       0       0       0       0       0       0       0
       0       0       0       0       0       0       0       0       0       0
       0       0       0       0       0       0       0       0       0       0
       0       0       0       0       0       0       0       0       0       0
       0       0       0       0       0       0       0       0       0       0
       0       0       0       0       0       0       0       0       0       0
       0       0       0       0       0       0       0       0       0       0
       0       0       0       0       0       0       0       0       0       0
       0       0       0       0       0       0       0       0       0       0
       0       0       0       0       0       0       0       0       0       0
       0       0       0       0       0       0       0       0       0       0
       0       0       0       0       0       0       0       0       0       0
       0       0       0       0       0       0       0       0       0       0
       0       0       0       0       0       0       0       0       0       0
       0       0       0       0       0       0       0       0       0       0
       0       0       0       0       0       0       0       0       0       0
       0       0       0       0       0       0       0       0       0       0
       0       0       0       0       0       0       0       0       0       0
       0       0       0       0       0       0       0       0       0       0
       0       0       0       0       0       0       0       0       0       0
       0       0       0       0       0       0       0       0       0       0
       0       0       0       0       0       0       0       0       0       0
       0       0       0       0       0       0       0       0       0       0
       0       0       0       0       0       0       0       0       0       0
       0       0       0       0       0       0       0       0       0       0
       0       0       0       0       0       0       0       0       0       0
       0       0       0       0       0       0       0       0       0       0
       0       0       0       0       0       0       0       0       0       0
       0       0       0       0       0       0       0       0       0       0
       0       0       0       0       0       0       0       0       0       0
       0       0       0       0       0       0       0       0       0       0
       0       0       0       0       0       0       0       0       0       0
       0       0       0       0       0       0       0       0       0       0
       0       0       0       0       0       0       0       0       0       0
       0       0       0       0       0       0       0       0       0       0
       0       0       0       0       0       0       0       0       0       0
       0       0       0       0       0       0       0       0       0       0
       0       0       0       0       0       0       0       0       0       0
       0       0       0       0       0       0       0       0       0       0
       0       0       0       0       0       0       0       0       0       0
       0       0       0       0       0       0       0       0       0       0
       0       0       0       0       0       0       0       0       0       0
       0       0       0       0       0       0       0       0       0       0
       0       0       0       0       0       0       0       0       0       0
       0       0       0       0       0       0       0       0       0       0
       0       0       0       0       0       0       0       0       0       0
       0       0       0       0       0       0       0       0       0       0
       0       0       0       0       0       0       0       0       0       0
       0       0       0       0       0       0       0       0       0       0
       0       0       0       0       0       0       0       0       0       0
       0       0       0       0       0       0       0       0       0       0
       0       0       0       0       0       0       0       0       0       0
       0       0       0       0       0       0       0       0       0       0
       0       0       0       0       0       0       0       0       0       0
       0       0       0       0       0       0       0       0       0       0
       0       0       0       0       0       0       0       0       0       0
       0       0       0       0       0       0       0       0       0       0
       0       0       0       0       0       0       0       0       0       0
       0       0       0       0       0       0       0       0       0       0
       0       0       0       0       0       0       0       0       0       0
       0       0       0       0       0       0       0       0       0       0
       0       0       0       0       0       0       0       0       0       0
       0       0       0       0       0       0       0       0       0       0
       0       0       0       0       0       0       0       0       0       0
       0       0       0       0       0       0       0       0       0       0
       0       0       0       0       0       0       0       0       0       0
       0       0       0       0       0       0       0       0       0       0
       0       0       0       0       0       0       0       0       0       0
       0       0       0       0       0       0       0       0       0       0
       0       0       0       0       0       0       0       0       0       0
       0       0       0       0       0       0       0       0       0       0
       0       0       0       0       0       0       0       0       0       0
       0       0       0       0       0       0       0       0       0       0
       0       0       0       0       0       0       0       0       0       0
       0       0       0       0       0       0       0       0       0       0
       0       0       0       0       0       0       0       0       0       0
       0       0       0       0       0       0       0       0       0       0
       0       0       0       0       0       0       0       0       0       0
       0       0       0       0       0       0       0       0       0       0
       0       0       0       0       0       0       0       0       0       0
       0       0       0       0       0       0       0       0       0       0
       0       0       0       0       0       0       0       0       0       0
       0       0       0       0       0       0       0       0       0       0
       0       0       0       0       0       0       0       0       0       0
       0       0       0       0       0       0       0       0       0       0
       0       0       0       0       0       0       0       0       0       0
       0       0       0       0       0       0       0       0       0       0
       0       0       0       0       0       0       0       0       0       0
       0       0       0       0       0       0       0       0       0       0
       0       0       0       0       0       0       0       0       0       0
       0       0       0       0       0       0       0       0       0       0
       0       0       0       0       0       0       0       0       0       0
       0       0       0       0       0       0       0       0       0       0
       0       0       0       0       0       0       0       0       0       0
       0       0       0       0       0       0       0       0       0       0
       0       0       0       0       0       0       0       0       0       0
       0       0       0       0       0       0       0       0       0       0
       0       0       0       0       0       0       0       0       0       0
       0       0       0       0       0       0       0       0       0       0
       0       0       0       0       0       0       0       0       0       0
       0       0       0       0       0       0       0       0       0       0
       0       0       0       0       0       0       0       0       0       0
       0       0       0       0       0       0       0       0       0       0
       0       0       0       0       0       0       0       0       0       0
       0       0       0       0       0       0       0       0       0       0
       0       0       0       0       0       0       0       0       0       0
       0       0       0       0       0       0       0       0       0       0
       0       0       0       0       0       0       0       0       0       0
       0       0       0       0       0       0       0       0       0       0
       0       0       0       0       0       0       0       0       0       0
       0       0       0       0       0       0       0       0       0       0
       0       0       0       0       0       0       0       0       0       0
       0       0       0       0       0       0       0       0       0       0
       0       0       0       0       0       0       0       0       0       0
       0       0       0       0       0       0       0       0       0       0
       0       0       0       0       0       0       0       0       0       0
       0       0       0       0       0       0       0       0       0       0
       0       0       0       0       0       0       0       0       0       0
       0       0       0       0       0       0       0       0       0       0
       0       0       0       0       0       0       0       0       0       0
       0       0       0       0       0       0       0       0       0       0
       0       0       0       0       0       0       0       0       0       0
       0       0       0       0       0       0       0       0       0       0
       0       0       0       0       0       0       0       0       0       0
       0       0       0       0       0       0       0       0       0       0
       0       0       0       0       0       0       0       0       0       0
       0       0       0       0       0       0       0       0       0       0
       0       0       0       0       0       0       0       0       0       0
       0       0       0       0       0       0       0       0       0       0
       0       0       0       0       0       0       0       0       0       0
       0       0       0       0       0       0       0       0       0       0
       0       0       0       0       0       0       0       0       0       0
       0       0       0       0       0       0       0       0       0       0
       0       0       0       0       0       0       0       0       0       0
       0       0       0       0       0       0       0       0       0       0
       0       0       0       0       0       0       0       0       0       0
       0       0       0       0       0       0       0       0       0       0
       0       0       0       0       0       0       0       0       0       0
       0       0       0       0       0       0       0       0       0       0
       0       0       0       0       0       0       0       0       0       0
       0       0       0       0       0       0       0       0       0       0
       0       0       0       0       0       0       0       0       0       0
       0       0       0       0       0       0       0       0       0       0
       0       0       0       0       0       0       0       0       0       0
       0       0       0       0       0       0       0       0       0       0
       0       0       0       0       0       0       0       0       0       0
       0       0       0       0       0       0       0       0       0       0
       0       0       0       0       0       0       0       0       0       0
       0       0       0       0       0       0       0       0       0       0
       0       0       0       0       0       0       0       0       0       0
       0       0       0       0       0       0       0       0       0       0
       0       0       0       0       0       0       0       0       0       0
       0       0       0       0       0       0       0       0       0       0
       0       0       0       0       0       0       0       0       0       0
       0       0       0       0       0       0       0       0       0       0
       0       0       0       0       0       0       0       0       0       0
       0       0       0       0       0       0       0       0       0       0
       0       0       0       0       0       0       0       0       0       0
       0       0       0       0       0       0       0       0       0       0
       0       0       0       0       0       0       0       0       0       0
       0       0       0       0       0       0       0       0       0       0
       0       0       0       0       0       0       0       0       0       0
       0       0       0       0       0       0       0       0       0       0
       0       0       0       0       0       0       0       0       0       0
       0       0       0       0       0       0       0       0       0       0
       0       0       0       0       0       0       0       0       0       0
       0       0       0       0       0       0       0       0       0       0
       0       0       0       0       0       0       0       0       0       0
       0       0       0       0       0       0       0       0       0       0
       0       0       0       0       0       0       0       0       0       0
       0       0       0       0       0       0       0       0       0       0
       0       0       0       0       0       0       0       0       0       0
       0       0       0       0       0       0       0       0       0       0
       0       0       0       0       0       0       0       0       0       0
       0       0       0       0       0       0       0       0       0       0
       0       0       0       0       0       0       0       0       0       0
       0       0       0       0       0       0       0       0       0       0
       0       0       0       0       0       0       0       0       0       0
       0       0       0       0       0       0       0       0       0       0
       0       0       0       0       0       0       0       0       0       0
       0       0       0       0       0       0       0       0       0       0
       0       0       0       0       0       0       0       0       0       0
       0       0       0       0       0       0       0       0       0       0
       0       0       0       0       0       0       0       0       0       0
       0       0       0       0       0       0       0       0       0       0
       0       0       0       0       0       0       0       0       0       0
       0       0       0       0       0       0       0       0       0       0
       0       0       0       0       0       0       0       0       0       0
       0       0       0       0       0       0       0       0       0       0
       0       0       0       0       0       0       0       0       0       0
       0       0       0       0       0       0       0       0       0       0
       0       0       0       0       0       0       0       0       0       0
       0       0       0       0       0       0       0       0       0       0
       0       0       0       0       0       0       0       0       0       0
       0       0       0       0       0       0       0       0       0       0
       0       0       0       0       0       0       0       0       0       0
       0       0       0       0       0       0       0       0       0       0
       0       0       0       0       0       0       0       0       0       0
       0       0       0       0       0       0       0       0       0       0
       0       0       0       0       0       0       0       0       0       0
       0       0       0       0       0       0       0       0       0       0
       0       0       0       0       0       0       0       0       0       0
       0       0       0       0       0       0       0       0       0       0
       0       0       0       0       0       0       0       0       0       0
       0       0       0       0       0       0       0       0       0       0
       0       0       0       0       0       0       0       0       0       0
       0       0       0       0       0       0       0       0       0       0
       0       0       0       0       0       0       0       0       0       0
       0       0       0       0       0       0       0       0       0       0
       0       0       0       0       0       0       0       0       0       0
       0       0       0       0       0       0       0       0       0       0
       0       0       0       0       0       0       0       0       0       0
       0       0       0       0       0       0       0       0       0       0
       0       0       0       0       0       0       0       0       0       0
       0       0       0       0       0       0       0       0       0       0
       0       0       0       0       0       0       0       0       0       0
       0       0       0       0       0       0       0       0       0       0
       0       0       0       0       0       0       0       0       0       0
       0       0       0       0       0       0       0       0       0       0
       0       0       0       0       0       0       0       0       0       0
       0       0       0       0       0       0       0       0       0       0
       0       0       0       0       0       0       0       0       0       0
       0       0       0       0       0       0       0       0       0       0
       0       0       0       0       0       0       0       0       0       0
       0       0       0       0       0       0       0       0       0       0
       0       0       0       0       0       0       0       0       0       0
       0       0       0       0       0       0       0       0       0       0
       0       0       0       0       0       0       0       0       0       0
       0       0       0       0       0       0       0       0       0       0
       0       0       0       0       0       0       0       0       0       0
       0       0       0       0       0       0       0       0       0       0
       0       0       0       0       0       0       0       0       0       0
       0       0       0       0       0       0       0       0       0       0
       0       0       0       0       0       0       0       0       0       0
       0       0       0       0       0       0       0       0       0       0
       0       0       0       0       0       0       0       0       0       0
       0       0       0       0       0       0       0       0       0       0
       0       0       0       0       0       0       0       0       0       0
       0       0       0       0       0       0       0       0       0       0
       0       0       0       0       0       0       0       0       0       0
       0       0       0       0       0       0       0       0       0       0
       0       0       0       0       0       0       0       0       0       0
       0       0       0       0       0       0       0       0       0       0
       0       0       0       0       0       0       0       0       0       0
       0       0       0       0       0       0       0       0       0       0
       0       0       0       0       0       0       0       0       0       0
       0       0       0       0       0       0       0       0       0       0
       0       0       0       0       0       0       0       0       0       0
       0       0       0       0       0       0       0       0       0       0
       0       0       0       0       0       0       0       0       0       0
       0       0       0       0       0       0       0       0       0       0
       0       0       0       0       0       0       0       0       0       0
       0       0       0       0       0       0       0       0       0       0
       0       0       0       0       0       0       0       0       0       0
       0       0       0       0       0       0       0       0       0       0
       0       0       0       0       0       0       0       0       0       0
       0       0       0       0       0       0       0       0       0       0
       0       0       0       0       0       0       0       0       0       0
       0       0       0       0       0       0       0       0       0       0
       0       0       0       0       0       0       0       0       0       0
       0       0       0       0       0       0       0       0       0       0
       0       0       0       0       0       0       0       0       0       0
       0       0       0       0       0       0       0       0       0       0
       0       0       0       0       0       0       0       0       0       0
       0       0       0       0       0       0       0       0       0       0
       0       0       0       0       0       0       0       0       0       0
       0       0       0       0       0       0       0       0       0       0
       0       0       0       0       0       0       0       0       0       0
       0       0       0       0       0       0       0       0       0       0
       0       0       0       0       0       0       0       0       0       0
       0       0       0       0       0       0       0       0       0       0
       0       0       0       0       0       0       0       0       0       0
       0       0       0       0       0       0       0       0       0       0
       0       0       0       0       0       0       0       0       0       0
       0       0       0       0       0       0       0       0       0       0
       0       0       0       0       0       0       0       0       0       0
       0       0       0       0       0       0       0       0       0       0
       0       0       0       0       0       0       0       0       0       0
       0       0       0       0       0       0       0       0       0       0
       0       0       0       0       0       0       0       0       0       0
       0       0       0       0       0       0       0       0       0       0
       0       0       0       0       0       0       0       0       0       0
       0       0       0       0       0       0       0       0       0       0
       0       0       0       0       0       0       0       0       0       0
       0       0       0       0       0       0       0       0       0       0
       0       0       0       0       0       0       0       0       0       0
       0       0       0       0       0       0       0       0       0       0
       0       0       0       0       0       0       0       0       0       0
       0       0       0       0       0       0       0       0       0       0
       0       0       0       0       0       0       0       0       0       0
       0       0       0       0       0       0       0       0       0       0
       0       0       0       0       0       0       0       0       0       0
       0       0       0       0       0       0       0       0       0       0
       0       0       0       0       0       0       0       0       0       0
       0       0       0       0       0       0       0       0       0       0
       0       0       0       0       0       0       0       0       0       0
       0       0       0       0       0       0       0       0       0       0
       0       0       0       0       0       0       0       0       0       0
       0       0       0       0       0       0       0       0       0       0
       0       0       0       0       0       0       0       0       0       0
       0       0       0       0       0       0       0       0       0       0
       0       0       0       0       0       0       0       0       0       0
       0       0       0       0       0       0       0       0       0       0
       0       0       0       0       0       0       0       0       0       0
       0       0       0       0       0       0       0       0       0       0
       0       0       0       0       0       0       0       0       0       0
       0       0       0       0       0       0       0       0       0       0
       0       0       0       0       0       0       0       0       0       0
       0       0       0       0       0       0       0       0       0       0
       0       0       0       0       0       0       0       0       0       0
       0       0       0       0       0       0       0       0       0       0
       0       0       0       0       0       0       0       0       0       0
       0       0       0       0       0       0       0       0       0       0
       0       0       0       0       0       0       0       0       0       0
       0       0       0       0       0       0       0       0       0       0
       0       0       0       0       0       0       0       0       0       0
       0       0       0       0       0       0       0       0       0       0
       0       0       0       0       0       0       0       0       0       0
       0       0       0       0       0       0       0       0       0       0
       0       0       0       0       0       0       0       0       0       0
       0       0       0       0       0       0       0       0       0       0
       0       0       0       0       0       0       0       0       0       0
       0       0       0       0       0       0       0       0       0       0
       0       0       0       0       0       0       0       0       0       0
       0       0       0       0       0       0       0       0       0       0
       0       0       0       0       0       0       0       0       0       0
       0       0       0       0       0       0       0       0       0       0
       0       0       0       0       0       0       0       0       0       0
       0       0       0       0       0       0       0       0       0       0
       0       0       0       0       0       0       0       0       0       0
       0       0       0       0       0       0       0       0       0       0
       0       0       0       0       0       0       0       0       0       0
       0       0       0       0       0       0       0       0       0       0
       0       0       0       0       0       0       0       0       0       0
       0       0       0       0       0       0       0       0       0       0
       0       0       0       0       0       0       0       0       0       0
       0       0       0       0       0       0       0       0       0       0
       0       0       0       0       0       0       0       0       0       0
       0       0       0       0       0       0       0       0       0       0
       0       0       0       0       0       0       0       0       0       0
       0       0       0       0       0       0       0       0       0       0
       0       0       0       0       0       0       0       0       0       0
       0       0       0       0       0       0       0       0       0       0
       0       0       0       0       0       0       0       0       0       0
       0       0       0       0       0       0       0       0       0       0
       0       0       0       0       0       0       0       0       0       0
       0       0       0       0       0       0       0       0       0       0
       0       0       0       0       0       0       0       0       0       0
       0       0       0       0       0       0       0       0       0       0
       0       0       0       0       0       0       0       0       0       0
       0       0       0       0       0       0       0       0       0       0
       0       0       0       0       0       0       0       0       0       0
       0       0       0       0       0       0       0       0       0       0
       0       0       0       0       0       0       0       0       0       0
       0       0       0       0       0       0       0       0       0       0
       0       0       0       0       0       0       0       0       0       0
       0       0       0       0       0       0       0       0       0       0
       0       0       0       0       0       0       0       0       0       0
       0       0       0       0       0       0       0       0       0       0
       0       0       0       0       0       0       0       0       0       0
       0       0       0       0       0       0       0       0       0       0
       0       0       0       0       0       0       0       0       0       0
       0       0       0       0       0       0       0       0       0       0
       0       0       0       0       0       0       0       0       0       0
       0       0       0       0       0       0       0       0       0       0
       0       0       0       0       0       0       0       0       0       0
       0       0       0       0       0       0       0       0       0       0
       0       0       0       0       0       0       0       0       0       0
       0       0       0       0       0       0       0       0       0       0
       0       0       0       0       0       0       0       0       0       0
       0       0       0       0       0       0       0       0       0       0
       0       0       0       0       0       0       0       0       0       0
       0       0       0       0       0       0       0       0       0       0
       0       0       0       0       0       0       0       0       0       0
       0       0       0       0       0       0       0       0       0       0
       0       0       0       0       0       0       0       0       0       0
       0       0       0       0       0       0       0       0       0       0
       0       0       0       0       0       0       0       0       0       0
       0       0       0       0       0       0       0       0       0       0
       0       0       0       0       0       0       0       0       0       0
       0       0       0       0       0       0       0       0       0       0
       0       0       0       0       0       0       0       0       0       0
       0       0       0       0       0       0       0       0       0       0
       0       0       0       0       0       0       0       0       0       0
       0       0       0       0       0       0       0       0       0       0
       0       0       0       0       0       0       0       0       0       0
       0       0       0       0       0       0       0       0       0       0
       0       0       0       0       0       0       0       0       0       0
       0       0       0       0       0       0       0       0       0       0
       0       0       0       0       0       0       0       0       0       0
       0       0       0       0       0       0       0       0       0       0
       0       0       0       0       0       0       0       0       0       0
       0       0       0       0       0       0       0       0       0       0
       0       0       0       0       0       0       0       0       0       0
       0       0       0       0       0       0       0       0       0       0
       0       0       0       0       0       0       0       0       0       0
       0       0       0       0       0       0       0       0       0       0
       0       0       0       0       0       0       0       0       0       0
       0       0       0       0       0       0       0       0       0       0
       0       0       0       0       0       0       0       0       0       0
       0       0       0       0       0       0       0       0       0       0
       0       0       0       0       0       0       0       0       0       0
       0       0       0       0       0       0       0       0       0       0
       0       0       0       0       0       0       0       0       0       0
       0       0       0       0       0       0       0       0       0       0
       0       0       0       0       0       0       0       0       0       0
       0       0       0       0       0       0       0       0       0       0
       0       0       0       0       0       0       0       0       0       0
       0       0       0       0       0       0       0       0       0       0
       0       0       0       0       0       0       0       0       0       0
       0       0       0       0       0       0       0       0       0       0
       0       0       0       0       0       0       0       0       0       0
       0       0       0       0       0       0       0       0       0       0
       0       0       0       0       0       0       0       0       0       0
       0       0       0       0       0       0       0       0       0       0
       0       0       0       0       0       0       0       0       0       0
       0       0       0       0       0       0       0       0       0       0
       0       0       0       0       0       0       0       0       0       0
       0       0       0       0       0       0       0       0       0       0
       0       0       0       0       0       0       0       0       0       0
       0       0       0       0       0       0       0       0       0       0
       0       0       0       0       0       0       0       0       0       0
       0       0       0       0       0       0       0       0       0       0
       0       0       0       0       0       0       0       0       0       0
       0       0       0       0       0       0       0       0       0       0
       0       0       0       0       0       0       0       0       0       0
       0       0       0       0       0       0       0       0       0       0
       0       0       0       0       0       0       0       0       0       0
       0       0       0       0       0       0       0       0       0       0
       0       0       0       0       0       0       0       0       0       0
       0       0       0       0       0       0       0       0       0       0
       0       0       0       0       0       0       0       0       0       0
       0       0       0       0       0       0       0       0       0       0
       0       0       0       0       0       0       0       0       0       0
       0       0       0       0       0       0       0       0       0       0
       0       0       0       0       0       0       0       0       0       0
       0       0       0       0       0       0       0       0       0       0
       0       0       0       0       0       0       0       0       0       0
       0       0       0       0       0       0       0       0       0       0
       0       0       0       0       0       0       0       0       0       0
       0       0       0       0       0       0       0       0       0       0
       0       0       0       0       0       0       0       0       0       0
       0       0       0       0       0       0       0       0       0       0
       0       0       0       0       0       0       0       0       0       0
       0       0       0       0       0       0       0       0       0       0
       0       0       0       0       0       0       0       0       0       0
       0       0       0       0       0       0       0       0       0       0
       0       0       0       0       0       0       0       0       0       0
       0       0       0       0       0       0       0       0       0       0
       0       0       0       0       0       0       0       0       0       0
       0       0       0       0       0       0       0       0       0       0
       0       0       0       0       0       0       0       0       0       0
       0       0       0       0       0       0       0       0       0       0
       0       0       0       0       0       0       0       0       0       0
       0       0       0       0       0       0       0       0       0       0
       0       0       0       0       0       0       0       0       0       0
       0       0       0       0       0       0       0       0       0       0
       0       0       0       0       0       0       0       0       0       0
       0       0       0       0       0       0       0       0       0       0
       0       0       0       0       0       0       0       0       0       0
       0       0       0       0       0       0       0       0       0       0
       0       0       0       0       0       0       0       0       0       0
       0       0       0       0       0       0       0       0       0       0
       0       0       0       0       0       0       0       0       0       0
       0       0       0       0       0       0       0       0       0       0
       0       0       0       0       0       0       0       0       0       0
       0       0       0       0       0       0       0       0       0       0
       0       0       0       0       0       0       0       0       0       0
       0       0       0       0       0       0       0       0       0       0
       0       0       0       0       0       0       0       0       0       0
       0       0       0       0       0       0       0       0       0       0
       0       0       0       0       0       0       0       0       0       0
       0       0       0       0       0       0       0       0       0       0
       0       0       0       0       0       0       0       0       0       0
       0       0       0       0       0       0       0       0       0       0
       0       0       0       0       0       0       0       0       0       0
       0       0       0       0       0       0       0       0       0       0
       0       0       0       0       0       0       0       0       0       0
       0       0       0       0       0       0       0       0       0       0
       0       0       0       0       0       0       0       0       0       0
       0       0       0       0       0       0       0       0       0       0
       0       0       0       0       0       0       0       0       0       0
       0       0       0       0       0       0       0       0       0       0
       0       0       0       0       0       0       0       0       0       0
       0       0       0       0       0       0       0       0       0       0
       0       0       0       0       0       0       0       0       0       0
       0       0       0       0       0       0       0       0       0       0
       0       0       0       0       0       0       0       0       0       0
       0       0       0       0       0       0       0       0       0       0
       0       0       0       0       0       0       0       0       0       0
       0       0       0       0       0       0       0       0       0       0
       0       0       0       0       0       0       0       0       0       0
       0       0       0       0       0       0       0       0       0       0
       0       0       0       0       0       0       0       0       0       0
       0       0       0       0       0       0       0       0       0       0
       0       0       0       0       0       0       0       0       0       0
       0       0       0       0       0       0       0       0       0       0
       0       0       0       0       0       0       0       0       0       0
       0       0       0       0       0       0       0       0       0       0
       0       0       0       0       0       0       0       0       0       0
       0       0       0       0       0       0       0       0       0       0
       0       0       0       0       0       0       0       0       0       0
       0       0       0       0       0       0       0       0       0       0
       0       0       0       0       0       0       0       0       0       0
       0       0       0       0       0       0       0       0       0       0
       0       0       0       0       0       0       0       0       0       0
       0       0       0       0       0       0       0       0       0       0
       0       0       0       0       0       0       0       0       0       0
       0       0       0       0       0       0       0       0       0       0
       0       0       0       0       0       0       0       0       0       0
       0       0       0       0       0       0       0       0       0       0
       0       0       0       0       0       0       0       0       0       0
       0       0       0       0       0       0       0       0       0       0
       0       0       0       0       0       0       0       0       0       0
       0       0       0       0       0       0       0       0       0       0
       0       0       0       0       0       0       0       0       0       0
       0       0       0       0       0       0       0       0       0       0
       0       0       0       0       0       0       0       0       0       0
       0       0       0       0       0       0       0       0       0       0
       0       0       0       0       0       0       0       0       0       0
       0       0       0       0       0       0       0       0       0       0
       0       0       0       0       0       0       0       0       0       0
       0       0       0       0       0       0       0       0       0       0
       0       0       0       0       0       0       0       0       0       0
       0       0       0       0       0       0       0       0       0       0
       0       0       0       0       0       0       0       0       0       0
       0       0       0       0       0       0       0       0       0       0
       0       0       0       0       0       0       0       0       0       0
       0       0       0       0       0       0       0       0       0       0
       0       0       0       0       0       0       0       0       0       0
       0       0       0       0       0       0       0       0       0       0
       0       0       0       0       0       0       0       0       0       0
       0       0       0       0       0       0       0       0       0       0
       0       0       0       0       0       0       0       0       0       0
       0       0       0       0       0       0       0       0       0       0
       0       0       0       0       0       0       0       0       0       0
       0       0       0       0       0       0       0       0       0       0
       0       0       0       0       0       0       0       0       0       0
       0       0       0       0       0       0       0       0       0       0
       0       0       0       0       0       0       0       0       0       0
       0       0       0       0       0       0       0       0       0       0
       0       0       0       0       0       0       0       0       0       0
       0       0       0       0       0       0       0       0       0       0
       0       0       0       0       0       0       0       0       0       0
       0       0       0       0       0       0       0       0       0       0
       0       0       0       0       0       0       0       0       0       0
       0       0       0       0       0       0       0       0       0       0
       0       0       0       0       0       0       0       0       0       0
       0       0       0       0       0       0       0       0       0       0
       0       0       0       0       0       0       0       0       0       0
       0       0       0       0       0       0       0       0       0       0
       0       0       0       0       0       0       0       0       0       0
       0       0       0       0       0       0       0       0       0       0
       0       0       0       0       0       0       0       0       0       0
       0       0       0       0       0       0       0       0       0       0
       0       0       0       0       0       0       0       0       0       0
       0       0       0       0       0       0       0       0       0       0
       0       0       0       0       0       0       0       0       0       0
       0       0       0       0       0       0       0       0       0       0
       0       0       0       0       0       0       0       0       0       0
       0       0       0       0       0       0       0       0       0       0
       0       0       0       0       0       0       0       0       0       0
       0       0       0       0       0       0       0       0       0       0
       0       0       0       0       0       0       0       0       0       0
       0       0       0       0       0       0       0       0       0       0
       0       0       0       0       0       0       0       0       0       0
       0       0       0       0       0       0       0       0       0       0
       0       0       0       0       0       0       0       0       0       0
       0       0       0       0       0       0       0       0       0       0
       0       0       0       0       0       0       0       0       0       0
       0       0       0       0       0       0       0       0       0       0
       0       0       0       0       0       0       0       0       0       0
       0       0       0       0       0       0       0       0       0       0
       0       0       0       0       0       0       0       0       0       0
       0       0       0       0       0       0       0       0       0       0
       0       0       0       0       0       0       0       0       0       0
       0       0       0       0       0       0       0       0       0       0
       0       0       0       0       0       0       0       0       0       0
       0       0       0       0       0       0       0       0       0       0
       0       0       0       0       0       0       0       0       0       0
       0       0       0       0       0       0       0       0       0       0
       0       0       0       0       0       0       0       0       0       0
       0       0       0       0       0       0       0       0       0       0
       0       0       0       0       0       0       0       0       0       0
       0       0       0       0       0       0       0       0       0       0
       0       0       0       0       0       0       0       0       0       0
       0       0       0       0       0       0       0       0       0       0
       0       0       0       0       0       0       0       0       0       0
       0       0       0       0       0       0       0       0       0       0
       0       0       0       0       0       0       0       0       0       0
       0       0       0       0       0       0       0       0       0       0
       0       0       0       0       0       0       0       0       0       0
       0       0       0       0       0       0       0       0       0       0
       0       0       0       0       0       0       0       0       0       0
       0       0       0       0       0       0       0       0       0       0
       0       0       0       0       0       0       0       0       0       0
       0       0       0       0       0       0       0       0       0       0
       0       0       0       0       0       0       0       0       0       0
       0       0       0       0       0       0       0       0       0       0
       0       0       0       0       0       0       0       0       0       0
       0       0       0       0       0       0       0       0       0       0
       0       0       0       0       0       0       0       0       0       0
       0       0       0       0       0       0       0       0       0       0
       0       0       0       0       0       0       0       0       0       0
       0       0       0       0       0       0       0       0       0       0
       0       0       0       0       0       0       0       0       0       0
       0       0       0       0       0       0       0       0       0       0
       0       0       0       0       0       0       0       0       0       0
       0       0       0       0       0       0       0       0       0       0
       0       0       0       0       0       0       0       0       0       0
       0       0       0       0       0       0       0       0       0       0
       0       0       0       0       0       0       0       0       0       0
       0       0       0       0       0       0       0       0       0       0
       0       0       0       0       0       0       0       0       0       0
       0       0       0       0       0       0       0       0       0       0
       0       0       0       0       0       0       0       0       0       0
       0       0       0       0       0       0       0       0       0       0
       0       0       0       0       0       0       0       0       0       0
       0       0       0       0       0       0       0       0       0       0
       0       0       0       0       0       0       0       0       0       0
       0       0       0       0       0       0       0       0       0       0
       0       0       0       0       0       0       0       0       0       0
       0       0       0       0       0       0       0       0       0       0
       0       0       0       0       0       0       0       0       0       0
       0       0       0       0       0       0       0       0       0       0
       0       0       0       0       0       0       0       0       0       0
       0       0       0       0       0       0       0       0       0       0
       0       0       0       0       0       0       0       0       0       0
       0       0       0       0       0       0       0       0       0       0
       0       0       0       0       0       0       0       0       0       0
       0       0       0       0       0       0       0       0       0       0
       0       0       0       0       0       0       0       0       0       0
       0       0       0       0       0       0       0       0       0       0
       0       0       0       0       0       0       0       0       0       0
       0       0       0       0       0       0       0       0       0       0
       0       0       0       0       0       0       0       0       0       0
       0       0       0       0       0       0       0       0       0       0
       0       0       0       0       0       0       0       0       0       0
       0       0       0       0       0       0       0       0       0       0
       0       0       0       0       0       0       0       0       0       0
       0       0       0       0       0       0       0       0       0       0
       0       0       0       0       0       0       0       0       0       0
       0       0       0       0       0       0       0       0       0       0
       0       0       0       0       0       0       0       0       0       0
       0       0       0       0       0       0       0       0       0       0
       0       0       0       0       0       0       0       0       0       0
       0       0       0       0       0       0       0       0       0       0
       0       0       0       0       0       0       0       0       0       0
       0       0       0       0       0       0       0       0       0       0
       0       0       0       0       0       0       0       0       0       0
       0       0       0       0       0       0       0       0       0       0
       0       0       0       0       0       0       0       0       0       0
       0       0       0       0       0       0       0       0       0       0
       0       0       0       0       0       0       0       0       0       0
       0       0       0       0       0       0       0       0       0       0
       0       0       0       0       0       0       0       0       0       0
       0       0       0       0       0       0       0       0       0       0
       0       0       0       0       0       0       0       0       0       0
       0       0       0       0       0       0       0       0       0       0
       0       0       0       0       0       0       0       0       0       0
       0       0       0       0       0       0       0       0       0       0
       0       0       0       0       0       0       0       0       0       0
       0       0       0       0       0       0       0       0       0       0
       0       0       0       0       0       0       0       0       0       0
       0       0       0       0       0       0       0       0       0       0
       0       0       0       0       0       0       0       0       0       0
       0       0       0       0       0       0       0       0       0       0
       0       0       0       0       0       0       0       0       0       0
       0       0       0       0       0       0       0       0       0       0
       0       0       0       0       0       0       0       0       0       0
       0       0       0       0       0       0       0       0       0       0
       0       0       0       0       0       0       0       0       0       0
       0       0       0       0       0       0       0       0       0       0
       0       0       0       0       0       0       0       0       0       0
       0       0       0       0       0       0       0       0       0       0
       0       0       0       0       0       0       0       0       0       0
       0       0       0       0       0       0       0       0       0       0
       0       0       0       0       0       0       0       0       0       0
       0       0       0       0       0       0       0       0       0       0
       0       0       0       0       0       0       0       0       0       0
       0       0       0       0       0       0       0       0       0       0
       0       0       0       0       0       0       0       0       0       0
       0       0       0       0       0       0       0       0       0       0
       0       0       0       0       0       0       0       0       0       0
       0       0       0       0       0       0       0       0       0       0
       0       0       0       0       0       0       0       0       0       0
       0       0       0       0       0       0       0       0       0       0
       0       0       0       0       0       0       0       0       0       0
       0       0       0       0       0       0       0       0       0       0
       0       0       0       0       0       0       0       0       0       0
       0       0       0       0       0       0       0       0       0       0
       0       0       0       0       0       0       0       0       0       0
       0       0       0       0       0       0       0       0       0       0
       0       0       0       0       0       0       0       0       0       0
       0       0       0       0       0       0       0       0       0       0
       0       0       0       0       0       0       0       0       0       0
       0       0       0       0       0       0       0       0       0       0
       0       0       0       0       0       0       0       0       0       0
       0       0       0       0       0       0       0       0       0       0
       0       0       0       0       0       0       0       0       0       0
       0       0       0       0       0       0       0       0       0       0
       0       0       0       0       0       0       0       0       0       0
       0       0       0       0       0       0       0       0       0       0
       0       0       0       0       0       0       0       0       0       0
       0       0       0       0       0       0       0       0       0       0
       0       0       0       0       0       0       0       0       0       0
       0       0       0       0       0       0       0       0       0       0
       0       0       0       0       0       0       0       0       0       0
       0       0       0       0       0       0       0       0       0       0
       0       0       0       0       0       0       0       0       0       0
       0       0       0       0       0       0       0       0       0       0
       0       0       0       0       0       0       0       0       0       0
       0       0       0       0       0       0       0       0       0       0
       0       0       0       0       0       0       0       0       0       0
       0       0       0       0       0       0       0       0       0       0
       0       0       0       0       0       0       0       0       0       0
       0       0       0       0       0       0       0       0       0       0
       0       0       0       0       0       0       0       0       0       0
       0       0       0       0       0       0       0       0       0       0
       0       0       0       0       0       0       0       0       0       0
       0       0       0       0       0       0       0       0       0       0
       0       0       0       0       0       0       0       0       0       0
       0       0       0       0       0       0       0       0       0       0
       0       0       0       0       0       0       0       0       0       0
       0       0       0       0       0       0       0       0       0       0
       0       0       0       0       0       0       0       0       0       0
       0       0       0       0       0       0       0       0       0       0
       0       0       0       0       0       0       0       0       0       0
       0       0       0       0       0       0       0       0       0       0
       0       0       0       0       0       0       0       0       0       0
       0       0       0       0       0       0       0       0       0       0
       0       0       0       0       0       0       0       0       0       0
       0       0       0       0       0       0       0       0       0       0
       0       0       0       0       0       0       0       0       0       0
       0       0       0       0       0       0       0       0       0       0
       0       0       0       0       0       0       0       0       0       0
       0       0       0       0       0       0       0       0       0       0
       0       0       0       0       0       0       0       0       0       0
       0       0       0       0       0       0       0       0       0       0
       0       0       0       0       0       0       0       0       0       0
       0       0       0       0       0       0       0       0       0       0
       0       0       0       0       0       0       0       0       0       0
       0       0       0       0       0       0       0       0       0       0
       0       0       0       0       0       0       0       0       0       0
       0       0       0       0       0       0       0       0       0       0
       0       0       0       0       0       0       0       0       0       0
       0       0       0       0       0       0       0       0       0       0
       0       0       0       0       0       0       0       0       0       0
       0       0       0       0       0       0       0       0       0       0
       0       0       0       0       0       0       0       0       0       0
       0       0       0       0       0       0       0       0       0       0
       0       0       0       0       0       0       0       0       0       0
       0       0       0       0       0       0       0       0       0       0
       0       0       0       0       0       0       0       0       0       0
       0       0       0       0       0       0       0       0       0       0
       0       0       0       0       0       0       0       0       0       0
       0       0       0       0       0       0       0       0       0       0
       0       0       0       0       0       0       0       0       0       0
       0       0       0       0       0       0       0       0       0       0
       0       0       0       0       0       0       0       0       0       0
       0       0       0       0       0       0       0       0       0       0
       0       0       0       0       0       0       0       0       0       0
       0       0       0       0       0       0       0       0       0       0
       0       0       0       0       0       0       0       0       0       0
       0       0       0       0       0       0       0       0       0       0
       0       0       0       0       0       0       0       0       0       0
       0       0       0       0       0       0       0       0       0       0
       0       0       0       0       0       0       0       0       0       0
       0       0       0       0       0       0       0       0       0       0
       0       0       0       0       0       0       0       0       0       0
       0       0       0       0       0       0       0       0       0       0
       0       0       0       0       0       0       0       0       0       0
       0       0       0       0       0       0       0       0       0       0
       0       0       0       0       0       0       0       0       0       0
       0       0       0       0       0       0       0       0       0       0
       0       0       0       0       0       0       0       0       0       0
       0       0       0       0       0       0       0       0       0       0
       0       0       0       0       0       0       0       0       0       0
       0       0       0       0       0       0       0       0       0       0
       0       0       0       0       0       0       0       0       0       0
       0       0       0       0       0       0       0       0       0       0
       0       0       0       0       0       0       0       0       0       0
       0       0       0       0       0       0       0       0       0       0
       0       0       0       0       0       0       0       0       0       0
       0       0       0       0       0       0       0       0       0       0
       0       0       0       0       0       0       0       0       0       0
       0       0       0       0       0       0       0       0       0       0
       0       0       0       0       0       0       0       0       0       0
       0       0       0       0       0       0       0       0       0       0
       0       0       0       0       0       0       0       0       0       0
       0       0       0       0       0       0       0       0       0       0
       0       0       0       0       0       0       0       0       0       0
       0       0       0       0       0       0       0       0       0       0
       0       0       0       0       0       0       0       0       0       0
       0       0       0       0       0       0       0       0       0       0
       0       0       0       0       0       0       0       0       0       0
       0       0       0       0       0       0       0       0       0       0
       0       0       0       0       0       0       0       0       0       0
       0       0       0       0       0       0       0       0       0       0
       0       0       0       0       0       0       0       0       0       0
       0       0       0       0       0       0       0       0       0       0
       0       0       0       0       0       0       0       0       0       0
       0       0       0       0       0       0       0       0       0       0
       0       0       0       0       0       0       0       0       0       0
       0       0       0       0       0       0       0       0       0       0
       0       0       0       0       0       0       0       0       0       0
       0       0       0       0       0       0       0       0       0       0
       0       0       0       0       0       0       0       0       0       0
       0       0       0       0       0       0       0       0       0       0
       0       0       0       0       0       0       0       0       0       0
       0       0       0       0       0       0       0       0       0       0
       0       0       0       0       0       0       0       0       0       0
       0       0       0       0       0       0       0       0       0       0
       0       0       0       0       0       0       0       0       0       0
       0       0       0       0       0       0       0       0       0       0
       0       0       0       0       0       0       0       0       0       0
       0       0       0       0       0       0       0       0       0       0
       0       0       0       0       0       0       0       0       0       0
       0       0       0       0       0       0       0       0       0       0
       0       0       0       0       0       0       0       0       0       0
       0       0       0       0       0       0       0       0       0       0
       0       0       0       0       0       0       0       0       0       0
       0       0       0       0       0       0       0       0       0       0
       0       0       0       0       0       0       0       0       0       0
       0       0       0       0       0       0       0       0       0       0
       0       0       0       0       0       0       0       0       0       0
       0       0       0       0       0       0       0       0       0       0
       0       0       0       0       0       0       0       0       0       0
       0       0       0       0       0       0       0       0       0       0
       0       0       0       0       0       0       0       0       0       0
       0       0       0       0       0       0       0       0       0       0
       0       0       0       0       0       0       0       0       0       0
       0       0       0       0       0       0       0       0       0       0
       0       0       0       0       0       0       0       0       0       0
       0       0       0       0       0       0       0       0       0       0
       0       0       0       0       0       0       0       0       0       0
       0       0       0       0       0       0       0       0       0       0
       0       0       0       0       0       0       0       0       0       0
       0       0       0       0       0       0       0       0       0       0
       0       0       0       0       0       0       0       0       0       0
       0       0       0       0       0       0       0       0       0       0
       0       0       0       0       0       0       0       0       0       0
       0       0       0       0       0       0       0       0       0       0
       0       0       0       0       0       0       0       0       0       0
       0       0       0       0       0       0       0       0       0       0
       0       0       0       0       0       0       0       0       0       0
       0       0       0       0       0       0       0       0       0       0
       0       0       0       0       0       0       0       0       0       0
       0       0       0       0       0       0       0       0       0       0
       0       0       0       0       0       0       0       0       0       0
       0       0       0       0       0       0       0       0       0       0
       0       0       0       0       0       0       0       0       0       0
       0       0       0       0       0       0       0       0       0       0
       0       0       0       0       0       0       0       0       0       0
       0       0       0       0       0       0       0       0       0       0
       0       0       0       0       0       0       0       0       0       0
       0       0       0       0       0       0       0       0       0       0
       0       0       0       0       0       0       0       0       0       0
       0       0       0       0       0       0       0       0       0       0
       0       0       0       0       0       0       0       0       0       0
       0       0       0       0       0       0       0       0       0       0
       0       0       0       0       0       0       0       0       0       0
       0       0       0       0       0       0       0       0       0       0
       0       0       0       0       0       0       0       0       0       0
       0       0       0       0       0       0       0       0       0       0
       0       0       0       0       0       0       0       0       0       0
       0       0       0       0       0       0       0       0       0       0
       0       0       0       0       0       0       0       0       0       0
       0       0       0       0       0       0       0       0       0       0
       0       0       0       0       0       0       0       0       0       0
       0       0       0       0       0       0       0       0       0       0
       0       0       0       0       0       0       0       0       0       0
       0       0       0       0       0       0       0       0       0       0
       0       0       0       0       0       0       0       0       0       0
       0       0       0       0       0       0       0       0       0       0
       0       0       0       0       0       0       0       0       0       0
       0       0       0       0       0       0       0       0       0       0
       0       0       0       0       0       0       0       0       0       0
       0       0       0       0       0       0       0       0       0       0
       0       0       0       0       0       0       0       0       0       0
       0       0       0       0       0       0       0       0       0       0
       0       0       0       0       0       0       0       0       0       0
       0       0       0       0       0       0       0       0       0       0
       0       0       0       0       0       0       0       0       0       0
       0       0       0       0       0       0       0       0       0       0
       0       0       0       0       0       0       0       0       0       0
       0       0       0       0       0       0       0       0       0       0
       0       0       0       0       0       0       0       0       0       0
       0       0       0       0       0       0       0       0       0       0
       0       0       0       0       0       0       0       0       0       0
       0       0       0       0       0       0       0       0       0       0
       0       0       0       0       0       0       0       0       0       0
       0       0       0       0       0       0       0       0       0       0
       0       0       0       0       0       0       0       0       0       0
       0       0       0       0       0       0       0       0       0       0
       0       0       0       0       0       0       0       0       0       0
       0       0       0       0       0       0       0       0       0       0
       0       0       0       0       0       0       0       0       0       0
       0       0       0       0       0       0       0       0       0       0
       0       0       0       0       0       0       0       0       0       0
       0       0       0       0       0       0       0       0       0       0
       0       0       0       0       0       0       0       0       0       0
       0       0       0       0       0       0       0       0       0       0
       0       0       0       0       0       0       0       0       0       0
       0       0       0       0       0       0       0       0       0       0
       0       0       0       0       0       0       0       0       0       0
       0       0       0       0       0       0       0       0       0       0
       0       0       0       0       0       0       0       0       0       0
       0       0       0       0       0       0       0       0       0       0
       0       0       0       0       0       0       0       0       0       0
       0       0       0       0       0       0       0       0       0       0
       0       0       0       0       0       0       0       0       0       0
       0       0       0       0       0       0       0       0       0       0
       0       0       0       0       0       0       0       0       0       0
       0       0       0       0       0       0       0       0       0       0
       0       0       0       0       0       0       0       0       0       0
       0       0       0       0       0       0       0       0       0       0
       0       0       0       0       0       0       0       0       0       0
       0       0       0       0       0       0       0       0       0       0
       0       0       0       0       0       0       0       0       0       0
       0       0       0       0       0       0       0       0       0       0
       0       0       0       0       0       0       0       0       0       0
       0       0       0       0       0       0       0       0       0       0
       0       0       0       0       0       0       0       0       0       0
       0       0       0       0       0       0       0       0       0       0
       0       0       0       0       0       0       0       0       0       0
       0       0       0       0       0       0       0       0       0       0
       0       0       0       0       0       0       0       0       0       0
       0       0       0       0       0       0       0       0       0       0
       0       0       0       0       0       0       0       0       0       0
       0       0       0       0       0       0       0       0       0       0
       0       0       0       0       0       0       0       0       0       0
       0       0       0       0       0       0       0       0       0       0
       0       0       0       0       0       0       0       0       0       0
       0       0       0       0       0       0       0       0       0       0
       0       0       0       0       0       0       0       0       0       0
       0       0       0       0       0       0       0       0       0       0
       0       0       0       0       0       0       0       0       0       0
       0       0       0       0       0       0       0       0       0       0
       0       0       0       0       0       0       0       0       0       0
       0       0       0       0       0       0       0       0       0       0
       0       0       0       0       0       0       0       0       0       0
       0       0       0       0       0       0       0       0       0       0
       0       0       0       0       0       0       0       0       0       0
       0       0       0       0       0       0       0       0       0       0
       0       0       0       0       0       0       0       0       0       0
       0       0       0       0       0       0       0       0       0       0
       0       0       0       0       0       0       0       0       0       0
       0       0       0       0       0       0       0       0       0       0
       0       0       0       0       0       0       0       0       0       0
       0       0       0       0       0       0       0       0       0       0
       0       0       0       0       0       0       0       0       0       0
       0       0       0       0       0       0       0       0       0       0
       0       0       0       0       0       0       0       0       0       0
       0       0       0       0       0       0       0       0       0       0
       0       0       0       0       0       0       0       0       0       0
       0       0       0       0       0       0       0       0       0       0
       0       0       0       0       0       0       0       0       0       0
       0       0       0       0       0       0       0       0       0       0
       0       0       0       0       0       0       0       0       0       0
       0       0       0       0       0       0       0       0       0       0
       0       0       0       0       0       0       0       0       0       0
       0       0       0       0       0       0       0       0       0       0
       0       0       0       0       0       0       0       0       0       0
       0       0       0       0       0       0       0       0       0       0
       0       0       0       0       0       0       0       0       0       0
       0       0       0       0       0       0       0       0       0       0
       0       0       0       0       0       0       0       0       0       0
       0       0       0       0       0       0       0       0       0       0
       0       0       0       0       0       0       0       0       0       0
       0       0       0       0       0       0       0       0       0       0
       0       0       0       0       0       0       0       0       0       0
       0       0       0       0       0       0       0       0       0       0
       0       0       0       0       0       0       0       0       0       0
       0       0       0       0       0       0       0       0       0       0
       0       0       0       0       0       0       0       0       0       0
       0       0       0       0       0       0       0       0       0       0
       0       0       0       0       0       0       0       0       0       0
       0       0       0       0       0       0       0       0       0       0
       0       0       0       0       0       0       0       0       0       0
       0       0       0       0       0       0       0       0       0       0
       0       0       0       0       0       0       0       0       0       0
       0       0       0       0       0       0       0       0       0       0
       0       0       0       0       0       0       0       0       0       0
       0       0       0       0       0       0       0       0       0       0
       0       0       0       0       0       0       0       0       0       0
       0       0       0       0       0       0       0       0       0       0
       0       0       0       0       0       0       0       0       0       0
       0       0       0       0       0       0       0       0       0       0
       0       0       0       0       0       0       0       0       0       0
       0       0       0       0       0       0       0       0       0       0
       0       0       0       0       0       0       0       0       0       0
       0       0       0       0       0       0       0       0       0       0
       0       0       0       0       0       0       0       0       0       0
       0       0       0       0       0       0       0       0       0       0
       0       0       0       0       0       0       0       0       0       0
       0       0       0       0       0       0       0       0       0       0
       0       0       0       0       0       0       0       0       0       0
       0       0       0       0       0       0       0       0       0       0
       0       0       0       0       0       0       0       0       0       0
       0       0       0       0       0       0       0       0       0       0
       0       0       0       0       0       0       0       0       0       0
       0       0       0       0       0       0       0       0       0       0
       0       0       0       0       0       0       0       0       0       0
       0       0       0       0       0       0       0       0       0       0
       0       0       0       0       0       0       0       0       0       0
       0       0       0       0       0       0       0       0       0       0
       0       0       0       0       0       0       0       0       0       0
       0       0       0       0       0       0       0       0       0       0
       0       0       0       0       0       0       0       0       0       0
       0       0       0       0       0       0       0       0       0       0
       0       0       0       0       0       0       0       0       0       0
       0       0       0       0       0       0       0       0       0       0
       0       0       0       0       0       0       0       0       0       0
       0       0       0       0       0       0       0       0       0       0
       0       0       0       0       0       0       0       0       0       0
       0       0       0       0       0       0       0       0       0       0
       0       0       0       0       0       0       0       0       0       0
       0       0       0       0       0       0       0       0       0       0
       0       0       0       0       0       0       0       0       0       0
       0       0       0       0       0       0       0       0       0       0
       0       0       0       0       0       0       0       0       0       0
       0       0       0       0       0       0       0       0       0       0
       0       0       0       0       0       0       0       0       0       0
       0       0       0       0       0       0       0       0       0       0
       0       0       0       0       0       0       0       0       0       0
       0       0       0       0       0       0       0       0       0       0
       0       0       0       0       0       0       0       0       0       0
       0       0       0       0       0       0       0       0       0       0
       0       0       0       0       0       0       0       0       0       0
       0       0       0       0       0       0       0       0       0       0
       0       0       0       0       0       0       0       0       0       0
       0       0       0       0       0       0       0       0       0       0
       0       0       0       0       0       0       0       0       0       0
       0       0       0       0       0       0       0       0       0       0
       0       0       0       0       0       0       0       0       0       0
       0       0       0       0       0       0       0       0       0       0
       0       0       0       0       0       0       0       0       0       0
       0       0       0       0       0       0       0       0       0       0
       0       0       0       0       0       0       0       0       0       0
       0       0       0       0       0       0       0       0       0       0
       0       0       0       0       0       0       0       0       0       0
       0       0       0       0       0       0       0       0       0       0
       0       0       0       0       0       0       0       0       0       0
       0       0       0       0       0       0       0       0       0       0
       0       0       0       0       0       0       0       0       0       0
       0       0       0       0       0       0       0       0       0       0
       0       0       0       0       0       0       0       0       0       0
       0       0       0       0       0       0       0       0       0       0
       0       0       0       0       0       0       0       0       0       0
       0       0       0       0       0       0       0       0       0       0
       0       0       0       0       0       0       0       0       0       0
       0       0       0       0       0       0       0       0       0       0
       0       0       0       0       0       0       0       0       0       0
       0       0       0       0       0       0       0       0       0       0
       0       0       0       0       0       0       0       0       0       0
       0       0       0       0       0       0       0       0       0       0
       0       0       0       0       0       0       0       0       0       0
       0       0       0       0       0       0       0       0       0       0
       0       0       0       0       0       0       0       0       0       0
       0       0       0       0       0       0       0       0       0       0
       0       0       0       0       0       0       0       0       0       0
       0       0       0       0       0       0       0       0       0       0
       0       0       0       0       0       0       0       0       0       0
       0       0       0       0       0       0       0       0       0       0
       0       0       0       0       0       0       0       0       0       0
       0       0       0       0       0       0       0       0       0       0
       0       0       0       0       0       0       0       0       0       0
       0       0       0       0       0       0       0       0       0       0
       0       0       0       0       0       0       0       0       0       0
       0       0       0       0       0       0       0       0       0       0
       0       0       0       0       0       0       0       0       0       0
       0       0       0       0       0       0       0       0       0       0
       0       0       0       0       0       0       0       0       0       0
       0       0       0       0       0       0       0       0       0       0
       0       0       0       0       0       0       0       0       0       0
       0       0       0       0       0       0       0       0       0       0
       0       0       0       0       0       0       0       0       0       0
       0       0       0       0       0       0       0       0       0       0
       0       0       0       0       0       0       0       0       0       0
       0       0       0       0       0       0       0       0       0       0
       0       0       0       0       0       0       0       0       0       0
       0       0       0       0       0       0       0       0       0       0
       0       0       0       0       0       0       0       0       0       0
       0       0       0       0       0       0       0       0       0       0
       0       0       0       0       0       0       0       0       0       0
       0       0       0       0       0       0       0       0       0       0
       0       0       0       0       0       0       0       0       0       0
       0       0       0       0       0       0       0       0       0       0
       0       0       0       0       0       0       0       0       0       0
       0       0       0       0       0       0       0       0       0       0
       0       0       0       0       0       0       0       0       0       0
       0       0       0       0       0       0       0       0       0       0
       0       0       0       0       0       0       0       0       0       0
       0       0       0       0       0       0       0       0       0       0
       0       0       0       0       0       0       0       0       0       0
       0       0       0       0       0       0       0       0       0       0
       0       0       0       0       0       0       0       0       0       0
       0       0       0       0       0       0       0       0       0       0
       0       0       0       0       0       0       0       0       0       0
       0       0       0       0       0       0       0       0       0       0
       0       0       0       0       0       0       0       0       0       0
       0       0       0       0       0       0       0       0       0       0
       0       0       0       0       0       0       0       0       0       0
       0       0       0       0       0       0       0       0       0       0
       0       0       0       0       0       0       0       0       0       0
       0       0       0       0       0       0       0       0       0       0
       0       0       0       0       0       0       0       0       0       0
       0       0       0       0       0       0       0       0       0       0
       0       0       0       0       0       0       0       0       0       0
       0       0       0       0       0       0       0       0       0       0
       0       0       0       0       0       0       0       0       0       0
       0       0       0       0       0       0       0       0       0       0
       0       0       0       0       0       0       0       0       0       0
       0       0       0       0       0       0       0       0       0       0
       0       0       0       0       0       0       0       0       0       0
       0       0       0       0       0       0       0       0       0       0
       0       0       0       0       0       0       0       0       0       0
       0       0       0       0       0       0       0       0       0       0
       0       0       0       0       0       0       0       0       0       0
       0       0       0       0       0       0       0       0       0       0
       0       0       0       0       0       0       0       0       0       0
       0       0       0       0       0       0       0       0       0       0
       0       0       0       0       0       0       0       0       0       0
       0       0       0       0       0       0       0       0       0       0
       0       0       0       0       0       0       0       0       0       0
       0       0       0       0       0       0       0       0       0       0
       0       0       0       0       0       0       0       0       0       0
       0       0       0       0       0       0       0       0       0       0
       0       0       0       0       0       0       0       0       0       0
       0       0       0       0       0       0       0       0       0       0
       0       0       0       0       0       0       0       0       0       0
       0       0       0       0       0       0       0       0       0       0
       0       0       0       0       0       0       0       0       0       0
       0       0       0       0       0       0       0       0       0       0
       0       0       0       0       0       0       0       0       0       0
       0       0       0       0       0       0       0       0       0       0
       0       0       0       0       0       0       0       0       0       0
       0       0       0       0       0       0       0       0       0       0
       0       0       0       0       0       0       0       0       0       0
       0       0       0       0       0       0       0       0       0       0
       0       0       0       0       0       0       0       0       0       0
       0       0       0       0       0       0       0       0       0       0
       0       0       0       0       0       0       0       0       0       0
       0       0       0       0       0       0       0       0       0       0
       0       0       0       0       0       0       0       0       0       0
       0       0       0       0       0       0       0       0       0       0
       0       0       0       0       0       0       0       0       0       0
       0       0       0       0       0       0       0       0       0       0
       0       0       0       0       0       0       0       0       0       0
       0       0       0       0       0       0       0       0       0       0
       0       0       0       0       0       0       0       0       0       0
       0       0       0       0       0       0       0       0       0       0
       0       0       0       0       0       0       0       0       0       0
       0       0       0       0       0       0       0       0       0       0
       0       0       0       0       0       0       0       0       0       0
       0       0       0       0       0       0       0       0       0       0
       0       0       0       0       0       0       0       0       0       0
       0       0       0       0       0       0       0       0       0       0
       0       0       0       0       0       0       0       0       0       0
       0       0       0       0       0       0       0       0       0       0
       0       0       0       0       0       0       0       0       0       0
       0       0       0       0       0       0       0       0       0       0
       0       0       0       0       0       0       0       0       0       0
       0       0       0       0       0       0       0       0       0       0
       0       0       0       0       0       0       0       0       0       0
       0       0       0       0       0       0       0       0       0       0
       0       0       0       0       0       0       0       0       0       0
       0       0       0       0       0       0       0       0       0       0
       0       0       0       0       0       0       0       0       0       0
       0       0       0       0       0       0       0       0       0       0
       0       0       0       0       0       0       0       0       0       0
       0       0       0       0       0       0       0       0       0       0
       0       0       0       0       0       0       0       0       0       0
       0       0       0       0       0       0       0       0       0       0
       0       0       0       0       0       0       0       0       0       0
       0       0       0       0       0       0       0       0       0       0
       0       0       0       0       0       0       0       0       0       0
       0       0       0       0       0       0       0       0       0       0
       0       0       0       0       0       0       0       0       0       0
       0       0       0       0       0       0       0       0       0       0
       0       0       0       0       0       0       0       0       0       0
       0       0       0       0       0       0       0       0       0       0
       0       0       0       0       0       0       0       0       0       0
       0       0       0       0       0       0       0       0       0       0
       0       0       0       0       0       0       0       0       0       0
       0       0       0       0       0       0       0       0       0       0
       0       0       0       0       0       0       0       0       0       0
       0       0       0       0       0       0       0       0       0       0
       0       0       0       0       0       0       0       0       0       0
       0       0       0       0       0       0       0       0       0       0
       0       0       0       0       0       0       0       0       0       0
       0       0       0       0       0       0       0       0       0       0
       0       0       0       0       0       0       0       0       0       0
       0       0       0       0       0       0       0       0       0       0
       0       0       0       0       0       0       0       0       0       0
       0       0       0       0       0       0       0       0       0       0
       0       0       0       0       0       0       0       0       0       0
       0       0       0       0       0       0       0       0       0       0
       0       0       0       0       0       0       0       0       0       0
       0       0       0       0       0       0       0       0       0       0
       0       0       0       0       0       0       0       0       0       0
       0       0       0       0       0       0       0       0       0       0
       0       0       0       0       0       0       0       0       0       0
       0       0       0       0       0       0       0       0       0       0
       0       0       0       0       0       0       0       0       0       0
       0       0       0       0       0       0       0       0       0       0
       0       0       0       0       0       0       0       0       0       0
       0       0       0       0       0       0       0       0       0       0
       0       0       0       0       0       0       0       0       0       0
       0       0       0       0       0       0       0       0       0       0
       0       0       0       0       0       0       0       0       0       0
       0       0       0       0       0       0       0       0       0       0
       0       0       0       0       0       0       0       0       0       0
       0       0       0       0       0       0       0       0       0       0
       0       0       0       0       0       0       0       0       0       0
       0       0       0       0       0       0       0       0       0       0
       0       0       0       0       0       0       0       0       0       0
       0       0       0       0       0       0       0       0       0       0
       0       0       0       0       0       0       0       0       0       0
       0       0       0       0       0       0       0       0       0       0
       0       0       0       0       0       0       0       0       0       0
       0       0       0       0       0       0       0       0       0       0
       0       0       0       0       0       0       0       0       0       0
       0       0       0       0       0       0       0       0       0       0
       0       0       0       0       0       0       0       0       0       0
       0       0       0       0       0       0       0       0       0       0
       0       0       0       0       0       0       0       0       0       0
       0       0       0       0       0       0       0       0       0       0
       0       0       0       0       0       0       0       0       0       0
       0       0       0       0       0       0       0       0       0       0
       0       0       0       0       0       0       0       0       0       0
       0       0       0       0       0       0       0       0       0       0
       0       0       0       0       0       0       0       0       0       0
       0       0       0       0       0       0       0       0       0       0
       0       0       0       0       0       0       0       0       0       0
       0       0       0       0       0       0       0       0       0       0
       0       0       0       0       0       0       0       0       0       0
       0       0       0       0       0       0       0       0       0       0
       0       0       0       0       0       0       0       0       0       0
       0       0       0       0       0       0       0       0       0       0
       0       0       0       0       0       0       0       0       0       0
       0       0       0       0       0       0       0       0       0       0
       0       0       0       0       0       0       0       0       0       0
       0       0       0       0       0       0       0       0       0       0
       0       0       0       0       0       0       0       0       0       0
       0       0       0       0       0       0       0       0       0       0
       0       0       0       0       0       0       0       0       0       0
       0       0       0       0       0       0       0       0       0       0
       0       0       0       0       0       0       0       0       0       0
       0       0       0       0       0       0       0       0       0       0
       0       0       0       0       0       0       0       0       0       0
       0       0       0       0       0       0       0       0       0       0
       0       0       0       0       0       0       0       0       0       0
       0       0       0       0       0       0       0       0       0       0
       0       0       0       0       0       0       0       0       0       0
       0       0       0       0       0       0       0       0       0       0
       0       0       0       0       0       0       0       0       0       0
       0       0       0       0       0       0       0       0       0       0
       0       0       0       0       0       0       0       0       0       0
       0       0       0       0       0       0       0       0       0       0
       0       0       0       0       0       0       0       0       0       0
       0       0       0       0       0       0       0       0       0       0
       0       0       0       0       0       0       0       0       0       0
       0       0       0       0       0       0       0       0       0       0
       0       0       0       0       0       0       0       0       0       0
       0       0       0       0       0       0       0       0       0       0
       0       0       0       0       0       0       0       0       0       0
       0       0       0       0       0       0       0       0       0       0
       0       0       0       0       0       0       0       0       0       0
       0       0       0       0       0       0       0       0       0       0
       0       0       0       0       0       0       0       0       0       0
       0       0       0       0       0       0       0       0       0       0
       0       0       0       0       0       0       0       0       0       0
       0       0       0       0       0       0       0       0       0       0
       0       0       0       0       0       0       0       0       0       0
       0       0       0       0       0       0       0       0       0       0
       0       0       0       0       0       0       0       0       0       0
       0       0       0       0       0       0       0       0       0       0
       0       0       0       0       0       0       0       0       0       0
       0       0       0       0       0       0       0       0       0       0
       0       0       0       0       0       0       0       0       0       0
       0       0       0       0       0       0       0       0       0       0
       0       0       0       0       0       0       0       0       0       0
       0       0       0       0       0       0       0       0       0       0
       0       0       0       0       0       0       0       0       0       0
       0       0       0       0       0       0       0       0       0       0
       0       0       0       0       0       0       0       0       0       0
       0       0       0       0       0       0       0       0       0       0
       0       0       0       0       0       0       0       0       0       0
       0       0       0       0       0       0       0       0       0       0
       0       0       0       0       0       0       0       0       0       0
       0       0       0       0       0       0       0       0       0       0
       0       0       0       0       0       0       0       0       0       0
       0       0       0       0       0       0       0       0       0       0
       0       0       0       0       0       0       0       0       0       0
       0       0       0       0       0       0       0       0       0       0
       0       0       0       0       0       0       0       0       0       0
       0       0       0       0       0       0       0       0       0       0
       0       0       0       0       0       0       0       0       0       0
       0       0       0       0       0       0       0       0       0       0
       0       0       0       0       0       0       0       0       0       0
       0       0       0       0       0       0       0       0       0       0
       0       0       0       0       0       0       0       0       0       0
       0       0       0       0       0       0       0       0       0       0
       0       0       0       0       0       0       0       0       0       0
       0       0       0       0       0       0       0       0       0       0
       0       0       0       0       0       0       0       0       0       0
       0       0       0       0       0       0       0       0       0       0
       0       0       0       0       0       0       0       0       0       0
       0       0       0       0       0       0       0       0       0       0
       0       0       0       0       0       0       0       0       0       0
       0       0       0       0       0       0       0       0       0       0
       0       0       0       0       0       0       0       0       0       0
       0       0       0       0       0       0       0       0       0       0
       0       0       0       0       0       0       0       0       0       0
       0       0       0       0       0       0       0       0       0       0
       0       0       0       0       0       0       0       0       0       0
       0       0       0       0       0       0       0       0       0       0
       0       0       0       0       0       0       0       0       0       0
       0       0       0       0       0       0       0       0       0       0
       0       0       0       0       0       0       0       0       0       0
       0       0       0       0       0       0       0       0       0       0
       0       0       0       0       0       0       0       0       0       0
       0       0       0       0       0       0       0       0       0       0
       0       0       0       0       0       0       0       0       0       0
       0       0       0       0       0       0       0       0       0       0
       0       0       0       0       0       0       0       0       0       0
       0       0       0       0       0       0       0       0       0       0
       0       0       0       0       0       0       0       0       0       0
       0       0       0       0       0       0       0       0       0       0
       0       0       0       0       0       0       0       0       0       0
       0       0       0       0       0       0       0       0       0       0
       0       0       0       0       0       0       0       0       0       0
       0       0       0       0       0       0       0       0       0       0
       0       0       0       0       0       0       0       0       0       0
       0       0       0       0       0       0       0       0       0       0
       0       0       0       0       0       0       0       0       0       0
       0       0       0       0       0       0       0       0       0       0
       0       0       0       0       0       0       0       0       0       0
       0       0       0       0       0       0       0       0       0       0
       0       0       0       0       0       0       0       0       0       0
       0       0       0       0       0       0       0       0       0       0
       0       0       0       0       0       0       0       0       0       0
       0       0       0       0       0       0       0       0       0       0
       0       0       0       0       0       0       0       0       0       0
       0       0       0       0       0       0       0       0       0       0
       0       0       0       0       0       0       0       0       0       0
       0       0       0       0       0       0       0       0       0       0
       0       0       0       0       0       0       0       0       0       0
       0       0       0       0       0       0       0       0       0       0
       0       0       0       0       0       0       0       0       0       0
       0       0       0       0       0       0       0       0       0       0
       0       0       0       0       0       0       0       0       0       0
       0       0       0       0       0       0       0       0       0       0
       0       0       0       0       0       0       0       0       0       0
       0       0       0       0       0       0       0       0       0       0
       0       0       0       0       0       0       0       0       0       0
       0       0       0       0       0       0       0       0       0       0
       0       0       0       0       0       0       0       0       0       0
       0       0       0       0       0       0       0       0       0       0
       0       0       0       0       0       0       0       0       0       0
       0       0       0       0       0       0       0       0       0       0
       0       0       0       0       0       0       0       0       0       0
       0       0       0       0       0       0       0       0       0       0
       0       0       0       0       0       0       0       0       0       0
       0       0       0       0       0       0       0       0       0       0
       0       0       0       0       0       0       0       0       0       0
       0       0       0       0       0       0       0       0       0       0
       0       0       0       0       0       0       0       0       0       0
       0       0       0       0       0       0       0       0       0       0
       0       0       0       0       0       0       0       0       0       0
       0       0       0       0       0       0       0       0       0       0
       0       0       0       0       0       0       0       0       0       0
       0       0       0       0       0       0       0       0       0       0
       0       0       0       0       0       0       0       0       0       0
       0       0       0       0       0       0       0       0       0       0
       0       0       0       0       0       0       0       0       0       0
       0       0       0       0       0       0       0       0       0       0
       0       0       0       0       0       0       0       0       0       0
       0       0       0       0       0       0       0       0       0       0
       0       0       0       0       0       0       0       0       0       0
       0       0       0       0       0       0       0       0       0       0
       0       0       0       0       0       0       0       0       0       0
       0       0       0       0       0       0       0       0       0       0
       0       0       0       0       0       0       0       0       0       0
       0       0       0       0       0       0       0       0       0       0
       0       0       0       0       0       0       0       0       0       0
       0       0       0       0       0       0       0       0       0       0
       0       0       0       0       0       0       0       0       0       0
       0       0       0       0       0       0       0       0       0       0
       0       0       0       0       0       0       0       0       0       0
       0       0       0       0       0       0       0       0       0       0
       0       0       0       0       0       0       0       0       0       0
       0       0       0       0       0       0       0       0       0       0
       0       0       0       0       0       0       0       0       0       0
       0       0       0       0       0       0       0       0       0       0
       0       0       0       0       0       0       0       0       0       0
       0       0       0       0       0       0       0       0       0       0
       0       0       0       0       0       0       0       0       0       0
       0       0       0       0       0       0       0       0       0       0
       0       0       0       0       0       0       0       0       0       0
       0       0       0       0       0       0       0       0       0       0
       0       0       0       0       0       0       0       0       0       0
       0       0       0       0       0       0       0       0       0       0
       0       0       0       0       0       0       0       0       0       0
       0       0       0       0       0       0       0       0       0       0
       0       0       0       0       0       0       0       0       0       0
       0       0       0       0       0       0       0       0       0       0
       0       0       0       0       0       0       0       0       0       0
       0       0       0       0       0       0       0       0       0       0
       0       0       0       0       0       0       0       0       0       0
       0       0       0       0       0       0       0       0       0       0
       0       0       0       0       0       0       0       0       0       0
       0       0       0       0       0       0       0       0       0       0
       0       0       0       0       0       0       0       0       0       0
       0       0       0       0       0       0       0       0       0       0
       0       0       0       0       0       0       0       0       0       0
       0       0       0       0       0       0       0       0       0       0
       0       0       0       0       0       0       0       0       0       0
       0       0       0       0       0       0       0       0       0       0
       0       0       0       0       0       0       0       0       0       0
       0       0       0       0       0       0       0       0       0       0
       0       0       0       0       0       0       0       0       0       0
       0       0       0       0       0       0       0       0       0       0
       0       0       0       0       0       0       0       0       0       0
       0       0       0       0       0       0       0       0       0       0
       0       0       0       0       0       0       0       0       0       0
       0       0       0       0       0       0       0       0       0       0
       0       0       0       0       0       0       0       0       0       0
       0       0       0       0       0       0       0       0       0       0
       0       0       0       0       0       0       0       0       0       0
       0       0       0       0       0       0       0       0       0       0
       0       0       0       0       0       0       0       0       0       0
       0       0       0       0       0       0       0       0       0       0
       0       0       0       0       0       0       0       0       0       0
       0       0       0       0       0       0       0       0       0       0
       0       0       0       0       0       0       0       0       0       0
       0       0       0       0       0       0       0       0       0       0
       0       0       0       0       0       0       0       0       0       0
       0       0       0       0       0       0       0       0       0       0
       0       0       0       0       0       0       0       0       0       0
       0       0       0       0       0       0       0       0       0       0
       0       0       0       0       0       0       0       0       0       0
       0       0       0       0       0       0       0       0       0       0
       0       0       0       0       0       0       0       0       0       0
       0       0       0       0       0       0       0       0       0       0
       0       0       0       0       0       0       0       0       0       0
       0       0       0       0       0       0       0       0       0       0
       0       0       0       0       0       0       0       0       0       0
       0       0       0       0       0       0       0       0       0       0
       0       0       0       0       0       0       0       0       0       0
       0       0       0       0       0       0       0       0       0       0
       0       0       0       0       0       0       0       0       0       0
       0       0       0       0       0       0       0       0       0       0
       0       0       0       0       0       0       0       0       0       0
       0       0       0       0       0       0       0       0       0       0
       0       0       0       0       0       0       0       0       0       0
       0       0       0       0       0       0       0       0       0       0
       0       0       0       0       0       0       0       0       0       0
       0       0       0       0       0       0       0       0       0       0
       0       0       0       0       0       0       0       0       0       0
       0       0       0       0       0       0       0       0       0       0
       0       0       0       0       0       0       0       0       0       0
       0       0       0       0       0       0       0       0       0       0
       0       0       0       0       0       0       0       0       0       0
       0       0       0       0       0       0       0       0       0       0
       0       0       0       0       0       0       0       0       0       0
       0       0       0       0       0       0       0       0       0       0
       0       0       0       0       0       0       0       0       0       0
       0       0       0       0       0       0       0       0       0       0
       0       0       0       0       0       0       0       0       0       0
       0       0       0       0       0       0       0       0       0       0
       0       0       0       0       0       0       0       0       0       0
       0       0       0       0       0       0       0       0       0       0
       0       0       0       0       0       0       0       0       0       0
       0       0       0       0       0       0       0       0       0       0
       0       0       0       0       0       0       0       0       0       0
       0       0       0       0       0       0       0       0       0       0
       0       0       0       0       0       0       0       0       0       0
       0       0       0       0       0       0       0       0       0       0
       0       0       0       0       0       0       0       0       0       0
       0       0       0       0       0       0       0       0       0       0
       0       0       0       0       0       0       0       0       0       0
       0       0       0       0       0       0       0       0       0       0
       0       0       0       0       0       0       0       0       0       0
       0       0       0       0       0       0       0       0       0       0
       0       0       0       0       0       0       0       0       0       0
       0       0       0       0       0       0       0       0       0       0
       0       0       0       0       0       0       0       0       0       0
       0       0       0       0       0       0       0       0       0       0
       0       0       0       0       0       0       0       0       0       0
       0       0       0       0       0       0       0       0       0       0
       0       0       0       0       0       0       0       0       0       0
       0       0       0       0       0       0       0       0       0       0
       0       0       0       0       0       0       0       0       0       0
       0       0       0       0       0       0       0       0       0       0
       0       0       0       0       0       0       0       0       0       0
       0       0       0       0       0       0       0       0       0       0
       0       0       0       0       0       0       0       0       0       0
       0       0       0       0       0       0       0       0       0       0
       0       0       0       0       0       0       0       0       0       0
       0       0       0       0       0       0       0       0       0       0
       0       0       0       0       0       0       0       0       0       0
       0       0       0       0       0       0       0       0       0       0
       0       0       0       0       0       0       0       0       0       0
       0       0       0       0       0       0       0       0       0       0
       0       0       0       0       0       0       0       0       0       0
       0       0       0       0       0       0       0       0       0       0
       0       0       0       0       0       0       0       0       0       0
       0       0       0       0       0       0       0       0       0       0
       0       0       0       0       0       0       0       0       0       0
       0       0       0       0       0       0       0       0       0       0
       0       0       0       0       0       0       0       0       0       0
       0       0       0       0       0       0       0       0       0       0
       0       0       0       0       0       0       0       0       0       0
       0       0       0       0       0       0       0       0       0       0
       0       0       0       0       0       0       0       0       0       0
       0       0       0       0       0       0       0       0       0       0
       0       0       0       0       0       0       0       0       0       0
       0       0       0       0       0       0       0       0       0       0
       0       0       0       0       0       0       0       0       0       0
       0       0       0       0       0       0       0       0       0       0
       0       0       0       0       0       0       0       0       0       0
       0       0       0       0       0       0       0       0       0       0
       0       0       0       0       0       0       0       0       0       0
       0       0       0       0       0       0       0       0       0       0
       0       0       0       0       0       0       0       0       0       0
       0       0       0       0       0       0       0       0       0       0
       0       0       0       0       0       0       0       0       0       0
       0       0       0       0       0       0       0       0       0       0
       0       0       0       0       0       0       0       0       0       0
       0       0       0       0       0       0       0       0       0       0
       0       0       0       0       0       0       0       0       0       0
       0       0       0       0       0       0       0       0       0       0
       0       0       0       0       0       0       0       0       0       0
       0       0       0       0       0       0       0       0       0       0
       0       0       0       0       0       0       0       0       0       0
       0       0       0       0       0       0       0       0       0       0
       0       0       0       0       0       0       0       0       0       0
       0       0       0       0       0       0       0       0       0       0
       0       0       0       0       0       0       0       0       0       0
       0       0       0       0       0       0       0       0       0       0
       0       0       0       0       0       0       0       0       0       0
       0       0       0       0       0       0       0       0       0       0
       0       0       0       0       0       0       0       0       0       0
       0       0       0       0       0       0       0       0       0       0
       0       0       0       0       0       0       0       0       0       0
       0       0       0       0       0       0       0       0       0       0
       0       0       0       0       0       0       0       0       0       0
       0       0       0       0       0       0       0       0       0       0
       0       0       0       0       0       0       0       0       0       0
       0       0       0       0       0       0       0       0       0       0
       0       0       0       0       0       0       0       0       0       0
       0       0       0       0       0       0       0       0       0       0
       0       0       0       0       0       0       0       0       0       0
       0       0       0       0       0       0       0       0       0       0
       0       0       0       0       0       0       0       0       0       0
       0       0       0       0       0       0       0       0       0       0
       0       0       0       0       0       0       0       0       0       0
       0       0       0       0       0       0       0       0       0       0
       0       0       0       0       0       0       0       0       0       0
       0       0       0       0       0       0       0       0       0       0
       0       0       0       0       0       0       0       0       0       0
       0       0       0       0       0       0       0       0       0       0
       0       0       0       0       0       0       0       0       0       0
       0       0       0       0       0       0       0       0       0       0
       0       0       0       0       0       0       0       0       0       0
       0       0       0       0       0       0       0       0       0       0
       0       0       0       0       0       0       0       0       0       0
       0       0       0       0       0       0       0       0       0       0
       0       0       0       0       0       0       0       0       0       0
       0       0       0       0       0       0       0       0       0       0
       0       0       0       0       0       0       0       0       0       0
       0       0       0       0       0       0       0       0       0       0
       0       0       0       0       0       0       0       0       0       0
       0       0       0       0       0       0       0       0       0       0
       0       0       0       0       0       0       0       0       0       0
       0       0       0       0       0       0       0       0       0       0
       0       0       0       0       0       0       0       0       0       0
       0       0       0       0       0       0       0       0       0       0
       0       0       0       0       0       0       0       0       0       0
       0       0       0       0       0       0       0       0       0       0
       0       0       0       0       0       0       0       0       0       0
       0       0       0       0       0       0       0       0       0       0
       0       0       0       0       0       0       0       0       0       0
       0       0       0       0       0       0       0       0       0       0
       0       0       0       0       0       0       0       0       0       0
       0       0       0       0       0       0       0       0       0       0
       0       0       0       0       0       0       0       0       0       0
       0       0       0       0       0       0       0       0       0       0
       0       0       0       0       0       0       0       0       0       0
       0       0       0       0       0       0       0       0       0       0
       0       0       0       0       0       0       0       0       0       0
       0       0       0       0       0       0       0       0       0       0
       0       0       0       0       0       0       0       0       0       0
       0       0       0       0       0       0       0       0       0       0
       0       0       0       0       0       0       0       0       0       0
       0       0       0       0       0       0       0       0       0       0
       0       0       0       0       0       0       0       0       0       0
       0       0       0       0       0       0       0       0       0       0
       0       0       0       0       0       0       0       0       0       0
       0       0       0       0       0       0       0       0       0       0
       0       0       0       0       0       0       0       0       0       0
       0       0       0       0       0       0       0       0       0       0
       0       0       0       0       0       0       0       0       0       0
       0       0       0       0       0       0       0       0       0       0
       0       0       0       0       0       0       0       0       0       0
       0       0       0       0       0       0       0       0       0       0
       0       0       0       0       0       0       0       0       0       0
       0       0       0       0       0       0       0       0       0       0
       0       0       0       0       0       0       0       0       0       0
       0       0       0       0       0       0       0       0       0       0
       0       0       0       0       0       0       0       0       0       0
       0       0       0       0       0       0       0       0       0       0
       0       0       0       0       0       0       0       0       0       0
       0       0       0       0       0       0       0       0       0       0
       0       0       0       0       0       0       0       0       0       0
       0       0       0       0       0       0       0       0       0       0
       0       0       0       0       0       0       0       0       0       0
       0       0       0       0       0       0       0       0       0       0
       0       0       0       0       0       0       0       0       0       0
       0       0       0       0       0       0       0       0       0       0
       0       0       0       0       0       0       0       0       0       0
       0       0       0       0       0       0       0       0       0       0
       0       0       0       0       0       0       0       0       0       0
       0       0       0       0       0       0       0       0       0       0
       0       0       0       0       0       0       0       0       0       0
       0       0       0       0       0       0       0       0       0       0
       0       0       0       0       0       0       0       0       0       0
       0       0       0       0       0       0       0       0       0       0
       0       0       0       0       0       0       0       0       0       0
       0       0       0       0       0       0       0       0       0       0
       0       0       0       0       0       0       0       0       0       0
       0       0       0       0       0       0       0       0       0       0
       0       0       0       0       0       0       0       0       0       0
       0       0       0       0       0       0       0       0       0       0
       0       0       0       0       0       0       0       0       0       0
       0       0       0       0       0       0       0       0       0       0
       0       0       0       0       0       0       0       0       0       0
       0       0       0       0       0       0       0       0       0       0
       0       0       0       0       0       0       0       0       0       0
       0       0       0       0       0       0       0       0       0       0
       0       0       0       0       0       0       0       0       0       0
       0       0       0       0       0       0       0       0       0       0
       0       0       0       0       0       0       0       0       0       0
       0       0       0       0       0       0       0       0       0       0
       0       0       0       0       0       0       0       0       0       0
       0       0       0       0       0       0       0       0       0       0
       0       0       0       0       0       0       0       0       0       0
       0       0       0       0       0       0       0       0       0       0
       0       0       0       0       0       0       0       0       0       0
       0       0       0       0       0       0       0       0       0       0
       0       0       0       0       0       0       0       0       0       0
       0       0       0       0       0       0       0       0       0       0
       0       0       0       0       0       0       0       0       0       0
       0       0       0       0       0       0       0       0       0       0
       0       0       0       0       0       0       0       0       0       0
       0       0       0       0       0       0       0       0       0       0
       0       0       0       0       0       0       0       0       0       0
       0       0       0       0       0       0       0       0       0       0
       0       0       0       0       0       0       0       0       0       0
       0       0       0       0       0       0       0       0       0       0
       0       0       0       0       0       0       0       0       0       0
       0       0       0       0       0       0       0       0       0       0
       0       0       0       0       0       0       0       0       0       0
       0       0       0       0       0       0       0       0       0       0
       0       0       0       0       0       0       0       0       0       0
       0       0       0       0       0       0       0       0       0       0
       0       0       0       0       0       0       0       0       0       0
       0       0       0       0       0       0       0       0       0       0
       0       0       0       0       0       0       0       0       0       0
       0       0       0       0       0       0       0       0       0       0
       0       0       0       0       0       0       0       0       0       0
       0       0       0       0       0       0       0       0       0       0
       0       0       0       0       0       0       0       0       0       0
       0       0       0       0       0       0       0       0       0       0
       0       0       0       0       0       0       0       0       0       0
       0       0       0       0       0       0       0       0       0       0
       0       0       0       0       0       0       0       0       0       0
       0       0       0       0       0       0       0       0       0       0
       0       0       0       0       0       0       0       0       0       0
       0       0       0       0       0       0       0       0       0       0
       0       0       0       0       0       0       0       0       0       0
       0       0       0       0       0       0       0       0       0       0
       0       0       0       0       0       0       0       0       0       0
       0       0       0       0       0       0       0       0       0       0
       0       0       0       0       0       0       0       0       0       0
       0       0       0       0       0       0       0       0       0       0
       0       0       0       0       0       0       0       0       0       0
       0       0       0       0       0       0       0       0       0       0
       0       0       0       0       0       0       0       0       0       0
       0       0       0       0       0       0       0       0       0       0
       0       0       0       0       0       0       0       0       0       0
       0       0       0       0       0       0       0       0       0       0
       0       0       0       0       0       0       0       0       0       0
       0       0       0       0       0       0       0       0       0       0
       0       0       0       0       0       0       0       0       0       0
       0       0       0       0       0       0       0       0       0       0
       0       0       0       0       0       0       0       0       0       0
       0       0       0       0       0       0       0       0       0       0
       0       0       0       0       0       0       0       0       0       0
       0       0       0       0       0       0       0       0       0       0
       0       0       0       0       0       0       0       0       0       0
       0       0       0       0       0       0       0       0       0       0
       0       0       0       0       0       0       0       0       0       0
       0       0       0       0       0       0       0       0       0       0
       0       0       0       0       0       0       0       0       0       0
       0       0       0       0       0       0       0       0       0       0
       0       0       0       0       0       0       0       0       0       0
       0       0       0       0       0       0       0       0       0       0
       0       0       0       0       0       0       0       0       0       0
       0       0       0       0       0       0       0       0       0       0
       0       0       0       0       0       0       0       0       0       0
       0       0       0       0       0       0       0       0       0       0
       0       0       0       0       0       0       0       0       0       0
       0       0       0       0       0       0       0       0       0       0
       0       0       0       0       0       0       0       0       0       0
       0       0       0       0       0       0       0       0       0       0
       0       0       0       0       0       0       0       0       0       0
       0       0       0       0       0       0       0       0       0       0
       0       0       0       0       0       0       0       0       0       0
       0       0       0       0       0       0       0       0       0       0
       0       0       0       0       0       0       0       0       0       0
       0       0       0       0       0       0       0       0       0       0
       0       0       0       0       0       0       0       0       0       0
       0       0       0       0       0       0       0       0       0       0
       0       0       0       0       0       0       0       0       0       0
       0       0       0       0       0       0       0       0       0       0
       0       0       0       0       0       0       0       0       0       0
       0       0       0       0       0       0       0       0       0       0
       0       0       0       0       0       0       0       0       0       0
       0       0       0       0       0       0       0       0       0       0
       0       0       0       0       0       0       0       0       0       0
       0       0       0       0       0       0       0       0       0       0
       0       0       0       0       0       0       0       0       0       0
       0       0       0       0       0       0       0       0       0       0
       0       0       0       0       0       0       0       0       0       0
       0       0       0       0       0       0       0       0       0       0
       0       0       0       0       0       0       0       0       0       0
       0       0       0       0       0       0       0       0       0       0
       0       0       0       0       0       0       0       0       0       0
       0       0       0       0       0       0       0       0       0       0
       0       0       0       0       0       0       0       0       0       0
       0       0       0       0       0       0       0       0       0       0
       0       0       0       0       0       0       0       0       0       0
       0       0       0       0       0       0       0       0       0       0
       0       0       0       0       0       0       0       0       0       0
       0       0       0       0       0       0       0       0       0       0
       0       0       0       0       0       0       0       0       0       0
       0       0       0       0       0       0       0       0       0       0
       0       0       0       0       0       0       0       0       0       0
       0       0       0       0       0       0       0       0       0       0
       0       0       0       0       0       0       0       0       0       0
       0       0       0       0       0       0       0       0       0       0
       0       0       0       0       0       0       0       0       0       0
       0       0       0       0       0       0       0       0       0       0
       0       0       0       0       0       0       0       0       0       0
       0       0       0       0       0       0       0       0       0       0
       0       0       0       0       0       0       0       0       0       0
       0       0       0       0       0       0       0       0       0       0
       0       0       0       0       0       0       0       0       0       0
       0       0       0       0       0       0       0       0       0       0
       0       0       0       0       0       0       0       0       0       0
       0       0       0       0       0       0       0       0       0       0
       0       0       0       0       0       0       0       0       0       0
       0       0       0       0       0       0       0       0       0       0
       0       0       0       0       0       0       0       0       0       0
       0       0       0       0       0       0       0       0       0       0
       0       0       0       0       0       0       0       0       0       0
       0       0       0       0       0       0       0       0       0       0
       0       0       0       0       0       0       0       0       0       0
       0       0       0       0       0       0       0       0       0       0
       0       0       0       0       0       0       0       0       0       0
       0       0       0       0       0       0       0       0       0       0
       0       0       0       0       0       0       0       0       0       0
       0       0       0       0       0       0       0       0       0       0
       0       0       0       0       0       0       0       0       0       0
       0       0       0       0       0       0       0       0       0       0
       0       0       0       0       0       0       0       0       0       0
       0       0       0       0       0       0       0       0       0       0
       0       0       0       0       0       0       0       0       0       0
       0       0       0       0       0       0       0       0       0       0
       0       0       0       0       0       0       0       0       0       0
       0       0       0       0       0       0       0       0       0       0
       0       0       0       0       0       0       0       0       0       0
       0       0       0       0       0       0       0       0       0       0
       0       0       0       0       0       0       0       0       0       0
       0       0       0       0       0       0       0       0       0       0
       0       0       0       0       0       0       0       0       0       0
       0       0       0       0       0       0       0       0       0       0
       0       0       0       0       0       0       0       0       0       0
       0       0       0       0       0       0       0       0       0       0
       0       0       0       0       0       0       0       0       0       0
       0       0       0       0       0       0       0       0       0       0
       0       0       0       0       0       0       0       0       0       0
       0       0       0       0       0       0       0       0       0       0
       0       0       0       0       0       0       0       0       0       0
       0       0       0       0       0       0       0       0       0       0
       0       0       0       0       0       0       0       0       0       0
       0       0       0       0       0       0       0       0       0       0
       0       0       0       0       0       0       0       0       0       0
       0       0       0       0       0       0       0       0       0       0
       0       0       0       0       0       0       0       0       0       0
       0       0       0       0       0       0       0       0       0       0
       0       0       0       0       0       0       0       0       0       0
       0       0       0       0       0       0       0       0       0       0
       0       0       0       0       0       0       0       0       0       0
       0       0       0       0       0       0       0       0       0       0
       0       0       0       0       0       0       0       0       0       0
       0       0       0       0       0       0       0       0       0       0
       0       0       0       0       0       0       0       0       0       0
       0       0       0       0       0       0       0       0       0       0
       0       0       0       0       0       0       0       0       0       0
       0       0       0       0       0       0       0       0       0       0
       0       0       0       0       0       0       0       0       0       0
       0       0       0       0       0       0       0       0       0       0
       0       0       0       0       0       0       0       0       0       0
       0       0       0       0       0       0       0       0       0       0
       0       0       0       0       0       0       0       0       0       0
       0       0       0       0       0       0       0       0       0       0
       0       0       0       0       0       0       0       0       0       0
       0       0       0       0       0       0       0       0       0       0
       0       0       0       0       0       0       0       0       0       0
       0       0       0       0       0       0       0       0       0       0
       0       0       0       0       0       0       0       0       0       0
       0       0       0       0       0       0       0       0       0       0
       0       0       0       0       0       0       0       0       0       0
       0       0       0       0       0       0       0       0       0       0
       0       0       0       0       0       0       0       0       0       0
       0       0       0       0       0       0       0       0       0       0
       0       0       0       0       0       0       0       0       0       0
       0       0       0       0       0       0       0       0       0       0
       0       0       0       0       0       0       0       0       0       0
       0       0       0       0       0       0       0       0       0       0
       0       0       0       0       0       0       0       0       0       0
       0       0       0       0       0       0       0       0       0       0
       0       0       0       0       0       0       0       0       0       0
       0       0       0       0       0       0       0       0       0       0
       0       0       0       0       0       0       0       0       0       0
       0       0       0       0       0       0       0       0       0       0
       0       0       0       0       0       0       0       0       0       0
       0       0       0       0       0       0       0       0       0       0
       0       0       0       0       0       0       0       0       0       0
       0       0       0       0       0       0       0       0       0       0
       0       0       0       0       0       0       0       0       0       0
       0       0       0       0       0       0       0       0       0       0
       0       0       0       0       0       0       0       0       0       0
       0       0       0       0       0       0       0       0       0       0
       0       0       0       0       0       0       0       0       0       0
       0       0       0       0       0       0       0       0       0       0
       0       0       0       0       0       0       0       0       0       0
       0       0       0       0       0       0       0       0       0       0
       0       0       0       0       0       0       0       0       0       0
       0       0       0       0       0       0       0       0       0       0
       0       0       0       0       0       0       0       0       0       0
       0       0       0       0       0       0       0       0       0       0
       0       0       0       0       0       0       0       0       0       0
       0       0       0       0       0       0       0       0       0       0
       0       0       0       0       0       0       0       0       0       0
       0       0       0       0       0       0       0       0       0       0
       0       0       0       0       0       0       0       0       0       0
       0       0       0       0       0       0       0       0       0       0
       0       0       0       0       0       0       0       0       0       0
       0       0       0       0       0       0       0       0       0       0
       0       0       0       0       0       0       0       0       0       0
       0       0       0       0       0       0       0       0       0       0
       0       0       0       0       0       0       0       0       0       0
       0       0       0       0       0       0       0       0       0       0
       0       0       0       0       0       0       0       0       0       0
       0       0       0       0       0       0       0       0       0       0
       0       0       0       0       0       0       0       0       0       0
       0       0       0       0       0       0       0       0       0       0
       0       0       0       0       0       0       0       0       0       0
       0       0       0       0       0       0       0       0       0       0
       0       0       0       0       0       0       0       0       0       0
       0       0       0       0       0       0       0       0       0       0
       0       0       0       0       0       0       0       0       0       0
       0       0       0       0       0       0       0       0       0       0
       0       0       0       0       0       0       0       0       0       0
       0       0       0       0       0       0       0       0       0       0
       0       0       0       0       0       0       0       0       0       0
       0       0       0       0       0       0       0       0       0       0
       0       0       0       0       0       0       0       0       0       0
       0       0       0       0       0       0       0       0       0       0
       0       0       0       0       0       0       0       0       0       0
       0       0       0       0       0       0       0       0       0       0
       0       0       0       0       0       0       0       0       0       0
       0       0       0       0       0       0       0       0       0       0
       0       0       0       0       0       0       0       0       0       0
       0       0       0       0       0       0       0       0       0       0
       0       0       0       0       0       0       0       0       0       0
       0       0       0       0       0       0       0       0       0       0
       0       0       0       0       0       0       0       0       0       0
       0       0       0       0       0       0       0       0       0       0
       0       0       0       0       0       0       0       0       0       0
       0       0       0       0       0       0       0       0       0       0
       0       0       0       0       0       0       0       0       0       0
       0       0       0       0       0       0       0       0       0       0
       0       0       0       0       0       0       0       0       0       0
       0       0       0       0       0       0       0       0       0       0
       0       0       0       0       0       0       0       0       0       0
       0       0       0       0       0       0       0       0       0       0
       0       0       0       0       0       0       0       0       0       0
       0       0       0       0       0       0       0       0       0       0
       0       0       0       0       0       0       0       0       0       0
       0       0       0       0       0       0       0       0       0       0
       0       0       0       0       0       0       0       0       0       0
       0       0       0       0       0       0       0       0       0       0
       0       0       0       0       0       0       0       0       0       0
       0       0       0       0       0       0       0       0       0       0
       0       0       0       0       0       0       0       0       0       0
       0       0       0       0       0       0       0       0       0       0
       0       0       0       0       0       0       0       0       0       0
       0       0       0       0       0       0       0       0       0       0
       0       0       0       0       0       0       0       0       0       0
       0       0       0       0       0       0       0       0       0       0
       0       0       0       0       0       0       0       0       0       0
       0       0       0       0       0       0       0       0       0       0
       0       0       0       0       0       0       0       0       0       0
       0       0       0       0       0       0       0       0       0       0
       0       0       0       0       0       0       0       0       0       0
       0       0       0       0       0       0       0       0       0       0
       0       0       0       0       0       0       0       0       0       0
       0       0       0       0       0       0       0       0       0       0
       0       0       0       0       0       0       0       0       0       0
       0       0       0       0       0       0       0       0       0       0
       0       0       0       0       0       0       0       0       0       0
       0       0       0       0       0       0       0       0       0       0
       0       0       0       0       0       0       0       0       0       0
       0       0       0       0       0       0       0       0       0       0
       0       0       0       0       0       0       0       0       0       0
       0       0       0       0       0       0       0       0       0       0
       0       0       0       0       0       0       0       0       0       0
       0       0       0       0       0       0       0       0       0       0
       0       0       0       0       0       0       0       0       0       0
       0       0       0       0       0       0       0       0       0       0
       0       0       0       0       0       0       0       0       0       0
       0       0       0       0       0       0       0       0       0       0
       0       0       0       0       0       0       0       0       0       0
       0       0       0       0       0       0       0       0       0       0
       0       0       0       0       0       0       0       0       0       0
       0       0       0       0       0       0       0       0       0       0
       0       0       0       0       0       0       0       0       0       0
       0       0       0       0       0       0       0       0       0       0
       0       0       0       0       0       0       0       0       0       0
       0       0       0       0       0       0       0       0       0       0
       0       0       0       0       0       0       0       0       0       0
       0       0       0       0       0       0       0       0       0       0
       0       0       0       0       0       0       0       0       0       0
       0       0       0       0       0       0       0       0       0       0
       0       0       0       0       0       0       0       0       0       0
       0       0       0       0       0       0       0       0       0       0
       0       0       0       0       0       0       0       0       0       0
       0       0       0       0       0       0       0       0       0       0
       0       0       0       0       0       0       0       0       0       0
       0       0       0       0       0       0       0       0       0       0
       0       0       0       0       0       0       0       0       0       0
       0       0       0       0       0       0       0       0       0       0
       0       0       0       0       0       0       0       0       0       0
       0       0       0       0       0       0       0       0       0       0
       0       0       0       0       0       0       0       0       0       0
       0       0       0       0       0       0       0       0       0       0
       0       0       0       0       0       0       0       0       0       0
       0       0       0       0       0       0       0       0       0       0
       0       0       0       0       0       0       0       0       0       0
       0       0       0       0       0       0       0       0       0       0
       0       0       0       0       0       0       0       0       0       0
       0       0       0       0       0       0       0       0       0       0
       0       0       0       0       0       0       0       0       0       0
       0       0       0       0       0       0       0       0       0       0
       0       0       0       0       0       0       0       0       0       0
       0       0       0       0       0       0       0       0       0       0
       0       0       0       0       0       0       0       0       0       0
       0       0       0       0       0       0       0       0       0       0
       0       0       0       0       0       0       0       0       0       0
       0       0       0       0       0       0       0       0       0       0
       0       0       0       0       0       0       0       0       0       0
       0       0       0       0       0       0       0       0       0       0
       0       0       0       0       0       0       0       0       0       0
       0       0       0       0       0       0       0       0       0       0
       0       0       0       0       0       0       0       0       0       0
       0       0       0       0       0       0       0       0       0       0
       0       0       0       0       0       0       0       0       0       0
       0       0       0       0       0       0       0       0       0       0
       0       0       0       0       0       0       0       0       0       0
       0       0       0       0       0       0       0       0       0       0
       0       0       0       0       0       0       0       0       0       0
       0       0       0       0       0       0       0       0       0       0
       0       0       0       0       0       0       0       0       0       0
       0       0       0       0       0       0       0       0       0       0
       0       0       0       0       0       0       0       0       0       0
       0       0       0       0       0       0       0       0       0       0
       0       0       0       0       0       0       0       0       0       0
       0       0       0       0       0       0       0       0       0       0
       0       0       0       0       0       0       0       0       0       0
       0       0       0       0       0       0       0       0       0       0
       0       0       0       0       0       0       0       0       0       0
       0       0       0       0       0       0       0       0       0       0
       0       0       0       0       0       0       0       0       0       0
       0       0       0       0       0       0       0       0       0       0
       0       0       0       0       0       0       0       0       0       0
       0       0       0       0       0       0       0       0       0       0
       0       0       0       0       0       0       0       0       0       0
       0       0       0       0       0       0       0       0       0       0
       0       0       0       0       0       0       0       0       0       0
       0       0       0       0       0       0       0       0       0       0
       0       0       0       0       0       0       0       0       0       0
       0       0       0       0       0       0       0       0       0       0
       0       0       0       0       0       0       0       0       0       0
       0       0       0       0       0       0       0       0       0       0
       0       0       0       0       0       0       0       0       0       0
       0       0       0       0       0       0       0       0       0       0
       0       0       0       0       0       0       0       0       0       0
       0       0       0       0       0       0       0       0       0       0
       0       0       0       0       0       0       0       0       0       0
       0       0       0       0       0       0       0       0       0       0
       0       0       0       0       0       0       0       0       0       0
       0       0       0       0       0       0       0       0       0       0
       0       0       0       0       0       0       0       0       0       0
       0       0       0       0       0       0       0       0       0       0
       0       0       0       0       0       0       0       0       0       0
       0       0       0       0       0       0       0       0       0       0
       0       0       0       0       0       0       0       0       0       0
       0       0       0       0       0       0       0       0       0       0
       0       0       0       0       0       0       0       0       0       0
       0       0       0       0       0       0       0       0       0       0
       0       0       0       0       0       0       0       0       0       0
       0       0       0       0       0       0       0       0       0       0
       0       0       0       0       0       0       0       0       0       0
       0       0       0       0       0       0       0       0       0       0
       0       0       0       0       0       0       0       0       0       0
       0       0       0       0       0       0       0       0       0       0
       0       0       0       0       0       0       0       0       0       0
       0       0       0       0       0       0       0       0       0       0
       0       0       0       0       0       0       0       0       0       0
       0       0       0       0       0       0       0       0       0       0
       0       0       0       0       0       0       0       0       0       0
       0       0       0       0       0       0       0       0       0       0
       0       0       0       0       0       0       0       0       0       0
       0       0       0       0       0       0       0       0       0       0
       0       0       0       0       0       0       0       0       0       0
       0       0       0       0       0       0       0       0       0       0
       0       0       0       0       0       0       0       0       0       0
       0       0       0       0       0       0       0       0       0       0
       0       0       0       0       0       0       0       0       0       0
       0       0       0       0       0       0       0       0       0       0
       0       0       0       0       0       0       0       0       0       0
       0       0       0       0       0       0       0       0       0       0
       0       0       0       0       0       0       0       0       0       0
       0       0       0       0       0       0       0       0       0       0
       0       0       0       0       0       0       0       0       0       0
       0       0       0       0       0       0       0       0       0       0
       0       0       0       0       0       0       0       0       0       0
       0       0       0       0       0       0       0       0       0       0
       0       0       0       0       0       0       0       0       0       0
       0       0       0       0       0       0       0       0       0       0
       0       0       0       0       0       0       0       0       0       0
       0       0       0       0       0       0       0       0       0       0
       0       0       0       0       0       0       0       0       0       0
       0       0       0       0       0       0       0       0       0       0
       0       0       0       0       0       0       0       0       0       0
       0       0       0       0       0       0       0       0       0       0
       0       0       0       0       0       0       0       0       0       0
       0       0       0       0       0       0       0       0       0       0
       0       0       0       0       0       0       0       0       0       0
       0       0       0       0       0       0       0       0       0       0
       0       0       0       0       0       0       0       0       0       0
       0       0       0       0       0       0       0       0       0       0
       0       0       0       0       0       0       0       0       0       0
       0       0       0       0       0       0       0       0       0       0
       0       0       0       0       0       0       0       0       0       0
       0       0       0       0       0       0       0       0       0       0
       0       0       0       0       0       0       0       0       0       0
       0       0       0       0       0       0       0       0       0       0
       0       0       0       0       0       0       0       0       0       0
       0       0       0       0       0       0       0       0       0       0
       0       0       0       0       0       0       0       0       0       0
       0       0       0       0       0       0       0       0       0       0
       0       0       0       0       0       0       0       0       0       0
       0       0       0       0       0       0       0       0       0       0
       0       0       0       0       0       0       0       0       0       0
       0       0       0       0       0       0       0       0       0       0
       0       0       0       0       0       0       0       0       0       0
       0       0       0       0       0       0       0       0       0       0
       0       0       0       0       0       0       0       0       0       0
       0       0       0       0       0       0       0       0       0       0
       0       0       0       0       0       0       0       0       0       0
       0       0       0       0       0       0       0       0       0       0
       0       0       0       0       0       0       0       0       0       0
       0       0       0       0       0       0       0       0       0       0
       0       0       0       0       0       0       0       0       0       0
       0       0       0       0       0       0       0       0       0       0
       0       0       0       0       0       0       0       0       0       0
       0       0       0       0       0       0       0       0       0       0
       0       0       0       0       0       0       0       0       0       0
       0       0       0       0       0       0       0       0       0       0
       0       0       0       0       0       0       0       0       0       0
       0       0       0       0       0       0       0       0       0       0
       0       0       0       0       0       0       0       0       0       0
       0       0       0       0       0       0       0       0       0       0
       0       0       0       0       0       0       0       0       0       0
       0       0       0       0       0       0       0       0       0       0
       0       0       0       0       0       0       0       0       0       0
       0       0       0       0       0       0       0       0       0       0
       0       0       0       0       0       0       0       0       0       0
       0       0       0       0       0       0       0       0       0       0
       0       0       0       0       0       0       0       0       0       0
       0       0       0       0       0       0       0       0       0       0
       0       0       0       0       0       0       0       0       0       0
       0       0       0       0       0       0       0       0       0       0
       0       0       0       0       0       0       0       0       0       0
       0       0       0       0       0       0       0       0       0       0
       0       0       0       0       0       0       0       0       0       0
       0       0       0       0       0       0       0       0       0       0
       0       0       0       0       0       0       0       0       0       0
       0       0       0       0       0       0       0       0       0       0
       0       0       0       0       0       0       0       0       0       0
       0       0       0       0       0       0       0       0       0       0
       0       0       0       0       0       0       0       0       0       0
       0       0       0       0       0       0       0       0       0       0
       0       0       0       0       0       0       0       0       0       0
       0       0       0       0       0       0       0       0       0       0
       0       0       0       0       0       0       0       0       0       0
       0       0       0       0       0       0       0       0       0       0
       0       0       0       0       0       0       0       0       0       0
       0       0       0       0       0       0       0       0       0       0
       0       0       0       0       0       0       0       0       0       0
       0       0       0       0       0       0       0       0       0       0
       0       0       0       0       0       0       0       0       0       0
       0       0       0       0       0       0       0       0       0       0
       0       0       0       0       0       0       0       0       0       0
       0       0       0       0       0       0       0       0       0       0
       0       0       0       0       0       0       0       0       0       0
       0       0       0       0       0       0       0       0       0       0
       0       0       0       0       0       0       0       0       0       0
       0       0       0       0       0       0       0       0       0       0
       0       0       0       0       0       0       0       0       0       0
       0       0       0       0       0       0       0       0       0       0
       0       0       0       0       0       0       0       0       0       0
       0       0       0       0       0       0       0       0       0       0
       0       0       0       0       0       0       0       0       0       0
       0       0       0       0       0       0       0       0       0       0
       0       0       0       0       0       0       0       0       0       0
       0       0       0       0       0       0       0       0       0       0
       0       0       0       0       0       0       0       0       0       0
       0       0       0       0       0       0       0       0       0       0
       0       0       0       0       0       0       0       0       0       0
       0       0       0       0       0       0       0       0       0       0
       0       0       0       0       0       0       0       0       0       0
       0       0       0       0       0       0       0       0       0       0
       0       0       0       0       0       0       0       0       0       0
       0       0       0       0       0       0       0       0       0       0
       0       0       0       0       0       0       0       0       0       0
       0       0       0       0       0       0       0       0       0       0
       0       0       0       0       0       0       0       0       0       0
       0       0       0       0       0       0       0       0       0       0
       0       0       0       0       0       0       0       0       0       0
       0       0       0       0       0       0       0       0       0       0
       0       0       0       0       0       0       0       0       0       0
       0       0       0       0       0       0       0       0       0       0
       0       0       0       0       0       0       0       0       0       0
       0       0       0       0       0       0       0       0       0       0
       0       0       0       0       0       0       0       0       0       0
       0       0       0       0       0       0       0       0       0       0
       0       0       0       0       0       0       0       0       0       0
       0       0       0       0       0       0       0       0       0       0
       0       0       0       0       0       0       0       0       0       0
       0       0       0       0       0       0       0       0       0       0
       0       0       0       0       0       0       0       0       0       0
       0       0       0       0       0       0       0       0       0       0
       0       0       0       0       0       0       0       0       0       0
       0       0       0       0       0       0       0       0       0       0
       0       0       0       0       0       0       0       0       0       0
       0       0       0       0       0       0       0       0       0       0
       0       0       0       0       0       0       0       0       0       0
       0       0       0       0       0       0       0       0       0       0
       0       0       0       0       0       0       0       0       0       0
       0       0       0       0       0       0       0       0       0       0
       0       0       0       0       0       0       0       0       0       0
       0       0       0       0       0       0       0       0       0       0
       0       0       0       0       0       0       0       0       0       0
       0       0       0       0       0       0       0       0       0       0
       0       0       0       0       0       0       0       0       0       0
       0       0       0       0       0       0       0       0       0       0
       0       0       0       0       0       0       0       0       0       0
       0       0       0       0       0       0       0       0       0       0
       0       0       0       0       0       0       0       0       0       0
       0       0       0       0       0       0       0       0       0       0
       0       0       0       0       0       0       0       0       0       0
       0       0       0       0       0       0       0       0       0       0
       0       0       0       0       0       0       0       0       0       0
       0       0       0       0       0       0       0       0       0       0
       0       0       0       0       0       0       0       0       0       0
       0       0       0       0       0       0       0       0       0       0
       0       0       0       0       0       0       0       0       0       0
       0       0       0       0       0       0       0       0       0       0
       0       0       0       0       0       0       0       0       0       0
       0       0       0       0       0       0       0       0       0       0
       0       0       0       0       0       0       0       0       0       0
       0       0       0       0       0       0       0       0       0       0
       0       0       0       0       0       0       0       0       0       0
       0       0       0       0       0       0       0       0       0       0
       0       0       0       0       0       0       0       0       0       0
       0       0       0       0       0       0       0       0       0       0
       0       0       0       0       0       0       0       0       0       0
       0       0       0       0       0       0       0       0       0       0
       0       0       0       0       0       0       0       0       0       0
       0       0       0       0       0       0       0       0       0       0
       0       0       0       0       0       0       0       0       0       0
       0       0       0       0       0       0       0       0       0       0
       0       0       0       0       0       0       0       0       0       0
       0       0       0       0       0       0       0       0       0       0
       0       0       0       0       0       0       0       0       0       0
       0       0       0       0       0       0       0       0       0       0
       0       0       0       0       0       0       0       0       0       0
       0       0       0       0       0       0       0       0       0       0
       0       0       0       0       0       0       0       0       0       0
       0       0       0       0       0       0       0       0       0       0
       0       0       0       0       0       0       0       0       0       0
       0       0       0       0       0       0       0       0       0       0
       0       0       0       0       0       0       0       0       0       0
       0       0       0       0       0       0       0       0       0       0
       0       0       0       0       0       0       0       0       0       0
       0       0       0       0       0       0       0       0       0       0
       0       0       0       0       0       0       0       0       0       0
       0       0       0       0       0       0       0       0       0       0
       0       0       0       0       0       0       0       0       0       0
       0       0       0       0       0       0       0       0       0       0
       0       0       0       0       0       0       0       0       0       0
       0       0       0       0       0       0       0       0       0       0
       0       0       0       0       0       0       0       0       0       0
       0       0       0       0       0       0       0       0       0       0
       0       0       0       0       0       0       0       0       0       0
       0       0       0       0       0       0       0       0       0       0
       0       0       0       0       0       0       0       0       0       0
       0       0       0       0       0       0       0       0       0       0
       0       0       0       0       0       0       0       0       0       0
       0       0       0       0       0       0       0       0       0       0
       0       0       0       0       0       0       0       0       0       0
       0       0       0       0       0       0       0       0       0       0
       0       0       0       0       0       0       0       0       0       0
       0       0       0       0       0       0       0       0       0       0
       0       0       0       0       0       0       0       0       0       0
       0       0       0       0       0       0       0       0       0       0
       0       0       0       0       0       0       0       0       0       0
       0       0       0       0       0       0       0       0       0       0
       0       0       0       0       0       0       0       0       0       0
       0       0       0       0       0       0       0       0       0       0
       0       0       0       0       0       0       0       0       0       0
       0       0       0       0       0       0       0       0       0       0
       0       0       0       0       0       0       0       0       0       0
       0       0       0       0       0       0       0       0       0       0
       0       0       0       0       0       0       0       0       0       0
       0       0       0       0       0       0       0       0       0       0
       0       0       0       0       0       0       0       0       0       0
       0       0       0       0       0       0       0       0       0       0
       0       0       0       0       0       0       0       0       0       0
       0       0       0       0       0       0       0       0       0       0
       0       0       0       0       0       0       0       0       0       0
       0       0       0       0       0       0       0       0       0       0
       0       0       0       0       0       0       0       0       0       0
       0       0       0       0       0       0       0       0       0       0
       0       0       0       0       0       0       0       0       0       0
       0       0       0       0       0       0       0       0       0       0
       0       0       0       0       0       0       0       0       0       0
       0       0       0       0       0       0       0       0       0       0
       0       0       0       0       0       0       0       0       0       0
       0       0       0       0       0       0       0       0       0       0
       0       0       0       0       0       0       0       0       0       0
       0       0       0       0       0       0       0       0       0       0
       0       0       0       0       0       0       0       0       0       0
       0       0       0       0       0       0       0       0       0       0
       0       0       0       0       0       0       0       0       0       0
       0       0       0       0       0       0       0       0       0       0
       0       0       0       0       0       0       0       0       0       0
       0       0       0       0       0       0       0       0       0       0
       0       0       0       0       0       0       0       0       0       0
       0       0       0       0       0       0       0       0       0       0
       0       0       0       0       0       0       0       0       0       0
       0       0       0       0       0       0       0       0       0       0
       0       0       0       0       0       0       0       0       0       0
       0       0       0       0       0       0       0       0       0       0
       0       0       0       0       0       0       0       0       0       0
       0       0       0       0       0       0       0       0       0       0
       0       0       0       0       0       0       0       0       0       0
       0       0       0       0       0       0       0       0       0       0
       0       0       0       0       0       0       0       0       0       0
       0       0       0       0       0       0       0       0       0       0
       0       0       0       0       0       0       0       0       0       0
       0       0       0       0       0       0       0       0       0       0
       0       0       0       0       0       0       0       0       0       0
       0       0       0       0       0       0       0       0       0       0
       0       0       0       0       0       0       0       0       0       0
       0       0       0       0       0       0       0       0       0       0
       0       0       0       0       0       0       0       0       0       0
       0       0       0       0       0       0       0       0       0       0
       0       0       0       0       0       0       0       0       0       0
       0       0       0       0       0       0       0       0       0       0
       0       0       0       0       0       0       0       0       0       0
       0       0       0       0       0       0       0       0       0       0
       0       0       0       0       0       0       0       0       0       0
       0       0       0       0       0       0       0       0       0       0
       0       0       0       0       0       0       0       0       0       0
       0       0       0       0       0       0       0       0       0       0
       0       0       0       0       0       0       0       0       0       0
       0       0       0       0       0       0       0       0       0       0
       0       0       0       0       0       0       0       0       0       0
       0       0       0       0       0       0       0       0       0       0
       0       0       0       0       0       0       0       0       0       0
       0       0       0       0       0       0       0       0       0       0
       0       0       0       0       0       0       0       0       0       0
       0       0       0       0       0       0       0       0       0       0
       0       0       0       0       0       0       0       0       0       0
       0       0       0       0       0       0       0       0       0       0
       0       0       0       0       0       0       0       0       0       0
       0       0       0       0       0       0       0       0       0       0
       0       0       0       0       0       0       0       0       0       0
       0       0       0       0       0       0       0       0       0       0
       0       0       0       0       0       0       0       0       0       0
       0       0       0       0       0       0       0       0       0       0
       0       0       0       0       0       0       0       0       0       0
       0       0       0       0       0       0       0       0       0       0
       0       0       0       0       0       0       0       0       0       0
       0       0       0       0       0       0       0       0       0       0
       0       0       0       0       0       0       0       0       0       0
       0       0       0       0       0       0       0       0       0       0
       0       0       0       0       0       0       0       0       0       0
       0       0       0       0       0       0       0       0       0       0
       0       0       0       0       0       0       0       0       0       0
       0       0       0       0       0       0       0       0       0       0
       0       0       0       0       0       0       0       0       0       0
       0       0       0       0       0       0       0       0       0       0
       0       0       0       0       0       0       0       0       0       0
       0       0       0       0       0       0       0       0       0       0
       0       0       0       0       0       0       0       0       0       0
       0       0       0       0       0       0       0       0       0       0
       0       0       0       0       0       0       0       0       0       0
       0       0       0       0       0       0       0       0       0       0
       0       0       0       0       0       0       0       0       0       0
       0       0       0       0       0       0       0       0       0       0
       0       0       0       0       0       0       0       0       0       0
       0       0       0       0       0       0       0       0       0       0
       0       0       0       0       0       0       0       0       0       0
       0       0       0       0       0       0       0       0       0       0
       0       0       0       0       0       0       0       0       0       0
       0       0       0       0       0       0       0       0       0       0
       0       0       0       0       0       0       0       0       0       0
       0       0       0       0       0       0       0       0       0       0
       0       0       0       0       0       0       0       0       0       0
       0       0       0       0       0       0       0       0       0       0
       0       0       0       0       0       0       0       0       0       0
       0       0       0       0       0       0       0       0       0       0
       0       0       0       0       0       0       0       0       0       0
       0       0       0       0       0       0       0       0       0       0
       0       0       0       0       0       0       0       0       0       0
       0       0       0       0       0       0       0       0       0       0
       0       0       0       0       0       0       0       0       0       0
       0       0       0       0       0       0       0       0       0       0
       0       0       0       0       0       0       0       0       0       0
       0       0       0       0       0       0       0       0       0       0
       0       0       0       0       0       0       0       0       0       0
       0       0       0       0       0       0       0       0       0       0
       0       0       0       0       0       0       0       0       0       0
       0       0       0       0       0       0       0       0       0       0
       0       0       0       0       0       0       0       0       0       0
       0       0       0       0       0       0       0       0       0       0
       0       0       0       0       0       0       0       0       0       0
       0       0       0       0       0       0       0       0       0       0
       0       0       0       0       0       0       0       0       0       0
       0       0       0       0       0       0       0       0       0       0
       0       0       0       0       0       0       0       0       0       0
       0       0       0       0       0       0       0       0       0       0
       0       0       0       0       0       0       0       0       0       0
       0       0       0       0       0       0       0       0       0       0
       0       0       0       0       0       0       0       0       0       0
       0       0       0       0       0       0       0       0       0       0
       0       0       0       0       0       0       0       0       0       0
       0       0       0       0       0       0       0       0       0       0
       0       0       0       0       0       0       0       0       0       0
       0       0       0       0       0       0       0       0       0       0
       0       0       0       0       0       0       0       0       0       0
       0       0       0       0       0       0       0       0       0       0
       0       0       0       0       0       0       0       0       0       0
       0       0       0       0       0       0       0       0       0       0
       0       0       0       0       0       0       0       0       0       0
       0       0       0       0       0       0       0       0       0       0
       0       0       0       0       0       0       0       0       0       0
       0       0       0       0       0       0       0       0       0       0
       0       0       0       0       0       0       0       0       0       0
       0       0       0       0       0       0       0       0       0       0
       0       0       0       0       0       0       0       0       0       0
       0       0       0       0       0       0       0       0       0       0
       0       0       0       0       0       0       0       0       0       0
       0       0       0       0       0       0       0       0       0       0
       0       0       0       0       0       0       0       0       0       0
       0       0       0       0       0       0       0       0       0       0
       0       0       0       0       0       0       0       0       0       0
       0       0       0       0       0       0       0       0       0       0
       0       0       0       0       0       0       0       0       0       0
       0       0       0       0       0       0       0       0       0       0
       0       0       0       0       0       0       0       0       0       0
       0       0       0       0       0       0       0       0       0       0
       0       0       0       0       0       0       0       0       0       0
       0       0       0       0       0       0       0       0       0       0
       0       0       0       0       0       0       0       0       0       0
       0       0       0       0       0       0       0       0       0       0
       0       0       0       0       0       0       0       0       0       0
       0       0       0       0       0       0       0       0       0       0
       0       0       0       0       0       0       0       0       0       0
       0       0       0       0       0       0       0       0       0       0
       0       0       0       0       0       0       0       0       0       0
       0       0       0       0       0       0       0       0       0       0
       0       0       0       0       0       0       0       0       0       0
       0       0       0       0       0       0       0       0       0       0
       0       0       0       0       0       0       0       0       0       0
       0       0       0       0       0       0       0       0       0       0
       0       0       0       0       0       0       0       0       0       0
       0       0       0       0       0       0       0       0       0       0
       0       0       0       0       0       0       0       0       0       0
       0       0       0       0       0       0       0       0       0       0
       0       0       0       0       0       0       0       0       0       0
       0       0       0       0       0       0       0       0       0       0
       0       0       0       0       0       0       0       0       0       0
       0       0       0       0       0       0       0       0       0       0
       0       0       0       0       0       0       0       0       0       0
       0       0       0       0       0       0       0       0       0       0
       0       0       0       0       0       0       0       0       0       0
       0       0       0       0       0       0       0       0       0       0
       0       0       0       0       0       0       0       0       0       0
       0       0       0       0       0       0       0       0       0       0
       0       0       0       0       0       0       0       0       0       0
       0       0       0       0       0       0       0       0       0       0
       0       0       0       0       0       0       0       0       0       0
       0       0       0       0       0       0       0       0       0       0
       0       0       0       0       0       0       0       0       0       0
       0       0       0       0       0       0       0       0       0       0
       0       0       0       0       0       0       0       0       0       0
       0       0       0       0       0       0       0       0       0       0
       0       0       0       0       0       0       0       0       0       0
       0       0       0       0       0       0       0       0       0       0
       0       0       0       0       0       0       0       0       0       0
       0       0       0       0       0       0       0       0       0       0
       0       0       0       0       0       0       0       0       0       0
       0       0       0       0       0       0       0       0       0       0
       0       0       0       0       0       0       0       0       0       0
       0       0       0       0       0       0       0       0       0       0
       0       0       0       0       0       0       0       0       0       0
       0       0       0       0       0       0       0       0       0       0
       0       0       0       0       0       0       0       0       0       0
       0       0       0       0       0       0       0       0       0       0
       0       0       0       0       0       0       0       0       0       0
       0       0       0       0       0       0       0       0       0       0
       0       0       0       0       0       0       0       0       0       0
       0       0       0       0       0       0       0       0       0       0
       0       0       0       0       0       0       0       0       0       0
       0       0       0       0       0       0       0       0       0       0
       0       0       0       0       0       0       0       0       0       0
       0       0       0       0       0       0       0       0       0       0
       0       0       0       0       0       0       0       0       0       0
       0       0       0       0       0       0       0       0       0       0
       0       0       0       0       0       0       0       0       0       0
       0       0       0       0       0       0       0       0       0       0
       0       0       0       0       0       0       0       0       0       0
       0       0       0       0       0       0       0       0       0       0
       0       0       0       0       0       0       0       0       0       0
       0       0       0       0       0       0       0       0       0       0
       0       0       0       0       0       0       0       0       0       0
       0       0       0       0       0       0       0       0       0       0
       0       0       0       0       0       0       0       0       0       0
       0       0       0       0       0       0       0       0       0       0
       0       0       0       0       0       0       0       0       0       0
       0       0       0       0       0       0       0       0       0       0
       0       0       0       0       0       0       0       0       0       0
       0       0       0       0       0       0       0       0       0       0
       0       0       0       0       0       0       0       0       0       0
       0       0       0       0       0       0       0       0       0       0
       0       0       0       0       0       0       0       0       0       0
       0       0       0       0       0       0       0       0       0       0
       0       0       0       0       0       0       0       0       0       0
       0       0       0       0       0       0       0       0       0       0
       0       0       0       0       0       0       0       0       0       0
       0       0       0       0       0       0       0       0       0       0
       0       0       0       0       0       0       0       0       0       0
       0       0       0       0       0       0       0       0       0       0
       0       0       0       0       0       0       0       0       0       0
       0       0       0       0       0       0       0       0       0       0
       0       0       0       0       0       0       0       0       0       0
       0       0       0       0       0       0       0       0       0       0
       0       0       0       0       0       0       0       0       0       0
       0       0       0       0       0       0       0       0       0       0
       0       0       0       0       0       0       0       0       0       0
       0       0       0       0       0       0       0       0       0       0
       0       0       0       0       0       0       0       0       0       0
       0       0       0       0       0       0       0       0       0       0
       0       0       0       0       0       0       0       0       0       0
       0       0       0       0       0       0       0       0       0       0
       0       0       0       0       0       0       0       0       0       0
       0       0       0       0       0       0       0       0       0       0
       0       0       0       0       0       0       0       0       0       0
       0       0       0       0       0       0       0       0       0       0
       0       0       0       0       0       0       0       0       0       0
       0       0       0       0       0       0       0       0       0       0
       0       0       0       0       0       0       0       0       0       0
       0       0       0       0       0       0       0       0       0       0
       0       0       0       0       0       0       0       0       0       0
       0       0       0       0       0       0       0       0       0       0
       0       0       0       0       0       0       0       0       0       0
       0       0       0       0       0       0       0       0       0       0
       0       0       0       0       0       0       0       0       0       0
       0       0       0       0       0       0       0       0       0       0
       0       0       0       0       0       0       0       0       0       0
       0       0       0       0       0       0       0       0       0       0
       0       0       0       0       0       0       0       0       0       0
       0       0       0       0       0       0       0       0       0       0
       0       0       0       0       0       0       0       0       0       0
       0       0       0       0       0       0       0       0       0       0
       0       0       0       0       0       0       0       0       0       0
       0       0       0       0       0       0       0       0       0       0
       0       0       0       0       0       0       0       0       0       0
       0       0       0       0       0       0       0       0       0       0
       0       0       0       0       0       0       0       0       0       0
       0       0       0       0       0       0       0       0       0       0
       0       0       0       0       0       0       0       0       0       0
       0       0       0       0       0       0       0       0       0       0
       0       0       0       0       0       0       0       0       0       0
       0       0       0       0       0       0       0       0       0       0
       0       0       0       0       0       0       0       0       0       0
       0       0       0       0       0       0       0       0       0       0
       0       0       0       0       0       0       0       0       0       0
       0       0       0       0       0       0       0       0       0       0
       0       0       0       0       0       0       0       0       0       0
       0       0       0       0       0       0       0       0       0       0
       0       0       0       0       0       0       0       0       0       0
       0       0       0       0       0       0       0       0       0       0
       0       0       0       0       0       0       0       0       0       0
       0       0       0       0       0       0       0       0       0       0
       0       0       0       0       0       0       0       0       0       0
       0       0       0       0       0       0       0       0       0       0
       0       0       0       0       0       0       0       0       0       0
       0       0       0       0       0       0       0       0       0       0
       0       0       0       0       0       0       0       0       0       0
       0       0       0       0       0       0       0       0       0       0
       0       0       0       0       0       0       0       0       0       0
       0       0       0       0       0       0       0       0       0       0
       0       0       0       0       0       0       0       0       0       0
       0       0       0       0       0       0       0       0       0       0
       0       0       0       0       0       0       0       0       0       0
       0       0       0       0       0       0       0       0       0       0
       0       0       0       0       0       0       0       0       0       0
       0       0       0       0       0       0       0       0       0       0
       0       0       0       0       0       0       0       0       0       0
       0       0       0       0       0       0       0       0       0       0
       0       0       0       0       0       0       0       0       0       0
       0       0       0       0       0       0       0       0       0       0
       0       0       0       0       0       0       0       0       0       0
       0       0       0       0       0       0       0       0       0       0
       0       0       0       0       0       0       0       0       0       0
       0       0       0       0       0       0       0       0       0       0
       0       0       0       0       0       0       0       0       0       0
       0       0       0       0       0       0       0       0       0       0
       0       0       0       0       0       0       0       0       0       0
       0       0       0       0       0       0       0       0       0       0
       0       0       0       0       0       0       0       0       0       0
       0       0       0       0       0       0       0       0       0       0
       0       0       0       0       0       0       0       0       0       0
       0       0       0       0       0       0       0       0       0       0
       0       0       0       0       0       0       0       0       0       0
       0       0       0       0       0       0       0       0       0       0
       0       0       0       0       0       0       0       0       0       0
       0       0       0       0       0       0       0       0       0       0
       0       0       0       0       0       0       0       0       0       0
       0       0       0       0       0       0       0       0       0       0
       0       0       0       0       0       0       0       0       0       0
       0       0       0       0       0       0       0       0       0       0
       0       0       0       0       0       0       0       0       0       0
       0       0       0       0       0       0       0       0       0       0
       0       0       0       0       0       0       0       0       0       0
       0       0       0       0       0       0       0       0       0       0
       0       0       0       0       0       0       0       0       0       0
       0       0       0       0       0       0       0       0       0       0
       0       0       0       0       0       0       0       0       0       0
       0       0       0       0       0       0       0       0       0       0
       0       0       0       0       0       0       0       0       0       0
       0       0       0       0       0       0       0       0       0       0
       0       0       0       0       0       0       0       0       0       0
       0       0       0       0       0       0       0       0       0       0
       0       0       0       0       0       0       0       0       0       0
       0       0       0       0       0       0       0       0       0       0
       0       0       0       0       0       0       0       0       0       0
       0       0       0       0       0       0       0       0       0       0
       0       0       0       0       0       0       0       0       0       0
       0       0       0       0       0       0       0       0       0       0
       0       0       0       0       0       0       0       0       0       0
       0       0       0       0       0       0       0       0       0       0
       0       0       0       0       0       0       0       0       0       0
       0       0       0       0       0       0       0       0       0       0
       0       0       0       0       0       0       0       0       0       0
       0       0       0       0       0       0       0       0       0       0
       0       0       0       0       0       0       0       0       0       0
       0       0       0       0       0       0       0       0       0       0
       0       0       0       0       0       0       0       0       0       0
       0       0       0       0       0       0       0       0       0       0
       0       0       0       0       0       0       0       0       0       0
       0       0       0       0       0       0       0       0       0       0
       0       0       0       0       0       0       0       0       0       0
       0       0       0       0       0       0       0       0       0       0
       0       0       0       0       0       0       0       0       0       0
       0       0       0       0       0       0       0       0       0       0
       0       0       0       0       0       0       0       0       0       0
       0       0       0       0       0       0       0       0       0       0
       0       0       0       0       0       0       0       0       0       0
       0       0       0       0       0       0       0       0       0       0
       0       0       0       0       0       0       0       0       0       0
       0       0       0       0       0       0       0       0       0       0
       0       0       0       0       0       0       0       0       0       0
       0       0       0       0       0       0       0       0       0       0
       0       0       0       0       0       0       0       0       0       0
       0       0       0       0       0       0       0       0       0       0
       0       0       0       0       0       0       0       0       0       0
       0       0       0       0       0       0       0       0       0       0
       0       0       0       0       0       0       0       0       0       0
       0       0       0       0       0       0       0       0       0       0
       0       0       0       0       0       0       0       0       0       0
       0       0       0       0       0       0       0       0       0       0
       0       0       0       0       0       0       0       0       0       0
       0       0       0       0       0       0       0       0       0       0
       0       0       0       0       0       0       0       0       0       0
       0       0       0       0       0       0       0       0       0       0
       0       0       0       0       0       0       0       0       0       0
       0       0       0       0       0       0       0       0       0       0
       0       0       0       0       0       0       0       0       0       0
       0       0       0       0       0       0       0       0       0       0
       0       0       0       0       0       0       0       0       0       0
       0       0       0       0       0       0       0       0       0       0
       0       0       0       0       0       0       0       0       0       0
       0       0       0       0       0       0       0       0       0       0
       0       0       0       0       0       0       0       0       0       0
       0       0       0       0       0       0       0       0       0       0
       0       0       0       0       0       0       0       0       0       0
       0       0       0       0       0       0       0       0       0       0
       0       0       0       0       0       0       0       0       0       0
       0       0       0       0       0       0       0       0       0       0
       0       0       0       0       0       0       0       0       0       0
       0       0       0       0       0       0       0       0       0       0
       0       0       0       0       0       0       0       0       0       0
       0       0       0       0       0       0       0       0       0       0
       0       0       0       0       0       0       0       0       0       0
       0       0       0       0       0       0       0       0       0       0
       0       0       0       0       0       0       0       0       0       0
       0       0       0       0       0       0       0       0       0       0
       0       0       0       0       0       0       0       0       0       0
       0       0       0       0       0       0       0       0       0       0
       0       0       0       0       0       0       0       0       0       0
       0       0       0       0       0       0       0       0       0       0
       0       0       0       0       0       0       0       0       0       0
       0       0       0       0       0       0       0       0       0       0
       0       0       0       0       0       0       0       0       0       0
       0       0       0       0       0       0       0       0       0       0
       0       0       0       0       0       0       0       0       0       0
       0       0       0       0       0       0       0       0       0       0
       0       0       0       0       0       0       0       0       0       0
       0       0       0       0       0       0       0       0       0       0
       0       0       0       0       0       0       0       0       0       0
       0       0       0       0       0       0       0       0       0       0
       0       0       0       0       0       0       0       0       0       0
       0       0       0       0       0       0       0       0       0       0
       0       0       0       0       0       0       0       0       0       0
       0       0       0       0       0       0       0       0       0       0
       0       0       0       0       0       0       0       0       0       0
       0       0       0       0       0       0       0       0       0       0
       0       0       0       0       0       0       0       0       0       0
       0       0       0       0       0       0       0       0       0       0
       0       0       0       0       0       0       0       0       0       0
       0       0       0       0       0       0       0       0       0       0
       0       0       0       0       0       0       0       0       0       0
       0       0       0       0       0       0       0       0       0       0
       0       0       0       0       0       0       0       0       0       0
       0       0       0       0       0       0       0       0       0       0
       0       0       0       0       0       0       0       0       0       0
       0       0       0       0       0       0       0       0       0       0
       0       0       0       0       0       0       0       0       0       0
       0       0       0       0       0       0       0       0       0       0
       0       0       0       0       0       0       0       0       0       0
       0       0       0       0       0       0       0       0       0       0
       0       0       0       0       0       0       0       0       0       0
       0       0       0       0       0       0       0       0       0       0
       0       0       0       0       0       0       0       0       0       0
       0       0       0       0       0       0       0       0       0       0
       0       0       0       0       0       0       0       0       0       0
       0       0       0       0       0       0       0       0       0       0
       0       0       0       0       0       0       0       0       0       0
       0       0       0       0       0       0       0       0       0       0
       0       0       0       0       0       0       0       0       0       0
       0       0       0       0       0       0       0       0       0       0
       0       0       0       0       0       0       0       0       0       0
       0       0       0       0       0       0       0       0       0       0
       0       0       0       0       0       0       0       0       0       0
       0       0       0       0       0       0       0       0       0       0
       0       0       0       0       0       0       0       0       0       0
       0       0       0       0       0       0       0       0       0       0
       0       0       0       0       0       0       0       0       0       0
       0       0       0       0       0       0       0       0       0       0
       0       0       0       0       0       0       0       0       0       0
       0       0       0       0       0       0       0       0       0       0
       0       0       0       0       0       0       0       0       0       0
       0       0       0       0       0       0       0       0       0       0
       0       0       0       0       0       0       0       0       0       0
       0       0       0       0       0       0       0       0       0       0
       0       0       0       0       0       0       0       0       0       0
       0       0       0       0       0       0       0       0       0       0
       0       0       0       0       0       0       0       0       0       0
       0       0       0       0       0       0       0       0       0       0
       0       0       0       0       0       0       0       0       0       0
       0       0       0       0       0       0       0       0       0       0
       0       0       0       0       0       0       0       0       0       0
       0       0       0       0       0       0       0       0       0       0
       0       0       0       0       0       0       0       0       0       0
       0       0       0       0       0       0       0       0       0       0
       0       0       0       0       0       0       0       0       0       0
       0       0       0       0       0       0       0       0       0       0
       0       0       0       0       0       0       0       0       0       0
       0       0       0       0       0       0       0       0       0       0
       0       0       0       0       0       0       0       0       0       0
       0       0       0       0       0       0       0       0       0       0
       0       0       0       0       0       0       0       0       0       0
       0       0       0       0       0       0       0       0       0       0
       0       0       0       0       0       0       0       0       0       0
       0       0       0       0       0       0       0       0       0       0
       0       0       0       0       0       0       0       0       0       0
       0       0       0       0       0       0       0       0       0       0
       0       0       0       0       0       0       0       0       0       0
       0       0       0       0       0       0       0       0       0       0
       0       0       0       0       0       0       0       0       0       0
       0       0       0       0       0       0       0       0       0       0
       0       0       0       0       0       0       0       0       0       0
       0       0       0       0       0       0       0       0       0       0
       0       0       0       0       0       0       0       0       0       0
       0       0       0       0       0       0       0       0       0       0
       0       0       0       0       0       0       0       0       0       0
       0       0       0       0       0       0       0       0       0       0
       0       0       0       0       0       0       0       0       0       0
       0       0       0       0       0       0       0       0       0       0
       0       0       0       0       0       0       0       0       0       0
       0       0       0       0       0       0       0       0       0       0
       0       0       0       0       0       0       0       0       0       0
       0       0       0       0       0       0       0       0       0       0
       0       0       0       0       0       0       0       0       0       0
       0       0       0       0       0       0       0       0       0       0
       0       0       0       0       0       0       0       0       0       0
       0       0       0       0       0       0       0       0       0       0
       0       0       0       0       0       0       0       0       0       0
       0       0       0       0       0       0       0       0       0       0
       0       0       0       0       0       0       0       0       0       0
       0       0       0       0       0       0       0       0       0       0
       0       0       0       0       0       0       0       0       0       0
       0       0       0       0       0       0       0       0       0       0
       0       0       0       0       0       0       0       0       0       0
       0       0       0       0       0       0       0       0       0       0
       0       0       0       0       0       0       0       0       0       0
       0       0       0       0       0       0       0       0       0       0
       0       0       0       0       0       0       0       0       0       0
       0       0       0       0       0       0       0       0       0       0
       0       0       0       0       0       0       0       0       0       0
       0       0       0       0       0       0       0       0       0       0
       0       0       0       0       0       0       0       0       0       0
       0       0       0       0       0       0       0       0       0       0
       0       0       0       0       0       0       0       0       0       0
       0       0       0       0       0       0       0       0       0       0
       0       0       0       0       0       0       0       0       0       0
       0       0       0       0       0       0       0       0       0       0
       0       0       0       0       0       0       0       0       0       0
       0       0       0       0       0       0       0       0       0       0
       0       0       0       0       0       0       0       0       0       0
       0       0       0       0       0       0       0       0       0       0
       0       0       0       0       0       0       0       0       0       0
       0       0       0       0       0       0       0       0       0       0
       0       0       0       0       0       0       0       0       0       0
       0       0       0       0       0       0       0       0       0       0
       0       0       0       0       0       0       0       0       0       0
       0       0       0       0       0       0       0       0       0       0
       0       0       0       0       0       0       0       0       0       0
       0       0       0       0       0       0       0       0       0       0
       0       0       0       0       0       0       0       0       0       0
       0       0       0       0       0       0       0       0       0       0
       0       0       0       0       0       0       0       0       0       0
       0       0       0       0       0       0       0       0       0       0
       0       0       0       0       0       0       0       0       0       0
       0       0       0       0       0       0       0       0       0       0
       0       0       0       0       0       0       0       0       0       0
       0       0       0       0       0       0       0       0       0       0
       0       0       0       0       0       0       0       0       0       0
       0       0       0       0       0       0       0       0       0       0
       0       0       0       0       0       0       0       0       0       0
       0       0       0       0       0       0       0       0       0       0
       0       0       0       0       0       0       0       0       0       0
       0       0       0       0       0       0       0       0       0       0
       0       0       0       0       0       0       0       0       0       0
       0       0       0       0       0       0       0       0       0       0
       0       0       0       0       0       0       0       0       0       0
       0       0       0       0       0       0       0       0       0       0
       0       0       0       0       0       0       0       0       0       0
       0       0       0       0       0       0       0       0       0       0
       0       0       0       0       0       0       0       0       0       0
       0       0       0       0       0       0       0       0       0       0
       0       0       0       0       0       0       0       0       0       0
       0       0       0       0       0       0       0       0       0       0
       0       0       0       0       0       0       0       0       0       0
       0       0       0       0       0       0       0       0       0       0
       0       0       0       0       0       0       0       0       0       0
       0       0       0       0       0       0       0       0       0       0
       0       0       0       0       0       0       0       0       0       0
       0       0       0       0       0       0       0       0       0       0
       0       0       0       0       0       0       0       0       0       0
       0       0       0       0       0       0       0       0       0       0
       0       0       0       0       0       0       0       0       0       0
       0       0       0       0       0       0       0       0       0       0
       0       0       0       0       0       0       0       0       0       0
       0       0       0       0       0       0       0       0       0       0
       0       0       0       0       0       0       0       0       0       0
       0       0       0       0       0       0       0       0       0       0
       0       0       0       0       0       0       0       0       0       0
       0       0       0       0       0       0       0       0       0       0
       0       0       0       0       0       0       0       0       0       0
       0       0       0       0       0       0       0       0       0       0
       0       0       0       0       0       0       0       0       0       0
       0       0       0       0       0       0       0       0       0       0
       0       0       0       0       0       0       0       0       0       0
       0       0       0       0       0       0       0       0       0       0
       0       0       0       0       0       0       0       0       0       0
       0       0       0       0       0       0       0       0       0       0
       0       0       0       0       0       0       0       0       0       0
       0       0       0       0       0       0       0       0       0       0
       0       0       0       0       0       0       0       0       0       0
       0       0       0       0       0       0       0       0       0       0
       0       0       0       0       0       0       0       0       0       0
       0       0       0       0       0       0       0       0       0       0
       0       0       0       0       0       0       0       0       0       0
       0       0       0       0       0       0       0       0       0       0
       0       0       0       0       0       0       0       0       0       0
       0       0       0       0       0       0       0       0       0       0
       0       0       0       0       0       0       0       0       0       0
       0       0       0       0       0       0       0       0       0       0
       0       0       0       0       0       0       0       0       0       0
       0       0       0       0       0       0       0       0       0       0
       0       0       0       0       0       0       0       0       0       0
       0       0       0       0       0       0       0       0       0       0
       0       0       0       0       0       0       0       0       0       0
       0       0       0       0       0       0       0       0       0       0
       0       0       0       0       0       0       0       0       0       0
       0       0       0       0       0       0       0       0       0       0
       0       0       0       0       0       0       0       0       0       0
       0       0       0       0       0       0       0       0       0       0
       0       0       0       0       0       0       0       0       0       0
       0       0       0       0       0       0       0       0       0       0
       0       0       0       0       0       0       0       0       0       0
       0       0       0       0       0       0       0       0       0       0
       0       0       0       0       0       0       0       0       0       0
       0       0       0       0       0       0       0       0       0       0
       0       0       0       0       0       0       0       0       0       0
       0       0       0       0       0       0       0       0       0       0
       0       0       0       0       0       0       0       0       0       0
       0       0       0       0       0       0       0       0       0       0
       0       0       0       0       0       0       0       0       0       0
       0       0       0       0       0       0       0       0       0       0
       0       0       0       0       0       0       0       0       0       0
       0       0       0       0       0       0       0       0       0       0
       0       0       0       0       0       0       0       0       0       0
       0       0       0       0       0       0       0       0       0       0
       0       0       0       0       0       0       0       0       0       0
       0       0       0       0       0       0       0       0       0       0
       0       0       0       0       0       0       0       0       0       0
       0       0       0       0       0       0       0       0       0       0
       0       0       0       0       0       0       0       0       0       0
       0       0       0       0       0       0       0       0       0       0
       0       0       0       0       0       0       0       0       0       0
       0       0       0       0       0       0       0       0       0       0
       0       0       0       0       0       0       0       0       0       0
       0       0       0       0       0       0       0       0       0       0
       0       0       0       0       0       0       0       0       0       0
       0       0       0       0       0       0       0       0       0       0
       0       0       0       0       0       0       0       0       0       0
       0       0       0       0       0       0       0       0       0       0
       0       0       0       0       0       0       0       0       0       0
       0       0       0       0       0       0       0       0       0       0
       0       0       0       0       0       0       0       0       0       0
       0       0       0       0       0       0       0       0       0       0
       0       0       0       0       0       0       0       0       0       0
       0       0       0       0       0       0       0       0       0       0
       0       0       0       0       0       0       0       0       0       0
       0       0       0       0       0       0       0       0       0       0
       0       0       0       0       0       0       0       0       0       0
       0       0       0       0       0       0       0       0       0       0
       0       0       0       0       0       0       0       0       0       0
       0       0       0       0       0       0       0       0       0       0
       0       0       0       0       0       0       0       0       0       0
       0       0       0       0       0       0       0       0       0       0
       0       0       0       0       0       0       0       0       0       0
       0       0       0       0       0       0       0       0       0       0
       0       0       0       0       0       0       0       0       0       0
       0       0       0       0       0       0       0       0       0       0
       0       0       0       0       0       0       0       0       0       0
       0       0       0       0       0       0       0       0       0       0
       0       0       0       0       0       0       0       0       0       0
       0       0       0       0       0       0       0       0       0       0
       0       0       0       0       0       0       0       0       0       0
       0       0       0       0       0       0       0       0       0       0
       0       0       0       0       0       0       0       0       0       0
       0       0       0       0       0       0       0       0       0       0
       0       0       0       0       0       0       0       0       0       0
       0       0       0       0       0       0       0       0       0       0
       0       0       0       0       0       0       0       0       0       0
       0       0       0       0       0       0       0       0       0       0
       0       0       0       0       0       0       0       0       0       0
       0       0       0       0       0       0       0       0       0       0
       0       0       0       0       0       0       0       0       0       0
       0       0       0       0       0       0       0       0       0       0
       0       0       0       0       0       0       0       0       0       0
       0       0       0       0       0       0       0       0       0       0
       0       0       0       0       0       0       0       0       0       0
       0       0       0       0       0       0       0       0       0       0
       0       0       0       0       0       0       0       0       0       0
       0       0       0       0       0       0       0       0       0       0
       0       0       0       0       0       0       0       0       0       0
       0       0       0       0       0       0       0       0       0       0
       0       0       0       0       0       0       0       0       0       0
       0       0       0       0       0       0       0       0       0       0
       0       0       0       0       0       0       0       0       0       0
       0       0       0       0       0       0       0       0       0       0
       0       0       0       0       0       0       0       0       0       0
       0       0       0       0       0       0       0       0       0       0
       0       0       0       0       0       0       0       0       0       0
       0       0       0       0       0       0       0       0       0       0
       0       0       0       0       0       0       0       0       0       0
       0       0       0       0       0       0       0       0       0       0
       0       0       0       0       0       0       0       0       0       0
       0       0       0       0       0       0       0       0       0       0
       0       0       0       0       0       0       0       0       0       0
       0       0       0       0       0       0       0       0       0       0
       0       0       0       0       0       0       0       0       0       0
       0       0       0       0       0       0       0       0       0       0
       0       0       0       0       0       0       0       0       0       0
       0       0       0       0       0       0       0       0       0       0
       0       0       0       0       0       0       0       0       0       0
       0       0       0       0       0       0       0       0       0       0
       0       0       0       0       0       0       0       0       0       0
       0       0       0       0       0       0       0       0       0       0
       0       0       0       0       0       0       0       0       0       0
       0       0       0       0       0       0       0       0       0       0
       0       0       0       0       0       0       0       0       0       0
       0       0       0       0       0       0       0       0       0       0
       0       0       0       0       0       0       0       0       0       0
       0       0       0       0       0       0       0       0       0       0
       0       0       0       0       0       0       0       0       0       0
       0       0       0       0       0       0       0       0       0       0
       0       0       0       0       0       0       0       0       0       0
       0       0       0       0       0       0       0       0       0       0
       0       0       0       0       0       0       0       0       0       0
       0       0       0       0       0       0       0       0       0       0
       0       0       0       0       0       0       0       0       0       0
       0       0       0       0       0       0       0       0       0       0
       0       0       0       0       0       0       0       0       0       0
       0       0       0       0       0       0       0       0       0       0
       0       0       0       0       0       0       0       0       0       0
       0       0       0       0       0       0       0       0       0       0
       0       0       0       0       0       0       0       0       0       0
       0       0       0       0       0       0       0       0       0       0
       0       0       0       0       0       0       0       0       0       0
       0       0       0       0       0       0       0       0       0       0
       0       0       0       0       0       0       0       0       0       0
       0       0       0       0       0       0       0       0       0       0
       0       0       0       0       0       0       0       0       0       0
       0       0       0       0       0       0       0       0       0       0
       0       0       0       0       0       0       0       0       0       0
       0       0       0       0       0       0       0       0       0       0
       0       0       0       0       0       0       0       0       0       0
       0       0       0       0       0       0       0       0       0       0
       0       0       0       0       0       0       0       0       0       0
       0       0       0       0       0       0       0       0       0       0
       0       0       0       0       0       0       0       0       0       0
       0       0       0       0       0       0       0       0       0       0
       0       0       0       0       0       0       0       0       0       0
       0       0       0       0       0       0       0       0       0       0
       0       0       0       0       0       0       0       0       0       0
       0       0       0       0       0       0       0       0       0       0
       0       0       0       0       0       0       0       0       0       0
       0       0       0       0       0       0       0       0       0       0
       0       0       0       0       0       0       0       0       0       0
       0       0       0       0       0       0       0       0       0       0
       0       0       0       0       0       0       0       0       0       0
       0       0       0       0       0       0       0       0       0       0
       0       0       0       0       0       0       0       0       0       0
       0       0       0       0       0       0       0       0       0       0
       0       0       0       0       0       0       0       0       0       0
       0       0       0       0       0       0       0       0       0       0
       0       0       0       0       0       0       0       0       0       0
       0       0       0       0       0       0       0       0       0       0
       0       0       0       0       0       0       0       0       0       0
       0       0       0       0       0       0       0       0       0       0
       0       0       0       0       0       0       0       0       0       0
       0       0       0       0       0       0       0       0       0       0
       0       0       0       0       0       0       0       0       0       0
       0       0       0       0       0       0       0       0       0       0
       0       0       0       0       0       0       0       0       0       0
       0       0       0       0       0       0       0       0       0       0
       0       0       0       0       0       0       0       0       0       0
       0       0       0       0       0       0       0       0       0       0
       0       0       0       0       0       0       0       0       0       0
       0       0       0       0       0       0       0       0       0       0
       0       0       0       0       0       0       0       0       0       0
       0       0       0       0       0       0       0       0       0       0
       0       0       0       0       0       0       0       0       0       0
       0       0       0       0       0       0       0       0       0       0
       0       0       0       0       0       0       0       0       0       0
       0       0       0       0       0       0       0       0       0       0
       0       0       0       0       0       0       0       0       0       0
       0       0       0       0       0       0       0       0       0       0
       0       0       0       0       0       0       0       0       0       0
       0       0       0       0       0       0       0       0       0       0
       0       0       0       0       0       0       0       0       0       0
       0       0       0       0       0       0       0       0       0       0
       0       0       0       0       0       0       0       0       0       0
       0       0       0       0       0       0       0       0       0       0
       0       0       0       0       0       0       0       0       0       0
       0       0       0       0       0       0       0       0       0       0
       0       0       0       0       0       0       0       0       0       0
       0       0       0       0       0       0       0       0       0       0
       0       0       0       0       0       0       0       0       0       0
       0       0       0       0       0       0       0       0       0       0
       0       0       0       0       0       0       0       0       0       0
       0       0       0       0       0       0       0       0       0       0
       0       0       0       0       0       0       0       0       0       0
       0       0       0       0       0       0       0       0       0       0
       0       0       0       0       0       0       0       0       0       0
       0       0       0       0       0       0       0       0       0       0
       0       0       0       0       0       0       0       0       0       0
       0       0       0       0       0       0       0       0       0       0
       0       0       0       0       0       0       0       0       0       0
       0       0       0       0       0       0       0       0       0       0
       0       0       0       0       0       0       0       0       0       0
       0       0       0       0       0       0       0       0       0       0
       0       0       0       0       0       0       0       0       0       0
       0       0       0       0       0       0       0       0       0       0
       0       0       0       0       0       0       0       0       0       0
       0       0       0       0       0       0       0       0       0       0
       0       0       0       0       0       0       0       0       0       0
       0       0       0       0       0       0       0       0       0       0
       0       0       0       0       0       0       0       0       0       0
       0       0       0       0       0       0       0       0       0       0
       0       0       0       0       0       0       0       0       0       0
       0       0       0       0       0       0       0       0       0       0
       0       0       0       0       0       0       0       0       0       0
       0       0       0       0       0       0       0       0       0       0
       0       0       0       0       0       0       0       0       0       0
       0       0       0       0       0       0       0       0       0       0
       0       0       0       0       0       0       0       0       0       0
       0       0       0       0       0       0       0       0       0       0
       0       0       0       0       0       0       0       0       0       0
       0       0       0       0       0       0       0       0       0       0
       0       0       0       0       0       0       0       0       0       0
       0       0       0       0       0       0       0       0       0       0
       0       0       0       0       0       0       0       0       0       0
       0       0       0       0       0       0       0       0       0       0
       0       0       0       0       0       0       0       0       0       0
       0       0       0       0       0       0       0       0       0       0
       0       0       0       0       0       0       0       0       0       0
       0       0       0       0       0       0       0       0       0       0
       0       0       0       0       0       0       0       0       0       0
       0       0       0       0       0       0       0       0       0       0
       0       0       0       0       0       0       0       0       0       0
       0       0       0       0       0       0       0       0       0       0
       0       0       0       0       0       0       0       0       0       0
       0       0       0       0       0       0       0       0       0       0
       0       0       0       0       0       0       0       0       0       0
       0       0       0       0       0       0       0       0       0       0
       0       0       0       0       0       0       0       0       0       0
       0       0       0       0       0       0       0       0       0       0
       0       0       0       0       0       0       0       0       0       0
       0       0       0       0       0       0       0       0       0       0
       0       0       0       0       0       0       0       0       0       0
       0       0       0       0       0       0       0       0       0       0
       0       0       0       0       0       0       0       0       0       0
       0       0       0       0       0       0       0       0       0       0
       0       0       0       0       0       0       0       0       0       0
       0       0       0       0       0       0       0       0       0       0
       0       0       0       0       0       0       0       0       0       0
       0       0       0       0       0       0       0       0       0       0
       0       0       0       0       0       0       0       0       0       0
       0       0       0       0       0       0       0       0       0       0
       0       0       0       0       0       0       0       0       0       0
       0       0       0       0       0       0       0       0       0       0
       0       0       0       0       0       0       0       0       0       0
       0       0       0       0       0       0       0       0       0       0
       0       0       0       0       0       0       0       0       0       0
       0       0       0       0       0       0       0       0       0       0
       0       0       0       0       0       0       0       0       0       0
       0       0       0       0       0       0       0       0       0       0
       0       0       0       0       0       0       0       0       0       0
       0       0       0       0       0       0       0       0       0       0
       0       0       0       0       0       0       0       0       0       0
       0       0       0       0       0       0       0       0       0       0
       0       0       0       0       0       0       0       0       0       0
       0       0       0       0       0       0       0       0       0       0
       0       0       0       0       0       0       0       0       0       0
       0       0       0       0       0       0       0       0       0       0
       0       0       0       0       0       0       0       0       0       0
       0       0       0       0       0       0       0       0       0       0
       0       0       0       0       0       0       0       0       0       0
       0       0       0       0       0       0       0       0       0       0
       0       0       0       0       0       0       0       0       0       0
       0       0       0       0       0       0       0       0       0       0
       0       0       0       0       0       0       0       0       0       0
       0       0       0       0       0       0       0       0       0       0
       0       0       0       0       0       0       0       0       0       0
       0       0       0       0       0       0       0       0       0       0
       0       0       0       0       0       0       0       0       0       0
       0       0       0       0       0       0       0       0       0       0
       0       0       0       0       0       0       0       0       0       0
       0       0       0       0       0       0       0       0       0       0
       0       0       0       0       0       0       0       0       0       0
       0       0       0       0       0       0       0       0       0       0
       0       0       0       0       0       0       0       0       0       0
       0       0       0       0       0       0       0       0       0       0
       0       0       0       0       0       0       0       0       0       0
       0       0       0       0       0       0       0       0       0       0
       0       0       0       0       0       0       0       0       0       0
       0       0       0       0       0       0       0       0       0       0
       0       0       0       0       0       0       0       0       0       0
       0       0       0       0       0       0       0       0       0       0
       0       0       0       0       0       0       0       0       0       0
       0       0       0       0       0       0       0       0       0       0
       0       0       0       0       0       0       0       0       0       0
       0       0       0       0       0       0       0       0       0       0
       0       0       0       0       0       0       0       0       0       0
       0       0       0       0       0       0       0       0       0       0
       0       0       0       0       0       0       0       0       0       0
       0       0       0       0       0       0       0       0       0       0
       0       0       0       0       0       0       0       0       0       0
       0       0       0       0       0       0       0       0       0       0
       0       0       0       0       0       0       0       0       0       0
       0       0       0       0       0       0       0       0       0       0
       0       0       0       0       0       0       0       0       0       0
       0       0       0       0       0       0       0       0       0       0
       0       0       0       0       0       0       0       0       0       0
       0       0       0       0       0       0       0       0       0       0
       0       0       0       0       0       0       0       0       0       0
       0       0       0       0       0       0       0       0       0       0
       0       0       0       0       0       0       0       0       0       0
       0       0       0       0       0       0       0       0       0       0
       0       0       0       0       0       0       0       0       0       0
       0       0       0       0       0       0       0       0       0       0
       0       0       0       0       0       0       0       0       0       0
       0       0       0       0       0       0       0       0       0       0
       0       0       0       0       0       0       0       0       0       0
       0       0       0       0       0       0       0       0       0       0
       0       0       0       0       0       0       0       0       0       0
       0       0       0       0       0       0       0       0       0       0
       0       0       0       0       0       0       0       0       0       0
       0       0       0       0       0       0       0       0       0       0
       0       0       0       0       0       0       0       0       0       0
       0       0       0       0       0       0       0       0       0       0
       0       0       0       0       0       0       0       0       0       0
       0       0       0       0       0       0       0       0       0       0
       0       0       0       0       0       0       0       0       0       0
       0       0       0       0       0       0       0       0       0       0
       0       0       0       0       0       0       0       0       0       0
       0       0       0       0       0       0       0       0       0       0
       0       0       0       0       0       0       0       0       0       0
       0       0       0       0       0       0       0       0       0       0
       0       0       0       0       0       0       0       0       0       0
       0       0       0       0       0       0       0       0       0       0
       0       0       0       0       0       0       0       0       0       0
       0       0       0       0       0       0       0       0       0       0
       0       0       0       0       0       0       0       0       0       0
       0       0       0       0       0       0       0       0       0       0
       0       0       0       0       0       0       0       0       0       0
       0       0       0       0       0       0       0       0       0       0
       0       0       0       0       0       0       0       0       0       0
       0       0       0       0       0       0       0       0       0       0
       0       0       0       0       0       0       0       0       0       0
       0       0       0       0       0       0       0       0       0       0
       0       0       0       0       0       0       0       0       0       0
       0       0       0       0       0       0       0       0       0       0
       0       0       0       0       0       0       0       0       0       0
       0       0       0       0       0       0       0       0       0       0
       0       0       0       0       0       0       0       0       0       0
       0       0       0       0       0       0       0       0       0       0
       0       0       0       0       0       0       0       0       0       0
       0       0       0       0       0       0       0       0       0       0
       0       0       0       0       0       0       0       0       0       0
       0       0       0       0       0       0       0       0       0       0
       0       0       0       0       0       0       0       0       0       0
       0       0       0       0       0       0       0       0       0       0
       0       0       0       0       0       0       0       0       0       0
       0       0       0       0       0       0       0       0       0       0
       0       0       0       0       0       0       0       0       0       0
       0       0       0       0       0       0       0       0       0       0
       0       0       0       0       0       0       0       0       0       0
       0       0       0       0       0       0       0       0       0       0
       0       0       0       0       0       0       0       0       0       0
       0       0       0       0       0       0       0       0       0       0
       0       0       0       0       0       0       0       0       0       0
       0       0       0       0       0       0       0       0       0       0
       0       0       0       0       0       0       0       0       0       0
       0       0       0       0       0       0       0       0       0       0
       0       0       0       0       0       0       0       0       0       0
       0       0       0       0       0       0       0       0       0       0
       0       0       0       0       0       0       0       0       0       0
       0       0       0       0       0       0       0       0       0       0
       0       0       0       0       0       0       0       0       0       0
       0       0       0       0       0       0       0       0       0       0
       0       0       0       0       0       0       0       0       0       0
       0       0       0       0       0       0       0       0       0       0
       0       0       0       0       0       0       0       0       0       0
       0       0       0       0       0       0       0       0       0       0
       0       0       0       0       0       0       0       0       0       0
       0       0       0       0       0       0       0       0       0       0
       0       0       0       0       0       0       0       0       0       0
       0       0       0       0       0       0       0       0       0       0
       0       0       0       0       0       0       0       0       0       0
       0       0       0       0       0       0       0       0       0       0
       0       0       0       0       0       0       0       0       0       0
       0       0       0       0       0       0       0       0       0       0
       0       0       0       0       0       0       0       0       0       0
       0       0       0       0       0       0       0       0       0       0
       0       0       0       0       0       0       0       0       0       0
       0       0       0       0       0       0       0       0       0       0
       0       0       0       0       0       0       0       0       0       0
       0       0       0       0       0       0       0       0       0       0
       0       0       0       0       0       0       0       0       0       0
       0       0       0       0       0       0       0       0       0       0
       0       0       0       0       0       0       0       0       0       0
       0       0       0       0       0       0       0       0       0       0
       0       0       0       0       0       0       0       0       0       0
       0       0       0       0       0       0       0       0       0       0
       0       0       0       0       0       0       0       0       0       0
       0       0       0       0       0       0       0       0       0       0
       0       0       0       0       0       0       0       0       0       0
       0       0       0       0       0       0       0       0       0       0
       0       0       0       0       0       0       0       0       0       0
       0       0       0       0       0       0       0       0       0       0
       0       0       0       0       0       0       0       0       0       0
       0       0       0       0       0       0       0       0       0       0
       0       0       0       0       0       0       0       0       0       0
       0       0       0       0       0       0       0       0       0       0
       0       0       0       0       0       0       0       0       0       0
       0       0       0       0       0       0       0       0       0       0
       0       0       0       0       0       0       0       0       0       0
       0       0       0       0       0       0       0       0       0       0
       0       0       0       0       0       0       0       0       0       0
       0       0       0       0       0       0       0       0       0       0
       0       0       0       0       0       0       0       0       0       0
       0       0       0       0       0       0       0       0       0       0
       0       0       0       0       0       0       0       0       0       0
       0       0       0       0       0       0       0       0       0       0
       0       0       0       0       0       0       0       0       0       0
       0       0       0       0       0       0       0       0       0       0
       0       0       0       0       0       0       0       0       0       0
       0       0       0       0       0       0       0       0       0       0
       0       0       0       0       0       0       0       0       0       0
       0       0       0       0       0       0       0       0       0       0
       0       0       0       0       0       0       0       0       0       0
       0       0       0       0       0       0       0       0       0       0
       0       0       0       0       0       0       0       0       0       0
       0       0       0       0       0       0       0       0       0       0
       0       0       0       0       0       0       0       0       0       0
       0       0       0       0       0       0       0       0       0       0
       0       0       0       0       0       0       0       0       0       0
       0       0       0       0       0       0       0       0       0       0
       0       0       0       0       0       0       0       0       0       0
       0       0       0       0       0       0       0       0       0       0
       0       0       0       0       0       0       0       0       0       0
       0       0       0       0       0       0       0       0       0       0
       0       0       0       0       0       0       0       0       0       0
       0       0       0       0       0       0       0       0       0       0
       0       0       0       0       0       0       0       0       0       0
       0       0       0       0       0       0       0       0       0       0
       0       0       0       0       0       0       0       0       0       0
       0       0       0       0       0       0       0       0       0       0
       0       0       0       0       0       0       0       0       0       0
       0       0       0       0       0       0       0       0       0       0
       0       0       0       0       0       0       0       0       0       0
       0       0       0       0       0       0       0       0       0       0
       0       0       0       0       0       0       0       0       0       0
       0       0       0       0       0       0       0       0       0       0
       0       0       0       0       0       0       0       0       0       0
       0       0       0       0       0       0       0       0       0       0
       0       0       0       0       0       0       0       0       0       0
       0       0       0       0       0       0       0       0       0       0
       0       0       0       0       0       0       0       0       0       0
       0       0       0       0       0       0       0       0       0       0
       0       0       0       0       0       0       0       0       0       0
       0       0       0       0       0       0       0       0       0       0
       0       0       0       0       0       0       0       0       0       0
       0       0       0       0       0       0       0       0       0       0
       0       0       0       0       0       0       0       0       0       0
       0       0       0       0       0       0       0       0       0       0
       0       0       0       0       0       0       0       0       0       0
       0       0       0       0       0       0       0       0       0       0
       0       0       0       0       0       0       0       0       0       0
       0       0       0       0       0       0       0       0       0       0
       0       0       0       0       0       0       0       0       0       0
       0       0       0       0       0       0       0       0       0       0
       0       0       0       0       0       0       0       0       0       0
       0       0       0       0       0       0       0       0       0       0
       0       0       0       0       0       0       0       0       0       0
       0       0       0       0       0       0       0       0       0       0
       0       0       0       0       0       0       0       0       0       0
       0       0       0       0       0       0       0       0       0       0
       0       0       0       0       0       0       0       0       0       0
       0       0       0       0       0       0       0       0       0       0
       0       0       0       0       0       0       0       0       0       0
       0       0       0       0       0       0       0       0       0       0
       0       0       0       0       0       0       0       0       0       0
       0       0       0       0       0       0       0       0       0       0
       0       0       0       0       0       0       0       0       0       0
       0       0       0       0       0       0       0       0       0       0
       0       0       0       0       0       0       0       0       0       0
       0       0       0       0       0       0       0       0       0       0
       0       0       0       0       0       0       0       0       0       0
       0       0       0       0       0       0       0       0       0       0
       0       0       0       0       0       0       0       0       0       0
       0       0       0       0       0       0       0       0       0       0
       0       0       0       0       0       0       0       0       0       0
       0       0       0       0       0       0       0       0       0       0
       0       0       0       0       0       0       0       0       0       0
       0       0       0       0       0       0       0       0       0       0
       0       0       0       0       0       0       0       0       0       0
       0       0       0       0       0       0       0       0       0       0
       0       0       0       0       0       0       0       0       0       0
       0       0       0       0       0       0       0       0       0       0
       0       0       0       0       0       0       0       0       0       0
       0       0       0       0       0       0       0       0       0       0
       0       0       0       0       0       0       0       0       0       0
       0       0       0       0       0       0       0       0       0       0
       0       0       0       0       0       0       0       0       0       0
       0       0       0       0       0       0       0       0       0       0
       0       0       0       0       0       0       0       0       0       0
       0       0       0       0       0       0       0       0       0       0
       0       0       0       0       0       0       0       0       0       0
       0       0       0       0       0       0       0       0       0       0
       0       0       0       0       0       0       0       0       0       0
       0       0       0       0       0       0       0       0       0       0
       0       0       0       0       0       0       0       0       0       0
       0       0       0       0       0       0       0       0       0       0
       0       0       0       0       0       0       0       0       0       0
       0       0       0       0       0       0       0       0       0       0
       0       0       0       0       0       0       0       0       0       0
       0       0       0       0       0       0       0       0       0       0
       0       0       0       0       0       0       0       0       0       0
       0       0       0       0       0       0       0       0       0       0
       0       0       0       0       0       0       0       0       0       0
       0       0       0       0       0       0       0       0       0       0
       0       0       0       0       0       0       0       0       0       0
       0       0       0       0       0       0       0       0       0       0
       0       0       0       0       0       0       0       0       0       0
       0       0       0       0       0       0       0       0       0       0
       0       0       0       0       0       0       0       0       0       0
       0       0       0       0       0       0       0       0       0       0
       0       0       0       0       0       0       0       0       0       0
       0       0       0       0       0       0       0       0       0       0
       0       0       0       0       0       0       0       0       0       0
       0       0       0       0       0       0       0       0       0       0
       0       0       0       0       0       0       0       0       0       0
       0       0       0       0       0       0       0       0       0       0
       0       0       0       0       0       0       0       0       0       0
       0       0       0       0       0       0       0       0       0       0
       0       0       0       0       0       0       0       0       0       0
       0       0       0       0       0       0       0       0       0       0
       0       0       0       0       0       0       0       0       0       0
       0       0       0       0       0       0       0       0       0       0
       0       0       0       0       0       0       0       0       0       0
       0       0       0       0       0       0       0       0       0       0
       0       0       0       0       0       0       0       0       0       0
       0       0       0       0       0       0       0       0       0       0
       0       0       0       0       0       0       0       0       0       0
       0       0       0       0       0       0       0       0       0       0
       0       0       0       0       0       0       0       0       0       0
       0       0       0       0       0       0       0       0       0       0
       0       0       0       0       0       0       0       0       0       0
       0       0       0       0       0       0       0       0       0       0
       0       0       0       0       0       0       0       0       0       0
       0       0       0       0       0       0       0       0       0       0
       0       0       0       0       0       0       0       0       0       0
       0       0       0       0       0       0       0       0       0       0
       0       0       0       0       0       0       0       0       0       0
       0       0       0       0       0       0       0       0       0       0
       0       0       0       0       0       0       0       0       0       0
       0       0       0       0       0       0       0       0       0       0
       0       0       0       0       0       0       0       0       0       0
       0       0       0       0       0       0       0       0       0       0
       0       0       0       0       0       0       0       0       0       0
       0       0       0       0       0       0       0       0       0       0
       0       0       0       0       0       0       0       0       0       0
       0       0       0       0       0       0       0       0       0       0
       0       0       0       0       0       0       0       0       0       0
       0       0       0       0       0       0       0       0       0       0
       0       0       0       0       0       0       0       0       0       0
       0       0       0       0       0       0       0       0       0       0
       0       0       0       0       0       0       0       0       0       0
       0       0       0       0       0       0       0       0       0       0
       0       0       0       0       0       0       0       0       0       0
       0       0       0       0       0       0       0       0       0       0
       0       0       0       0       0       0       0       0       0       0
       0       0       0       0       0       0       0       0       0       0
       0       0       0       0       0       0       0       0       0       0
       0       0       0       0       0       0       0       0       0       0
       0       0       0       0       0       0       0       0       0       0
       0       0       0       0       0       0       0       0       0       0
       0       0       0       0       0       0       0       0       0       0
       0       0       0       0       0       0       0       0       0       0
       0       0       0       0       0       0       0       0       0       0
       0       0       0       0       0       0       0       0       0       0
       0       0       0       0       0       0       0       0       0       0
       0       0       0       0       0       0       0       0       0       0
       0       0       0       0       0       0       0       0       0       0
       0       0       0       0       0       0       0       0       0       0
       0       0       0       0       0       0       0       0       0       0
       0       0       0       0       0       0       0       0       0       0
       0       0       0       0       0       0       0       0       0       0
       0       0       0       0       0       0       0       0       0       0
       0       0       0       0       0       0       0       0       0       0
       0       0       0       0       0       0       0       0       0       0
       0       0       0       0       0       0       0       0       0       0
       0       0       0       0       0       0       0       0       0       0
       0       0       0       0       0       0       0       0       0       0
       0       0       0       0       0       0       0       0       0       0
       0       0       0       0       0       0       0       0       0       0
       0       0       0       0       0       0       0       0       0       0
       0       0       0       0       0       0       0       0       0       0
       0       0       0       0       0       0       0       0       0       0
       0       0       0       0       0       0       0       0       0       0
       0       0       0       0       0       0       0       0       0       0
       0       0       0       0       0       0       0       0       0       0
       0       0       0       0       0       0       0       0       0       0
       0       0       0       0       0       0       0       0       0       0
       0       0       0       0       0       0       0       0       0       0
       0       0       0       0       0       0       0       0       0       0
       0       0       0       0       0       0       0       0       0       0
       0       0       0       0       0       0       0       0       0       0
       0       0       0       0       0       0       0       0       0       0
       0       0       0       0       0       0       0       0       0       0
       0       0       0       0       0       0       0       0       0       0
       0       0       0       0       0       0       0       0       0       0
       0       0       0       0       0       0       0       0       0       0
       0       0       0       0       0       0       0       0       0       0
       0       0       0       0       0       0       0       0       0       0
       0       0       0       0       0       0       0       0       0       0
       0       0       0       0       0       0       0       0       0       0
       0       0       0       0       0       0       0       0       0       0
       0       0       0       0       0       0       0       0       0       0
       0       0       0       0       0       0       0       0       0       0
       0       0       0       0       0       0       0       0       0       0
       0       0       0       0       0       0       0       0       0       0
       0       0       0       0       0       0       0       0       0       0
       0       0       0       0       0       0       0       0       0       0
       0       0       0       0       0       0       0       0       0       0
       0       0       0       0       0       0       0       0       0       0
       0       0       0       0       0       0       0       0       0       0
       0       0       0       0       0       0       0       0       0       0
       0       0       0       0       0       0       0       0       0       0
       0       0       0       0       0       0       0       0       0       0
       0       0       0       0       0       0       0       0       0       0
       0       0       0       0       0       0       0       0       0       0
       0       0       0       0       0       0       0       0       0       0
       0       0       0       0       0       0       0       0       0       0
       0       0       0       0       0       0       0       0       0       0
       0       0       0       0       0       0       0       0       0       0
       0       0       0       0       0       0       0       0       0       0
       0       0       0       0       0       0       0       0       0       0
       0       0       0       0       0       0       0       0       0       0
       0       0       0       0       0       0       0       0       0       0
       0       0       0       0       0       0       0       0       0       0
       0       0       0       0       0       0       0       0       0       0
       0       0       0       0       0       0       0       0       0       0
       0       0       0       0       0       0       0       0       0       0
       0       0       0       0       0       0       0       0       0       0
       0       0       0       0       0       0       0       0       0       0
       0       0       0       0       0       0       0       0       0       0
       0       0       0       0       0       0       0       0       0       0
       0       0       0       0       0       0       0       0       0       0
       0       0       0       0       0       0       0       0       0       0
       0       0       0       0       0       0       0       0       0       0
       0       0       0       0       0       0       0       0       0       0
       0       0       0       0       0       0       0       0       0       0
       0       0       0       0       0       0       0       0       0       0
       0       0       0       0       0       0       0       0       0       0
       0       0       0       0       0       0       0       0       0       0
       0       0       0       0       0       0       0       0       0       0
       0       0       0       0       0       0       0       0       0       0
       0       0       0       0       0       0       0       0       0       0
       0       0       0       0       0       0       0       0       0       0
       0       0       0       0       0       0       0       0       0       0
       0       0       0       0       0       0       0       0       0       0
       0       0       0       0       0       0       0       0       0       0
       0       0       0       0       0       0       0       0       0       0
       0       0       0       0       0       0       0       0       0       0
       0       0       0       0       0       0       0       0       0       0
       0       0       0       0       0       0       0       0       0       0
       0       0       0       0       0       0       0       0       0       0
       0       0       0       0       0       0       0       0       0       0
       0       0       0       0       0       0       0       0       0       0
       0       0       0       0       0       0       0       0       0       0
       0       0       0       0       0       0       0       0       0       0
       0       0       0       0       0       0       0       0       0       0
       0       0       0       0       0       0       0       0       0       0
       0       0       0       0       0       0       0       0       0       0
       0       0       0       0       0       0       0       0       0       0
       0       0       0       0       0       0       0       0       0       0
       0       0       0       0       0       0       0       0       0       0
       0       0       0       0       0       0       0       0       0       0
       0       0       0       0       0       0       0       0       0       0
       0       0       0       0       0       0       0       0       0       0
       0       0       0       0       0       0       0       0       0       0
       0       0       0       0       0       0       0       0       0       0
       0       0       0       0       0       0       0       0       0       0
       0       0       0       0       0       0       0       0       0       0
       0       0       0       0       0       0       0       0       0       0
       0       0       0       0       0       0       0       0       0       0
       0       0       0       0       0       0       0       0       0       0
       0       0       0       0       0       0       0       0       0       0
       0       0       0       0       0       0       0       0       0       0
       0       0       0       0       0       0       0       0       0       0
       0       0       0       0       0       0       0       0       0       0
       0       0       0       0       0       0       0       0       0       0
       0       0       0       0       0       0       0       0       0       0
       0       0       0       0       0       0       0       0       0       0
       0       0       0       0       0       0       0       0       0       0
       0       0       0       0       0       0       0       0       0       0
       0       0       0       0       0       0       0       0       0       0
       0       0       0       0       0       0       0       0       0       0
       0       0       0       0       0       0       0       0       0       0
       0       0       0       0       0       0       0       0       0       0
       0       0       0       0       0       0       0       0       0       0
       0       0       0       0       0       0       0       0       0       0
       0       0       0       0       0       0       0       0       0       0
       0       0       0       0       0       0       0       0       0       0
       0       0       0       0       0       0       0       0       0       0
       0       0       0       0       0       0       0       0       0       0
       0       0       0       0       0       0       0       0       0       0
       0       0       0       0       0       0       0       0       0       0
       0       0       0       0       0       0       0       0       0       0
       0       0       0       0       0       0       0       0       0       0
       0       0       0       0       0       0       0       0       0       0
       0       0       0       0       0       0       0       0       0       0
       0       0       0       0       0       0       0       0       0       0
       0       0       0       0       0       0       0       0       0       0
       0       0       0       0       0       0       0       0       0       0
       0       0       0       0       0       0       0       0       0       0
       0       0       0       0       0       0       0       0       0       0
       0       0       0       0       0       0       0       0       0       0
       0       0       0       0       0       0       0       0       0       0
       0       0       0       0       0       0       0       0       0       0
       0       0       0       0       0       0       0       0       0       0
       0       0       0       0       0       0       0       0       0       0
       0       0       0       0       0       0       0       0       0       0
       0       0       0       0       0       0       0       0       0       0
       0       0       0       0       0       0       0       0       0       0
       0       0       0       0       0       0       0       0       0       0
       0       0       0       0       0       0       0       0       0       0
       0       0       0       0       0       0       0       0       0       0
       0       0       0       0       0       0       0       0       0       0
       0       0       0       0       0       0       0       0       0       0
       0       0       0       0       0       0       0       0       0       0
       0       0       0       0       0       0       0       0       0       0
       0       0       0       0       0       0       0       0       0       0
       0       0       0       0       0       0       0       0       0       0
       0       0       0       0       0       0       0       0       0       0
       0       0       0       0       0       0       0       0       0       0
       0       0       0       0       0       0       0       0       0       0
       0       0       0       0       0       0       0       0       0       0
       0       0       0       0       0       0       0       0       0       0
       0       0       0       0       0       0       0       0       0       0
       0       0       0       0       0       0       0       0       0       0
       0       0       0       0       0       0       0       0       0       0
       0       0       0       0       0       0       0       0       0       0
       0       0       0       0       0       0       0       0       0       0
       0       0       0       0       0       0       0       0       0       0
       0       0       0       0       0       0       0       0       0       0
       0       0       0       0       0       0       0       0       0       0
       0       0       0       0       0       0       0       0       0       0
       0       0       0       0       0       0       0       0       0       0
       0       0       0       0       0       0       0       0       0       0
       0       0       0       0       0       0       0       0       0       0
       0       0       0       0       0       0       0       0       0       0
       0       0       0       0       0       0       0       0       0       0
       0       0       0       0       0       0       0       0       0       0
       0       0       0       0       0       0       0       0       0       0
       0       0       0       0       0       0       0       0       0       0
       0       0       0       0       0       0       0       0       0       0
       0       0       0       0       0       0       0       0       0       0
       0       0       0       0       0       0       0       0       0       0
       0       0       0       0       0       0       0       0       0       0
       0       0       0       0       0       0       0       0       0       0
       0       0       0       0       0       0       0       0       0       0
       0       0       0       0       0       0       0       0       0       0
       0       0       0       0       0       0       0       0       0       0
       0       0       0       0       0       0       0       0       0       0
       0       0       0       0       0       0       0       0       0       0
       0       0       0       0       0       0       0       0       0       0
       0       0       0       0       0       0       0       0       0       0
       0       0       0       0       0       0       0       0       0       0
       0       0       0       0       0       0       0       0       0       0
       0       0       0       0       0       0       0       0       0       0
       0       0       0       0       0       0       0       0       0       0
       0       0       0       0       0       0       0       0       0       0
       0       0       0       0       0       0       0       0       0       0
       0       0       0       0       0       0       0       0       0       0
       0       0       0       0       0       0       0       0       0       0
       0       0       0       0       0       0       0       0       0       0
       0       0       0       0       0       0       0       0       0       0
       0       0       0       0       0       0       0       0       0       0
       0       0       0       0       0       0       0       0       0       0
       0       0       0       0       0       0       0       0       0       0
       0       0       0       0       0       0       0       0       0       0
       0       0       0       0       0       0       0       0       0       0
       0       0       0       0       0       0       0       0       0       0
       0       0       0       0       0       0       0       0       0       0
       0       0       0       0       0       0       0       0       0       0
       0       0       0       0       0       0       0       0       0       0
       0       0       0       0       0       0       0       0       0       0
       0       0       0       0       0       0       0       0       0       0
       0       0       0       0       0       0       0       0       0       0
       0       0       0       0       0       0       0       0       0       0
       0       0       0       0       0       0       0       0       0       0
       0       0       0       0       0       0       0       0       0       0
       0       0       0       0       0       0       0       0       0       0
       0       0       0       0       0       0       0       0       0       0
       0       0       0       0       0       0       0       0       0       0
       0       0       0       0       0       0       0       0       0       0
       0       0       0       0       0       0       0       0       0       0
       0       0       0       0       0       0       0       0       0       0
       0       0       0       0       0       0       0       0       0       0
       0       0       0       0       0       0       0       0       0       0
       0       0       0       0       0       0       0       0       0       0
       0       0       0       0       0       0       0       0       0       0
       0       0       0       0       0       0       0       0       0       0
       0       0       0       0       0       0       0       0       0       0
       0       0       0       0       0       0       0       0       0       0
       0       0       0       0       0       0       0       0       0       0
       0       0       0       0       0       0       0       0       0       0
       0       0       0       0       0       0       0       0       0       0
       0       0       0       0       0       0       0       0       0       0
       0       0       0       0       0       0       0       0       0       0
       0       0       0       0       0       0       0       0       0       0
       0       0       0       0       0       0       0       0       0       0
       0       0       0       0       0       0       0       0       0       0
       0       0       0       0       0       0       0       0       0       0
       0       0       0       0       0       0       0       0       0       0
       0       0       0       0       0       0       0       0       0       0
       0       0       0       0       0       0       0       0       0       0
       0       0       0       0       0       0       0       0       0       0
       0       0       0       0       0       0       0       0       0       0
       0       0       0       0       0       0       0       0       0       0
       0       0       0       0       0       0       0       0       0       0
       0       0       0       0       0       0       0       0       0       0
       0       0       0       0       0       0       0       0       0       0
       0       0       0       0       0       0       0       0       0       0
       0       0       0       0       0       0       0       0       0       0
       0       0       0       0       0       0       0       0       0       0
       0       0       0       0       0       0       0       0       0       0
       0       0       0       0       0       0       0       0       0       0
       0       0       0       0       0       0       0       0       0       0
       0       0       0       0       0       0       0       0       0       0
       0       0       0       0       0       0       0       0       0       0
       0       0       0       0       0       0       0       0       0       0
       0       0       0       0       0       0       0       0       0       0
       0       0       0       0       0       0       0       0       0       0
       0       0       0       0       0       0       0       0       0       0
       0       0       0       0       0       0       0       0       0       0
       0       0       0       0       0       0       0       0       0       0
       0       0       0       0       0       0       0       0       0       0
       0       0       0       0       0       0       0       0       0       0
       0       0       0       0       0       0       0       0       0       0
       0       0       0       0       0       0       0       0       0       0
       0       0       0       0       0       0       0       0       0       0
       0       0       0       0       0       0       0       0       0       0
       0       0       0       0       0       0       0       0       0       0
       0       0       0       0       0       0       0       0       0       0
       0       0       0       0       0       0       0       0       0       0
       0       0       0       0       0       0       0       0       0       0
       0       0       0       0       0       0       0       0       0       0
       0       0       0       0       0       0       0       0       0       0
       0       0       0       0       0       0       0       0       0       0
       0       0       0       0       0       0       0       0       0       0
       0       0       0       0       0       0       0       0       0       0
       0       0       0       0       0       0       0       0       0       0
       0       0       0       0       0       0       0       0       0       0
       0       0       0       0       0       0       0       0       0       0
       0       0       0       0       0       0       0       0       0       0
       0       0       0       0       0       0       0       0       0       0
       0       0       0       0       0       0       0       0       0       0
       0       0       0       0       0       0       0       0       0       0
       0       0       0       0       0       0       0       0       0       0
       0       0       0       0       0       0       0       0       0       0
       0       0       0       0       0       0       0       0       0       0
       0       0       0       0       0       0       0       0       0       0
       0       0       0       0       0       0       0       0       0       0
       0       0       0       0       0       0       0       0       0       0
       0       0       0       0       0       0       0       0       0       0
       0       0       0       0       0       0       0       0       0       0
       0       0       0       0       0       0       0       0       0       0
       0       0       0       0       0       0       0       0       0       0
       0       0       0       0       0       0       0       0       0       0
       0       0       0       0       0       0       0       0       0       0
       0       0       0       0       0       0       0       0       0       0
       0       0       0       0       0       0       0       0       0       0
       0       0       0       0       0       0       0       0       0       0
       0       0       0       0       0       0       0       0       0       0
       0       0       0       0       0       0       0       0       0       0
       0       0       0       0       0       0       0       0       0       0
       0       0       0       0       0       0       0       0       0       0
       0       0       0       0       0       0       0       0       0       0
       0       0       0       0       0       0       0       0       0       0
       0       0       0       0       0       0       0       0       0       0
       0       0       0       0       0       0       0       0       0       0
       0       0       0       0       0       0       0       0       0       0
       0       0       0       0       0       0       0       0       0       0
       0       0       0       0       0       0       0       0       0       0
       0       0       0       0       0       0       0       0       0       0
       0       0       0       0       0       0       0       0       0       0
       0       0       0       0       0       0       0       0       0       0
       0       0       0       0       0       0       0       0       0       0
       0       0       0       0       0       0       0       0       0       0
       0       0       0       0       0       0       0       0       0       0
       0       0       0       0       0       0       0       0       0       0
       0       0       0       0       0       0       0       0       0       0
       0       0       0       0       0       0       0       0       0       0
       0       0       0       0       0       0       0       0       0       0
       0       0       0       0       0       0       0       0       0       0
       0       0       0       0       0       0       0       0       0       0
       0       0       0       0       0       0       0       0       0       0
       0       0       0       0       0       0       0       0       0       0
       0       0       0       0       0       0       0       0       0       0
       0       0       0       0       0       0       0       0       0       0
       0       0       0       0       0       0       0       0       0       0
       0       0       0       0       0       0       0       0       0       0
       0       0       0       0       0       0       0       0       0       0
       0       0       0       0       0       0       0       0       0       0
       0       0       0       0       0       0       0       0       0       0
       0       0       0       0       0       0       0       0       0       0
       0       0       0       0       0       0       0       0       0       0
       0       0       0       0       0       0       0       0       0       0
       0       0       0       0       0       0       0       0       0       0
       0       0       0       0       0       0       0       0       0       0
       0       0       0       0       0       0       0       0       0       0
       0       0       0       0       0       0       0       0       0       0
       0       0       0       0       0       0       0       0       0       0
       0       0       0       0       0       0       0       0       0       0
       0       0       0       0       0       0       0       0       0       0
       0       0       0       0       0       0       0       0       0       0
       0       0       0       0       0       0       0       0       0       0
       0       0       0       0       0       0       0       0       0       0
       0       0       0       0       0       0       0       0       0       0
       0       0       0       0       0       0       0       0       0       0
       0       0       0       0       0       0       0       0       0       0
       0       0       0       0       0       0       0       0       0       0
       0       0       0       0       0       0       0       0       0       0
       0       0       0       0       0       0       0       0       0       0
       0       0       0       0       0       0       0       0       0       0
       0       0       0       0       0       0       0       0       0       0
       0       0       0       0       0       0       0       0       0       0
       0       0       0       0       0       0       0       0       0       0
       0       0       0       0       0       0       0       0       0       0
       0       0       0       0       0       0       0       0       0       0
       0       0       0       0       0       0       0       0       0       0
       0       0       0       0       0       0       0       0       0       0
       0       0       0       0       0       0       0       0       0       0
       0       0       0       0       0       0       0       0       0       0
       0       0       0       0       0       0       0       0       0       0
       0       0       0       0       0       0       0       0       0       0
       0       0       0       0       0       0       0       0       0       0
       0       0       0       0       0       0       0       0       0       0
       0       0       0       0       0       0       0       0       0       0
       0       0       0       0       0       0       0       0       0       0
       0       0       0       0       0       0       0       0       0       0
       0       0       0       0       0       0       0       0       0       0
       0       0       0       0       0       0       0       0       0       0
       0       0       0       0       0       0       0       0       0       0
       0       0       0       0       0       0       0       0       0       0
       0       0       0       0       0       0       0       0       0       0
       0       0       0       0       0       0       0       0       0       0
       0       0       0       0       0       0       0       0       0       0
       0       0       0       0       0       0       0       0       0       0
       0       0       0       0       0       0       0       0       0       0
       0       0       0       0       0       0       0       0       0       0
       0       0       0       0       0       0       0       0       0       0
       0       0       0       0       0       0       0       0       0       0
       0       0       0       0       0       0       0       0       0       0
       0       0       0       0       0       0       0       0       0       0
       0       0       0       0       0       0       0       0       0       0
       0       0       0       0       0       0       0       0       0       0
       0       0       0       0       0       0       0       0       0       0
       0       0       0       0       0       0       0       0       0       0
       0       0       0       0       0       0       0       0       0       0
       0       0       0       0       0       0       0       0       0       0
       0       0       0       0       0       0       0       0       0       0
       0       0       0       0       0       0       0       0       0       0
       0       0       0       0       0       0       0       0       0       0
       0       0       0       0       0       0       0       0       0       0
       0       0       0       0       0       0       0       0       0       0
       0       0       0       0       0       0       0       0       0       0
       0       0       0       0       0       0       0       0       0       0
       0       0       0       0       0       0       0       0       0       0
       0       0       0       0       0       0       0       0       0       0
       0       0       0       0       0       0       0       0       0       0
       0       0       0       0       0       0       0       0       0       0
       0       0       0       0       0       0       0       0       0       0
       0       0       0       0       0       0       0       0       0       0
       0       0       0       0       0       0       0       0       0       0
       0       0       0       0       0       0       0       0       0       0
       0       0       0       0       0       0       0       0       0       0
       0       0       0       0       0       0       0       0       0       0
       0       0       0       0       0       0       0       0       0       0
       0       0       0       0       0       0       0       0       0       0
       0       0       0       0       0       0       0       0       0       0
       0       0       0       0       0       0       0       0       0       0
       0       0       0       0       0       0       0       0       0       0
       0       0       0       0       0       0       0       0       0       0
       0       0       0       0       0       0       0       0       0       0
       0       0       0       0       0       0       0       0       0       0
       0       0       0       0       0       0       0       0       0       0
       0       0       0       0       0       0       0       0       0       0
       0       0       0       0       0       0       0       0       0       0
       0       0       0       0       0       0       0       0       0       0
       0       0       0       0       0       0       0       0       0       0
       0       0       0       0       0       0       0       0       0       0
       0       0       0       0       0       0       0       0       0       0
       0       0       0       0       0       0       0       0       0       0
       0       0       0       0       0       0       0       0       0       0
       0       0       0       0       0       0       0       0       0       0
       0       0       0       0       0       0       0       0       0       0
       0       0       0       0       0       0       0       0       0       0
       0       0       0       0       0       0       0       0       0       0
       0       0       0       0       0       0       0       0       0       0
       0       0       0       0       0       0       0       0       0       0
       0       0       0       0       0       0       0       0       0       0
       0       0       0       0       0       0       0       0       0       0
       0       0       0       0       0       0       0       0       0       0
       0       0       0       0       0       0       0       0       0       0
       0       0       0       0       0       0       0       0       0       0
       0       0       0       0       0       0       0       0       0       0
       0       0       0       0       0       0       0       0       0       0
       0       0       0       0       0       0       0       0       0       0
       0       0       0       0       0       0       0       0       0       0
       0       0       0       0       0       0       0       0       0       0
       0       0       0       0       0       0       0       0       0       0
       0       0       0       0       0       0       0       0       0       0
       0       0       0       0       0       0       0       0       0       0
       0       0       0       0       0       0       0       0       0       0
       0       0       0       0       0       0       0       0       0       0
       0       0       0       0       0       0       0       0       0       0
       0       0       0       0       0       0       0       0       0       0
       0       0       0       0       0       0       0       0       0       0
       0       0       0       0       0       0       0       0       0       0
       0       0       0       0       0       0       0       0       0       0
       0       0       0       0       0       0       0       0       0       0
       0       0       0       0       0       0       0       0       0       0
       0       0       0       0       0       0       0       0       0       0
       0       0       0       0       0       0       0       0       0       0
       0       0       0       0       0       0       0       0       0       0
       0       0       0       0       0       0       0       0       0       0
       0       0       0       0       0       0       0       0       0       0
       0       0       0       0       0       0       0       0       0       0
       0       0       0       0       0       0       0       0       0       0
       0       0       0       0       0       0       0       0       0       0
       0       0       0       0       0       0       0       0       0       0
       0       0       0       0       0       0       0       0       0       0
       0       0       0       0       0       0       0       0       0       0
       0       0       0       0       0       0       0       0       0       0
       0       0       0       0       0       0       0       0       0       0
       0       0       0       0       0       0       0       0       0       0
       0       0       0       0       0       0       0       0       0       0
       0       0       0       0       0       0       0       0       0       0
       0       0       0       0       0       0       0       0       0       0
       0       0       0       0       0       0       0       0       0       0
       0       0       0       0       0       0       0       0       0       0
       0       0       0       0       0       0       0       0       0       0
       0       0       0       0       0       0       0       0       0       0
       0       0       0       0       0       0       0       0       0       0
       0       0       0       0       0       0       0       0       0       0
       0       0       0       0       0       0       0       0       0       0
       0       0       0       0       0       0       0       0       0       0
       0       0       0       0       0       0       0       0       0       0
       0       0       0       0       0       0       0       0       0       0
       0       0       0       0       0       0       0       0       0       0
       0       0       0       0       0       0       0       0       0       0
       0       0       0       0       0       0       0       0       0       0
       0       0       0       0       0       0       0       0       0       0
       0       0       0       0       0       0       0       0       0       0
       0       0       0       0       0       0       0       0       0       0
       0       0       0       0       0       0       0       0       0       0
       0       0       0       0       0       0       0       0       0       0
       0       0       0       0       0       0       0       0       0       0
       0       0       0       0       0       0       0       0       0       0
       0       0       0       0       0       0       0       0       0       0
       0       0       0       0       0       0       0       0       0       0
       0       0       0       0       0       0       0       0       0       0
       0       0       0       0       0       0       0       0       0       0
       0       0       0       0       0       0       0       0       0       0
       0       0       0       0       0       0       0       0       0       0
       0       0       0       0       0       0       0       0       0       0
       0       0       0       0       0       0       0       0       0       0
       0       0       0       0       0       0       0       0       0       0
       0       0       0       0       0       0       0       0       0       0
       0       0       0       0       0       0       0       0       0       0
       0       0       0       0       0       0       0       0       0       0
       0       0       0       0       0       0       0       0       0       0
       0       0       0       0       0       0       0       0       0       0
       0       0       0       0       0       0       0       0       0       0
       0       0       0       0       0       0       0       0       0       0
       0       0       0       0       0       0       0       0       0       0
       0       0       0       0       0       0       0       0       0       0
       0       0       0       0       0       0       0       0       0       0
       0       0       0       0       0       0       0       0       0       0
       0       0       0       0       0       0       0       0       0       0
       0       0       0       0       0       0       0       0       0       0
       0       0       0       0       0       0       0       0       0       0
       0       0       0       0       0       0       0       0       0       0
       0       0       0       0       0       0       0       0       0       0
       0       0       0       0       0       0       0       0       0       0
       0       0       0       0       0       0       0       0       0       0
       0       0       0       0       0       0       0       0       0       0
       0       0       0       0       0       0       0       0       0       0
       0       0       0       0       0       0       0       0       0       0
       0       0       0       0       0       0       0       0       0       0
       0       0       0       0       0       0       0       0       0       0
       0       0       0       0       0       0       0       0       0       0
       0       0       0       0       0       0       0       0       0       0
       0       0       0       0       0       0       0       0       0       0
       0       0       0       0       0       0       0       0       0       0
       0       0       0       0       0       0       0       0       0       0
       0       0       0       0       0       0       0       0       0       0
       0       0       0       0       0       0       0       0       0       0
       0       0       0       0       0       0       0       0       0       0
       0       0       0       0       0       0       0       0       0       0
       0       0       0       0       0       0       0       0       0       0
       0       0       0       0       0       0       0       0       0       0
       0       0       0       0       0       0       0       0       0       0
       0       0       0       0       0       0       0       0       0       0
       0       0       0       0       0       0       0       0       0       0
       0       0       0       0       0       0       0       0       0       0
       0       0       0       0       0       0       0       0       0       0
       0       0       0       0       0       0       0       0       0       0
       0       0       0       0       0       0       0       0       0       0
       0       0       0       0       0       0       0       0       0       0
       0       0       0       0       0       0       0       0       0       0
       0       0       0       0       0       0       0       0       0       0
       0       0       0       0       0       0       0       0       0       0
       0       0       0       0       0       0       0       0       0       0
       0       0       0       0       0       0       0       0       0       0
       0       0       0       0       0       0       0       0       0       0
       0       0       0       0       0       0       0       0       0       0
       0       0       0       0       0       0       0       0       0       0
       0       0       0       0       0       0       0       0       0       0
       0       0       0       0       0       0       0       0       0       0
       0       0       0       0       0       0       0       0       0       0
       0       0       0       0       0       0       0       0       0       0
       0       0       0       0       0       0       0       0       0       0
       0       0       0       0       0       0       0       0       0       0
       0       0       0       0       0       0       0       0       0       0
       0       0       0       0       0       0       0       0       0       0
       0       0       0       0       0       0       0       0       0       0
       0       0       0       0       0       0       0       0       0       0
       0       0       0       0       0       0       0       0       0       0
       0       0       0       0       0       0       0       0       0       0
       0       0       0       0       0       0       0       0       0       0
       0       0       0       0       0       0       0       0       0       0
       0       0       0       0       0       0       0       0       0       0
       0       0       0       0       0       0       0       0       0       0
       0       0       0       0       0       0       0       0       0       0
       0       0       0       0       0       0       0       0       0       0
       0       0       0       0       0       0       0       0       0       0
       0       0       0       0       0       0       0       0       0       0
       0       0       0       0       0       0       0       0       0       0
       0       0       0       0       0       0       0       0       0       0
       0       0       0       0       0       0       0       0       0       0
       0       0       0       0       0       0       0       0       0       0
       0       0       0       0       0       0       0       0       0       0
       0       0       0       0       0       0       0       0       0       0
       0       0       0       0       0       0       0       0       0       0
       0       0       0       0       0       0       0       0       0       0
       0       0       0       0       0       0       0       0       0       0
       0       0       0       0       0       0       0       0       0       0
       0       0       0       0       0       0       0       0       0       0
       0       0       0       0       0       0       0       0       0       0
       0       0       0       0       0       0       0       0       0       0
       0       0       0       0       0       0       0       0       0       0
       0       0       0       0       0       0       0       0       0       0
       0       0       0       0       0       0       0       0       0       0
       0       0       0       0       0       0       0       0       0       0
       0       0       0       0       0       0       0       0       0       0
       0       0       0       0       0       0       0       0       0       0
       0       0       0       0       0       0       0       0       0       0
       0       0       0       0       0       0       0       0       0       0
       0       0       0       0       0       0       0       0       0       0
       0       0       0       0       0       0       0       0       0       0
       0       0       0       0       0       0       0       0       0       0
       0       0       0       0       0       0       0       0       0       0
       0       0       0       0       0       0       0       0       0       0
       0       0       0       0       0       0       0       0       0       0
       0       0       0       0       0       0       0       0       0       0
       0       0       0       0       0       0       0       0       0       0
       0       0       0       0       0       0       0       0       0       0
       0       0       0       0       0       0       0       0       0       0
       0       0       0       0       0       0       0       0       0       0
       0       0       0       0       0       0       0       0       0       0
       0       0       0       0       0       0       0       0       0       0
       0       0       0       0       0       0       0       0       0       0
       0       0       0       0       0       0       0       0       0       0
       0       0       0       0       0       0       0       0       0       0
       0       0       0       0       0       0       0       0       0       0
       0       0       0       0       0       0       0       0       0       0
       0       0       0       0       0       0       0       0       0       0
       0       0       0       0       0       0       0       0       0       0
       0       0       0       0       0       0       0       0       0       0
       0       0       0       0       0       0       0       0       0       0
       0       0       0       0       0       0       0       0       0       0
       0       0       0       0       0       0       0       0       0       0
       0       0       0       0       0       0       0       0       0       0
       0       0       0       0       0       0       0       0       0       0
       0       0       0       0       0       0       0       0       0       0
       0       0       0       0       0       0       0       0       0       0
       0       0       0       0       0       0       0       0       0       0
       0       0       0       0       0       0       0       0       0       0
       0       0       0       0       0       0       0       0       0       0
       0       0       0       0       0       0       0       0       0       0
       0       0       0       0       0       0       0       0       0       0
       0       0       0       0       0       0       0       0       0       0
       0       0       0       0       0       0       0       0       0       0
       0       0       0       0       0       0       0       0       0       0
       0       0       0       0       0       0       0       0       0       0
       0       0       0       0       0       0       0       0       0       0
       0       0       0       0       0       0       0       0       0       0
       0       0       0       0       0       0       0       0       0       0
       0       0       0       0       0       0       0       0       0       0
       0       0       0       0       0       0       0       0       0       0
       0       0       0       0       0       0       0       0       0       0
       0       0       0       0       0       0       0       0       0       0
       0       0       0       0       0       0       0       0       0       0
       0       0       0       0       0       0       0       0       0       0
       0       0       0       0       0       0       0       0       0       0
       0       0       0       0       0       0       0       0       0       0
       0       0       0       0       0       0       0       0       0       0
       0       0       0       0       0       0       0       0       0       0
       0       0       0       0       0       0       0       0       0       0
       0       0       0       0       0       0       0       0       0       0
       0       0       0       0       0       0       0       0       0       0
       0       0       0       0       0       0       0       0       0       0
       0       0       0       0       0       0       0       0       0       0
       0       0       0       0       0       0       0       0       0       0
       0       0       0       0       0       0       0       0       0       0
       0       0       0       0       0       0       0       0       0       0
       0       0       0       0       0       0       0       0       0       0
       0       0       0       0       0       0       0       0       0       0
       0       0       0       0       0       0       0       0       0       0
       0       0       0       0       0       0       0       0       0       0
       0       0       0       0       0       0       0       0       0       0
       0       0       0       0       0       0       0       0       0       0
       0       0       0       0       0       0       0       0       0       0
       0       0       0       0       0       0       0       0       0       0
       0       0       0       0       0       0       0       0       0       0
       0       0       0       0       0       0       0       0       0       0
       0       0       0       0       0       0       0       0       0       0
       0       0       0       0       0       0       0       0       0       0
       0       0       0       0       0       0       0       0       0       0
       0       0       0       0       0       0       0       0       0       0
       0       0       0       0       0       0       0       0       0       0
       0       0       0       0       0       0       0       0       0       0
       0       0       0       0       0       0       0       0       0       0
       0       0       0       0       0       0       0       0       0       0
       0       0       0       0       0       0       0       0       0       0
       0       0       0       0       0       0       0       0       0       0
       0       0       0       0       0       0       0       0       0       0
       0       0       0       0       0       0       0       0       0       0
       0       0       0       0       0       0       0       0       0       0
       0       0       0       0       0       0       0       0       0       0
       0       0       0       0       0       0       0       0       0       0
       0       0       0       0       0       0       0       0       0       0
       0       0       0       0       0       0       0       0       0       0
       0       0       0       0       0       0       0       0       0       0
       0       0       0       0       0       0       0       0       0       0
       0       0       0       0       0       0       0       0       0       0
       0       0       0       0       0       0       0       0       0       0
       0       0       0       0       0       0       0       0       0       0
       0       0       0       0       0       0       0       0       0       0
       0       0       0       0       0       0       0       0       0       0
       0       0       0       0       0       0       0       0       0       0
       0       0       0       0       0       0       0       0       0       0
       0       0       0       0       0       0       0       0       0       0
       0       0       0       0       0       0       0       0       0       0
       0       0       0       0       0       0       0       0       0       0
       0       0       0       0       0       0       0       0       0       0
       0       0       0       0       0       0       0       0       0       0
       0       0       0       0       0       0       0       0       0       0
       0       0       0       0       0       0       0       0       0       0
       0       0       0       0       0       0       0       0       0       0
       0       0       0       0       0       0       0       0       0       0
       0       0       0       0       0       0       0       0       0       0
       0       0       0       0       0       0       0       0       0       0
       0       0       0       0       0       0       0       0       0       0
       0       0       0       0       0       0       0       0       0       0
       0       0       0       0       0       0       0       0       0       0
       0       0       0       0       0       0       0       0       0       0
       0       0       0       0       0       0       0       0       0       0
       0       0       0       0       0       0       0       0       0       0
       0       0       0       0       0       0       0       0       0       0
       0       0       0       0       0       0       0       0       0       0
       0       0       0       0       0       0       0       0       0       0
       0       0       0       0       0       0       0       0       0       0
       0       0       0       0       0       0       0       0       0       0
       0       0       0       0       0       0       0       0       0       0
       0       0       0       0       0       0       0       0       0       0
       0       0       0       0       0       0       0       0       0       0
       0       0       0       0       0       0       0       0       0       0
       0       0       0       0       0       0       0       0       0       0
       0       0       0       0       0       0       0       0       0       0
       0       0       0       0       0       0       0       0       0       0
       0       0       0       0       0       0       0       0       0       0
       0       0       0       0       0       0       0       0       0       0
       0       0       0       0       0       0       0       0       0       0
       0       0       0       0       0       0       0       0       0       0
       0       0       0       0       0       0       0       0       0       0
       0       0       0       0       0       0       0       0       0       0
       0       0       0       0       0       0       0       0       0       0
       0       0       0       0       0       0       0       0       0       0
       0       0       0       0       0       0       0       0       0       0
       0       0       0       0       0       0       0       0       0       0
       0       0       0       0       0       0       0       0       0       0
       0       0       0       0       0       0       0       0       0       0
       0       0       0       0       0       0       0       0       0       0
       0       0       0       0       0       0       0       0       0       0
       0       0       0       0       0       0       0       0       0       0
       0       0       0       0       0       0       0       0       0       0
       0       0       0       0       0       0       0       0       0       0
       0       0       0       0       0       0       0       0       0       0
       0       0       0       0       0       0       0       0       0       0
       0       0       0       0       0       0       0       0       0       0
       0       0       0       0       0       0       0       0       0       0
       0       0       0       0       0       0       0       0       0       0
       0       0       0       0       0       0       0       0       0       0
       0       0       0       0       0       0       0       0       0       0
       0       0       0       0       0       0       0       0       0       0
       0       0       0       0       0       0       0       0       0       0
       0       0       0       0       0       0       0       0       0       0
       0       0       0       0       0       0       0       0       0       0
       0       0       0       0       0       0       0       0       0       0
       0       0       0       0       0       0       0       0       0       0
       0       0       0       0       0       0       0       0       0       0
       0       0       0       0       0       0       0       0       0       0
       0       0       0       0       0       0       0       0       0       0
       0       0       0       0       0       0       0       0       0       0
       0       0       0       0       0       0       0       0       0       0
       0       0       0       0       0       0       0       0       0       0
       0       0       0       0       0       0       0       0       0       0
       0       0       0       0       0       0       0       0       0       0
       0       0       0       0       0       0       0       0       0       0
       0       0       0       0       0       0       0       0       0       0
       0       0       0       0       0       0       0       0       0       0
       0       0       0       0       0       0       0       0       0       0
       0       0       0       0       0       0       0       0       0       0
       0       0       0       0       0       0       0       0       0       0
       0       0       0       0       0       0       0       0       0       0
       0       0       0       0       0       0       0       0       0       0
       0       0       0       0       0       0       0       0       0       0
       0       0       0       0       0       0       0       0       0       0
       0       0       0       0       0       0       0       0       0       0
       0       0       0       0       0       0       0       0       0       0
       0       0       0       0       0       0       0       0       0       0
       0       0       0       0       0       0       0       0       0       0
       0       0       0       0       0       0       0       0       0       0
       0       0       0       0       0       0       0       0       0       0
       0       0       0       0       0       0       0       0       0       0
       0       0       0       0       0       0       0       0       0       0
       0       0       0       0       0       0       0       0       0       0
       0       0       0       0       0       0       0       0       0       0
       0       0       0       0       0       0       0       0       0       0
       0       0       0       0       0       0       0       0       0       0
       0       0       0       0       0       0       0       0       0       0
       0       0       0       0       0       0       0       0       0       0
       0       0       0       0       0       0       0       0       0       0
       0       0       0       0       0       0       0       0       0       0
       0       0       0       0       0       0       0       0       0       0
       0       0       0       0       0       0       0       0       0       0
       0       0       0       0       0       0       0       0       0       0
       0       0       0       0       0       0       0       0       0       0
       0       0       0       0       0       0       0       0       0       0
       0       0       0       0       0       0       0       0       0       0
       0       0       0       0       0       0       0       0       0       0
       0       0       0       0       0       0       0       0       0       0
       0       0       0       0       0       0       0       0       0       0
       0       0       0       0       0       0       0       0       0       0
       0       0       0       0       0       0       0       0       0       0
       0       0       0       0       0       0       0       0       0       0
       0       0       0       0       0       0       0       0       0       0
       0       0       0       0       0       0       0       0       0       0
       0       0       0       0       0       0       0       0       0       0
       0       0       0       0       0       0       0       0       0       0
       0       0       0       0       0       0       0       0       0       0
       0       0       0       0       0       0       0       0       0       0
       0       0       0       0       0       0       0       0       0       0
       0       0       0       0       0       0       0       0       0       0
       0       0       0       0       0       0       0       0       0       0
       0       0       0       0       0       0       0       0       0       0
       0       0       0       0       0       0       0       0       0       0
       0       0       0       0       0       0       0       0       0       0
       0       0       0       0       0       0       0       0       0       0
       0       0       0       0       0       0       0       0       0       0
       0       0       0       0       0       0       0       0       0       0
       0       0       0       0       0       0       0       0       0       0
       0       0       0       0       0       0       0       0       0       0
       0       0       0       0       0       0       0       0       0       0
       0       0       0       0       0       0       0       0       0       0
       0       0       0       0       0       0       0       0       0       0
       0       0       0       0       0       0       0       0       0       0
       0       0       0       0       0       0       0       0       0       0
       0       0       0       0       0       0       0       0       0       0
       0       0       0       0       0       0       0       0       0       0
       0       0       0       0       0       0       0       0       0       0
       0       0       0       0       0       0       0       0       0       0
       0       0       0       0       0       0       0       0       0       0
       0       0       0       0       0       0       0       0       0       0
       0       0       0       0       0       0       0       0       0       0
       0       0       0       0       0       0       0       0       0       0
       0       0       0       0       0       0       0       0       0       0
       0       0       0       0       0       0       0       0       0       0
       0       0       0       0       0       0       0       0       0       0
       0       0       0       0       0       0       0       0       0       0
       0       0       0       0       0       0       0       0       0       0
       0       0       0       0       0       0       0       0       0       0
       0       0       0       0       0       0       0       0       0       0
       0       0       0       0       0       0       0       0       0       0
       0       0       0       0       0       0       0       0       0       0
       0       0       0       0       0       0       0       0       0       0
       0       0       0       0       0       0       0       0       0       0
       0       0       0       0       0       0       0       0       0       0
       0       0       0       0       0       0       0       0       0       0
       0       0       0       0       0       0       0       0       0       0
       0       0       0       0       0       0       0       0       0       0
       0       0       0       0       0       0       0       0       0       0
       0       0       0       0       0       0       0       0       0       0
       0       0       0       0       0       0       0       0       0       0
       0       0       0       0       0       0       0       0       0       0
       0       0       0       0       0       0       0       0       0       0
       0       0       0       0       0       0       0       0       0       0
       0       0       0       0       0       0       0       0       0       0
       0       0       0       0       0       0       0       0       0       0
       0       0       0       0       0       0       0       0       0       0
       0       0       0       0       0       0       0       0       0       0
       0       0       0       0       0       0       0       0       0       0
       0       0       0       0       0       0       0       0       0       0
       0       0       0       0       0       0       0       0       0       0
       0       0       0       0       0       0       0       0       0       0
       0       0       0       0       0       0       0       0       0       0
       0       0       0       0       0       0       0       0       0       0
       0       0       0       0       0       0       0       0       0       0
       0       0       0       0       0       0       0       0       0       0
       0       0       0       0       0       0       0       0       0       0
       0       0       0       0       0       0       0       0       0       0
       0       0       0       0       0       0       0       0       0       0
       0       0       0       0       0       0       0       0       0       0
       0       0       0       0       0       0       0       0       0       0
       0       0       0       0       0       0       0       0       0       0
       0       0       0       0       0       0       0       0       0       0
       0       0       0       0       0       0       0       0       0       0
       0       0       0       0       0       0       0       0       0       0
       0       0       0       0       0       0       0       0       0       0
       0       0       0       0       0       0       0       0       0       0
       0       0       0       0       0       0       0       0       0       0
       0       0       0       0       0       0       0       0       0       0
       0       0       0       0       0       0       0       0       0       0
       0       0       0       0       0       0       0       0       0       0
       0       0       0       0       0       0       0       0       0       0
       0       0       0       0       0       0       0       0       0       0
       0       0       0       0       0       0       0       0       0       0
       0       0       0       0       0       0       0       0       0       0
       0       0       0       0       0       0       0       0       0       0
       0       0       0       0       0       0       0       0       0       0
       0       0       0       0       0       0       0       0       0       0
       0       0       0       0       0       0       0       0       0       0
       0       0       0       0       0       0       0       0       0       0
       0       0       0       0       0       0       0       0       0       0
       0       0       0       0       0       0       0       0       0       0
       0       0       0       0       0       0       0       0       0       0
       0       0       0       0       0       0       0       0       0       0
       0       0       0       0       0       0       0       0       0       0
       0       0       0       0       0       0       0       0       0       0
       0       0       0       0       0       0       0       0       0       0
       0       0       0       0       0       0       0       0       0       0
       0       0       0       0       0       0       0       0       0       0
       0       0       0       0       0       0       0       0       0       0
       0       0       0       0       0       0       0       0       0       0
       0       0       0       0       0       0       0       0       0       0
       0       0       0       0       0       0       0       0       0       0
       0       0       0       0       0       0       0       0       0       0
       0       0       0       0       0       0       0       0       0       0
       0       0       0       0       0       0       0       0       0       0
       0       0       0       0       0       0       0       0       0       0
       0       0       0       0       0       0       0       0       0       0
       0       0       0       0       0       0       0       0       0       0
       0       0       0       0       0       0       0       0       0       0
       0       0       0       0       0       0       0       0       0       0
       0       0       0       0       0       0       0       0       0       0
       0       0       0       0       0       0       0       0       0       0
       0       0       0       0       0       0       0       0       0       0
       0       0       0       0       0       0       0       0       0       0
       0       0       0       0       0       0       0       0       0       0
       0       0       0       0       0       0       0       0       0       0
       0       0       0       0       0       0       0       0       0       0
       0       0       0       0       0       0       0       0       0       0
       0       0       0       0       0       0       0       0       0       0
       0       0       0       0       0       0       0       0       0       0
       0       0       0       0       0       0       0       0       0       0
       0       0       0       0       0       0       0       0       0       0
       0       0       0       0       0       0       0       0       0       0
       0       0       0       0       0       0       0       0       0       0
       0       0       0       0       0       0       0       0       0       0
       0       0       0       0       0       0       0       0       0       0
       0       0       0       0       0       0       0       0       0       0
       0       0       0       0       0       0       0       0       0       0
       0       0       0       0       0       0       0       0       0       0
       0       0       0       0       0       0       0       0       0       0
       0       0       0       0       0       0       0       0       0       0
       0       0       0       0       0       0       0       0       0       0
       0       0       0       0       0       0       0       0       0       0
       0       0       0       0       0       0       0       0       0       0
       0       0       0       0       0       0       0       0       0       0
       0       0       0       0       0       0       0       0       0       0
       0       0       0       0       0       0       0       0       0       0
       0       0       0       0       0       0       0       0       0       0
       0       0       0       0       0       0       0       0       0       0
       0       0       0       0       0       0       0       0       0       0
       0       0       0       0       0       0       0       0       0       0
       0       0       0       0       0       0       0       0       0       0
       0       0       0       0       0       0       0       0       0       0
       0       0       0       0       0       0       0       0       0       0
       0       0       0       0       0       0       0       0       0       0
       0       0       0       0       0       0       0       0       0       0
       0       0       0       0       0       0       0       0       0       0
       0       0       0       0       0       0       0       0       0       0
       0       0       0       0       0       0       0       0       0       0
       0       0       0       0       0       0       0       0       0       0
       0       0       0       0       0       0       0       0       0       0
       0       0       0       0       0       0       0       0       0       0
       0       0       0       0       0       0       0       0       0       0
       0       0       0       0       0       0       0       0       0       0
       0       0       0       0       0       0       0       0       0       0
       0       0       0       0       0       0       0       0       0       0
       0       0       0       0       0       0       0       0       0       0
       0       0       0       0       0       0       0       0       0       0
       0       0       0       0       0       0       0       0       0       0
       0       0       0       0       0       0       0       0       0       0
       0       0       0       0       0       0       0       0       0       0
       0       0       0       0       0       0       0       0       0       0
       0       0       0       0       0       0       0       0       0       0
       0       0       0       0       0       0       0       0       0       0
       0       0       0       0       0       0       0       0       0       0
       0       0       0       0       0       0       0       0       0       0
       0       0       0       0       0       0       0       0       0       0
       0       0       0       0       0       0       0       0       0       0
       0       0       0       0       0       0       0       0       0       0
       0       0       0       0       0       0       0       0       0       0
       0       0       0       0       0       0       0       0       0       0
       0       0       0       0       0       0       0       0       0       0
       0       0       0       0       0       0       0       0       0       0
       0       0       0       0       0       0       0       0       0       0
       0       0       0       0       0       0       0       0       0       0
       0       0       0       0       0       0       0       0       0       0
       0       0       0       0       0       0       0       0       0       0
       0       0       0       0       0       0       0       0       0       0
       0       0       0       0       0       0       0       0       0       0
       0       0       0       0       0       0       0       0       0       0
       0       0       0       0       0       0       0       0       0       0
       0       0       0       0       0       0       0       0       0       0
       0       0       0       0       0       0       0       0       0       0
       0       0       0       0       0       0       0       0       0       0
       0       0       0       0       0       0       0       0       0       0
       0       0       0       0       0       0       0       0       0       0
       0       0       0       0       0       0       0       0       0       0
       0       0       0       0       0       0       0       0       0       0
       0       0       0       0       0       0       0       0       0       0
       0       0       0       0       0       0       0       0       0       0
       0       0       0       0       0       0       0       0       0       0
       0       0       0       0       0       0       0       0       0       0
       0       0       0       0       0       0       0       0       0       0
       0       0       0       0       0       0       0       0       0       0
       0       0       0       0       0       0       0       0       0       0
       0       0       0       0       0       0       0       0       0       0
       0       0       0       0       0       0       0       0       0       0
       0       0       0       0       0       0       0       0       0       0
       0       0       0       0       0       0       0       0       0       0
       0       0       0       0       0       0       0       0       0       0
       0       0       0       0       0       0       0       0       0       0
       0       0       0       0       0       0       0       0       0       0
       0       0       0       0       0       0       0       0       0       0
       0       0       0       0       0       0       0       0       0       0
       0       0       0       0       0       0       0       0       0       0
       0       0       0       0       0       0       0       0       0       0
       0       0       0       0       0       0       0       0       0       0
       0       0       0       0       0       0       0       0       0       0
       0       0       0       0       0       0       0       0       0       0
       0       0       0       0       0       0       0       0       0       0
       0       0       0       0       0       0       0       0       0       0
       0       0       0       0       0       0       0       0       0       0
       0       0       0       0       0       0       0       0       0       0
       0       0       0       0       0       0       0       0       0       0
       0       0       0       0       0       0       0       0       0       0
       0       0       0       0       0       0       0       0       0       0
       0       0       0       0       0       0       0       0       0       0
       0       0       0       0       0       0       0       0       0       0
       0       0       0       0       0       0       0       0       0       0
       0       0       0       0       0       0       0       0       0       0
       0       0       0       0       0       0       0       0       0       0
       0       0       0       0       0       0       0       0       0       0
       0       0       0       0       0       0       0       0       0       0
       0       0       0       0       0       0       0       0       0       0
       0       0       0       0       0       0       0       0       0       0
       0       0       0       0       0       0       0       0       0       0
       0       0       0       0       0       0       0       0       0       0
       0       0       0       0       0       0       0       0       0       0
       0       0       0       0       0       0       0       0       0       0
       0       0       0       0       0       0       0       0       0       0
       0       0       0       0       0       0       0       0       0       0
       0       0       0       0       0       0       0       0       0       0
       0       0       0       0       0       0       0       0       0       0
       0       0       0       0       0       0       0       0       0       0
       0       0       0       0       0       0       0       0       0       0
       0       0       0       0       0       0       0       0       0       0
       0       0       0       0       0       0       0       0       0       0
       0       0       0       0       0       0       0       0       0       0
       0       0       0       0       0       0       0       0       0       0
       0       0       0       0       0       0       0       0       0       0
       0       0       0       0       0       0       0       0       0       0
       0       0       0       0       0       0       0       0       0       0
       0       0       0       0       0       0       0       0       0       0
       0       0       0       0       0       0       0       0       0       0
       0       0       0       0       0       0       0       0       0       0
       0       0       0       0       0       0       0       0       0       0
       0       0       0       0       0       0       0       0       0       0
       0       0       0       0       0       0       0       0       0       0
       0       0       0       0       0       0       0       0       0       0
       0       0       0       0       0       0       0       0       0       0
       0       0       0       0       0       0       0       0       0       0
       0       0       0       0       0       0       0       0       0       0
       0       0       0       0       0       0       0       0       0       0
       0       0       0       0       0       0       0       0       0       0
       0       0       0       0       0       0       0       0       0       0
       0       0       0       0       0       0       0       0       0       0
       0       0       0       0       0       0       0       0       0       0
       0       0       0       0       0       0       0       0       0       0
       0       0       0       0       0       0       0       0       0       0
       0       0       0       0       0       0       0       0       0       0
       0       0       0       0       0       0       0       0       0       0
       0       0       0       0       0       0       0       0       0       0
       0       0       0       0       0       0       0       0       0       0
       0       0       0       0       0       0       0       0       0       0
       0       0       0       0       0       0       0       0       0       0
       0       0       0       0       0       0       0       0       0       0
       0       0       0       0       0       0       0       0       0       0
       0       0       0       0       0       0       0       0       0       0
       0       0       0       0       0       0       0       0       0       0
       0       0       0       0       0       0       0       0       0       0
       0       0       0       0       0       0       0       0       0       0
       0       0       0       0       0       0       0       0       0       0
       0       0       0       0       0       0       0       0       0       0
       0       0       0       0       0       0       0       0       0       0
       0       0       0       0       0       0       0       0       0       0
       0       0       0       0       0       0       0       0       0       0
       0       0       0       0       0       0       0       0       0       0
       0       0       0       0       0       0       0       0       0       0
       0       0       0       0       0       0       0       0       0       0
       0       0       0       0       0       0       0       0       0       0
       0       0       0       0       0       0       0       0       0       0
       0       0       0       0       0       0       0       0       0       0
       0       0       0       0       0       0       0       0       0       0
       0       0       0       0       0       0       0       0       0       0
       0       0       0       0       0       0       0       0       0       0
       0       0       0       0       0       0       0       0       0       0
       0       0       0       0       0       0       0       0       0       0
       0       0       0       0       0       0       0       0       0       0
       0       0       0       0       0       0       0       0       0       0
       0       0       0       0       0       0       0       0       0       0
       0       0       0       0       0       0       0       0       0       0
       0       0       0       0       0       0       0       0       0       0
       0       0       0       0       0       0       0       0       0       0
       0       0       0       0       0       0       0       0       0       0
       0       0       0       0       0       0       0       0       0       0
       0       0       0       0       0       0       0       0       0       0
       0       0       0       0       0       0       0       0       0       0
       0       0       0       0       0       0       0       0       0       0
       0       0       0       0       0       0       0       0       0       0
       0       0       0       0       0       0       0       0       0       0
       0       0       0       0       0       0       0       0       0       0
       0       0       0       0       0       0       0       0       0       0
       0       0       0       0       0       0       0       0       0       0
       0       0       0       0       0       0       0       0       0       0
       0       0       0       0       0       0       0       0       0       0
       0       0       0       0       0       0       0       0       0       0
       0       0       0       0       0       0       0       0       0       0
       0       0       0       0       0       0       0       0       0       0
       0       0       0       0       0       0       0       0       0       0
       0       0       0       0       0       0       0       0       0       0
       0       0       0       0       0       0       0       0       0       0
       0       0       0       0       0       0       0       0       0       0
       0       0       0       0       0       0       0       0       0       0
       0       0       0       0       0       0       0       0       0       0
       0       0       0       0       0       0       0       0       0       0
       0       0       0       0       0       0       0       0       0       0
       0       0       0       0       0       0       0       0       0       0
       0       0       0       0       0       0       0       0       0       0
       0       0       0       0       0       0       0       0       0       0
       0       0       0       0       0       0       0       0       0       0
       0       0       0       0       0       0       0       0       0       0
       0       0       0       0       0       0       0       0       0       0
       0       0       0       0       0       0       0       0       0       0
       0       0       0       0       0       0       0       0       0       0
       0       0       0       0       0       0       0       0       0       0
       0       0       0       0       0       0       0       0       0       0
       0       0       0       0       0       0       0       0       0       0
       0       0       0       0       0       0       0       0       0       0
       0       0       0       0       0       0       0       0       0       0
       0       0       0       0       0       0       0       0       0       0
       0       0       0       0       0       0       0       0       0       0
       0       0       0       0       0       0       0       0       0       0
       0       0       0       0       0       0       0       0       0       0
       0       0       0       0       0       0       0       0       0       0
       0       0       0       0       0       0       0       0       0       0
       0       0       0       0       0       0       0       0       0       0
       0       0       0       0       0       0       0       0       0       0
       0       0       0       0       0       0       0       0       0       0
       0       0       0       0       0       0       0       0       0       0
       0       0       0       0       0       0       0       0       0       0
       0       0       0       0       0       0       0       0       0       0
       0       0       0       0       0       0       0       0       0       0
       0       0       0       0       0       0       0       0       0       0
       0       0       0       0       0       0       0       0       0       0
       0       0       0       0       0       0       0       0       0       0
       0       0       0       0       0       0       0       0       0       0
       0       0       0       0       0       0       0       0       0       0
       0       0       0       0       0       0       0       0       0       0
       0       0       0       0       0       0       0       0       0       0
       0       0       0       0       0       0       0       0       0       0
       0       0       0       0       0       0       0       0       0       0
       0       0       0       0       0       0       0       0       0       0
       0       0       0       0       0       0       0       0       0       0
       0       0       0       0       0       0       0       0       0       0
       0       0       0       0       0       0       0       0       0       0
       0       0       0       0       0       0       0       0       0       0
       0       0       0       0       0       0       0       0       0       0
       0       0       0       0       0       0       0       0       0       0
       0       0       0       0       0       0       0       0       0       0
       0       0       0       0       0       0       0       0       0       0
       0       0       0       0       0       0       0       0       0       0
       0       0       0       0       0       0       0       0       0       0
       0       0       0       0       0       0       0       0       0       0
       0       0       0       0       0       0       0       0       0       0
       0       0       0       0       0       0       0       0       0       0
       0       0       0       0       0       0       0       0       0       0
       0       0       0       0       0       0       0       0       0       0
       0       0       0       0       0       0       0       0       0       0
       0       0       0       0       0       0       0       0       0       0
       0       0       0       0       0       0       0       0       0       0
       0       0       0       0       0       0       0       0       0       0
       0       0       0       0       0       0       0       0       0       0
       0       0       0       0       0       0       0       0       0       0
       0       0       0       0       0       0       0       0       0       0
       0       0       0       0       0       0       0       0       0       0
       0       0       0       0       0       0       0       0       0       0
       0       0       0       0       0       0       0       0       0       0
       0       0       0       0       0       0       0       0       0       0
       0       0       0       0       0       0       0       0       0       0
       0       0       0       0       0       0       0       0       0       0
       0       0       0       0       0       0       0       0       0       0
       0       0       0       0       0       0       0       0       0       0
       0       0       0       0       0       0       0       0       0       0
       0       0       0       0       0       0       0       0       0       0
       0       0       0       0       0       0       0       0       0       0
       0       0       0       0       0       0       0       0       0       0
       0       0       0       0       0       0       0       0       0       0
       0       0       0       0       0       0       0       0       0       0
       0       0       0       0       0       0       0       0       0       0
       0       0       0       0       0       0       0       0       0       0
       0       0       0       0       0       0       0       0       0       0
       0       0       0       0       0       0       0       0       0       0
       0       0       0       0       0       0       0       0       0       0
       0       0       0       0       0       0       0       0       0       0
       0       0       0       0       0       0       0       0       0       0
       0       0       0       0       0       0       0       0       0       0
       0       0       0       0       0       0       0       0       0       0
       0       0       0       0       0       0       0       0       0       0
       0       0       0       0       0       0       0       0       0       0
       0       0       0       0       0       0       0       0       0       0
       0       0       0       0       0       0       0       0       0       0
       0       0       0       0       0       0       0       0       0       0
       0       0       0       0       0       0       0       0       0       0
       0       0       0       0       0       0       0       0       0       0
       0       0       0       0       0       0       0       0       0       0
       0       0       0       0       0       0       0       0       0       0
       0       0       0       0       0       0       0       0       0       0
       0       0       0       0       0       0       0       0       0       0
       0       0       0       0       0       0       0       0       0       0
       0       0       0       0       0       0       0       0       0       0
       0       0       0       0       0       0       0       0       0       0
       0       0       0       0       0       0       0       0       0       0
       0       0       0       0       0       0       0       0       0       0
       0       0       0       0       0       0       0       0       0       0
       0       0       0       0       0       0       0       0       0       0
       0       0       0       0       0       0       0       0       0       0
       0       0       0       0       0       0       0       0       0       0
       0       0       0       0       0       0       0       0       0       0
       0       0       0       0       0       0       0       0       0       0
       0       0       0       0       0       0       0       0       0       0
       0       0       0       0       0       0       0       0       0       0
       0       0       0       0       0       0       0       0       0       0
       0       0       0       0       0       0       0       0       0       0
       0       0       0       0       0       0       0       0       0       0
       0       0       0       0       0       0       0       0       0       0
       0       0       0       0       0       0       0       0       0       0
       0       0       0       0       0       0       0       0       0       0
       0       0       0       0       0       0       0       0       0       0
       0       0       0       0       0       0       0       0       0       0
       0       0       0       0       0       0       0       0       0       0
       0       0       0       0       0       0       0       0       0       0
       0       0       0       0       0       0       0       0       0       0
       0       0       0       0       0       0       0       0       0       0
       0       0       0       0       0       0       0       0       0       0
       0       0       0       0       0       0       0       0       0       0
       0       0       0       0       0       0       0       0       0       0
       0       0       0       0       0       0       0       0       0       0
       0       0       0       0       0       0       0       0       0       0
       0       0       0       0       0       0       0       0       0       0
       0       0       0       0       0       0       0       0       0       0
       0       0       0       0       0       0       0       0       0       0
       0       0       0       0       0       0       0       0       0       0
       0       0       0       0       0       0       0       0       0       0
       0       0       0       0       0       0       0       0       0       0
       0       0       0       0       0       0       0       0       0       0
       0       0       0       0       0       0       0       0       0       0
       0       0       0       0       0       0       0       0       0       0
       0       0       0       0       0       0       0       0       0       0
       0       0       0       0       0       0       0       0       0       0
       0       0       0       0       0       0       0       0       0       0
       0       0       0       0       0       0       0       0       0       0
       0       0       0       0       0       0       0       0       0       0
       0       0       0       0       0       0       0       0       0       0
       0       0       0       0       0       0       0       0       0       0
       0       0       0       0       0       0       0       0       0       0
       0       0       0       0       0       0       0       0       0       0
       0       0       0       0       0       0       0       0       0       0
       0       0       0       0       0       0       0       0       0       0
       0       0       0       0       0       0       0       0       0       0
       0       0       0       0       0       0       0       0       0       0
       0       0       0       0       0       0       0       0       0       0
       0       0       0       0       0       0       0       0       0       0
       0       0       0       0       0       0       0       0       0       0
       0       0       0       0       0       0       0       0       0       0
       0       0       0       0       0       0       0       0       0       0
       0       0       0       0       0       0       0       0       0       0
       0       0       0       0       0       0       0       0       0       0
       0       0       0       0       0       0       0       0       0       0
       0       0       0       0       0       0       0       0       0       0
       0       0       0       0       0       0       0       0       0       0
       0       0       0       0       0       0       0       0       0       0
       0       0       0       0       0       0       0       0       0       0
       0       0       0       0       0       0       0       0       0       0
       0       0       0       0       0       0       0       0       0       0
       0       0       0       0       0       0       0       0       0       0
       0       0       0       0       0       0       0       0       0       0
       0       0       0       0       0       0       0       0       0       0
       0       0       0       0       0       0       0       0       0       0
       0       0       0       0       0       0       0       0       0       0
       0       0       0       0       0       0       0       0       0       0
       0       0       0       0       0       0       0       0       0       0
       0       0       0       0       0       0       0       0       0       0
       0       0       0       0       0       0       0       0       0       0
       0       0       0       0       0       0       0       0       0       0
       0       0       0       0       0       0       0       0       0       0
       0       0       0       0       0       0       0       0       0       0
       0       0       0       0       0       0       0       0       0       0
       0       0       0       0       0       0       0       0       0       0
       0       0       0       0       0       0       0       0       0       0
       0       0       0       0       0       0       0       0       0       0
       0       0       0       0       0       0       0       0       0       0
       0       0       0       0       0       0       0       0       0       0
       0       0       0       0       0       0       0       0       0       0
       0       0       0       0       0       0       0       0       0       0
       0       0       0       0       0       0       0       0       0       0
       0       0       0       0       0       0       0       0       0       0
       0       0       0       0       0       0       0       0       0       0
       0       0       0       0       0       0       0       0       0       0
       0       0       0       0       0       0       0       0       0       0
       0       0       0       0       0       0       0       0       0       0
       0       0       0       0       0       0       0       0       0       0
       0       0       0       0       0       0       0       0       0       0
       0       0       0       0       0       0       0       0       0       0
       0       0       0       0       0       0       0       0       0       0
       0       0       0       0       0       0       0       0       0       0
       0       0       0       0       0       0       0       0       0       0
       0       0       0       0       0       0       0       0       0       0
       0       0       0       0       0       0       0       0       0       0
       0       0       0       0       0       0       0       0       0       0
       0       0       0       0       0       0       0       0       0       0
       0       0       0       0       0       0       0       0       0       0
       0       0       0       0       0       0       0       0       0       0
       0       0       0       0       0       0       0       0       0       0
       0       0       0       0       0       0       0       0       0       0
       0       0       0       0       0       0       0       0       0       0
       0       0       0       0       0       0       0       0       0       0
       0       0       0       0       0       0       0       0       0       0
       0       0       0       0       0       0       0       0       0       0
       0       0       0       0       0       0       0       0       0       0
       0       0       0       0       0       0       0       0       0       0
       0       0       0       0       0       0       0       0       0       0
       0       0       0       0       0       0       0       0       0       0
       0       0       0       0       0       0       0       0       0       0
       0       0       0       0       0       0       0       0       0       0
       0       0       0       0       0       0       0       0       0       0
       0       0       0       0       0       0       0       0       0       0
       0       0       0       0       0       0       0       0       0       0
       0       0       0       0       0       0       0       0       0       0
       0       0       0       0       0       0       0       0       0       0
       0       0       0       0       0       0       0       0       0       0
       0       0       0       0       0       0       0       0       0       0
       0       0       0       0       0       0       0       0       0       0
       0       0       0       0       0       0       0       0       0       0
       0       0       0       0       0       0       0       0       0       0
       0       0       0       0       0       0       0       0       0       0
       0       0       0       0       0       0       0       0       0       0
       0       0       0       0       0       0       0       0       0       0
       0       0       0       0       0       0       0       0       0       0
       0       0       0       0       0       0       0       0       0       0
       0       0       0       0       0       0       0       0       0       0
       0       0       0       0       0       0       0       0       0       0
       0       0       0       0       0       0       0       0       0       0
       0       0       0       0       0       0       0       0       0       0
       0       0       0       0       0       0       0       0       0       0
       0       0       0       0       0       0       0       0       0       0
       0       0       0       0       0       0       0       0       0       0
       0       0       0       0       0       0       0       0       0       0
       0       0       0       0       0       0       0       0       0       0
       0       0       0       0       0       0       0       0       0       0
       0       0       0       0       0       0       0       0       0       0
       0       0       0       0       0       0       0       0       0       0
       0       0       0       0       0       0       0       0       0       0
       0       0       0       0       0       0       0       0       0       0
       0       0       0       0       0       0       0       0       0       0
       0       0       0       0       0       0       0       0       0       0
       0       0       0       0       0       0       0       0       0       0
       0       0       0       0       0       0       0       0       0       0
       0       0       0       0       0       0       0       0       0       0
       0       0       0       0       0       0       0       0       0       0
       0       0       0       0       0       0       0       0       0       0
       0       0       0       0       0       0       0       0       0       0
       0       0       0       0       0       0       0       0       0       0
       0       0       0       0       0       0       0       0       0       0
       0       0       0       0       0       0       0       0       0       0
       0       0       0       0       0       0       0       0       0       0
       0       0       0       0       0       0       0       0       0       0
       0       0       0       0       0       0       0       0       0       0
       0       0       0       0       0       0       0       0       0       0
       0       0       0       0       0       0       0       0       0       0
       0       0       0       0       0       0       0       0       0       0
       0       0       0       0       0       0       0       0       0       0
       0       0       0       0       0       0       0       0       0       0
       0       0       0       0       0       0       0       0       0       0
       0       0       0       0       0       0       0       0       0       0
       0       0       0       0       0       0       0       0       0       0
       0       0       0       0       0       0       0       0       0       0
       0       0       0       0       0       0       0       0       0       0
       0       0       0       0       0       0       0       0       0       0
       0       0       0       0       0       0       0       0       0       0
       0       0       0       0       0       0       0       0       0       0
       0       0       0       0       0       0       0       0       0       0
       0       0       0       0       0       0       0       0       0       0
       0       0       0       0       0       0       0       0       0       0
       0       0       0       0       0       0       0       0       0       0
       0       0       0       0       0       0       0       0       0       0
       0       0       0       0       0       0       0       0       0       0
       0       0       0       0       0       0       0       0       0       0
       0       0       0       0       0       0       0       0       0       0
       0       0       0       0       0       0       0       0       0       0
       0       0       0       0       0       0       0       0       0       0
       0       0       0       0       0       0       0       0       0       0
       0       0       0       0       0       0       0       0       0       0
       0       0       0       0       0       0       0       0       0       0
       0       0       0       0       0       0       0       0       0       0
       0       0       0       0       0       0       0       0       0       0
       0       0       0       0       0       0       0       0       0       0
       0       0       0       0       0       0       0       0       0       0
       0       0       0       0       0       0       0       0       0       0
       0       0       0       0       0       0       0       0       0       0
       0       0       0       0       0       0       0       0       0       0
       0       0       0       0       0       0       0       0       0       0
       0       0       0       0       0       0       0       0       0       0
       0       0       0       0       0       0       0       0       0       0
       0       0       0       0       0       0       0       0       0       0
       0       0       0       0       0       0       0       0       0       0
       0       0       0       0       0       0       0       0       0       0
       0       0       0       0       0       0       0       0       0       0
       0       0       0       0       0       0       0       0       0       0
       0       0       0       0       0       0       0       0       0       0
       0       0       0       0       0       0       0       0       0       0
       0       0       0       0       0       0       0       0       0       0
       0       0       0       0       0       0       0       0       0       0
       0       0       0       0       0       0       0       0       0       0
       0       0       0       0       0       0       0       0       0       0
       0       0       0       0       0       0       0       0       0       0
       0       0       0       0       0       0       0       0       0       0
       0       0       0       0       0       0       0       0       0       0
       0       0       0       0       0       0       0       0       0       0
       0       0       0       0       0       0       0       0       0       0
       0       0       0       0       0       0       0       0       0       0
       0       0       0       0       0       0       0       0       0       0
       0       0       0       0       0       0       0       0       0       0
       0       0       0       0       0       0       0       0       0       0
       0       0       0       0       0       0       0       0       0       0
       0       0       0       0       0       0       0       0       0       0
       0       0       0       0       0       0       0       0       0       0
       0       0       0       0       0       0       0       0       0       0
       0       0       0       0       0       0       0       0       0       0
       0       0       0       0       0       0       0       0       0       0
       0       0       0       0       0       0       0       0       0       0
       0       0       0       0       0       0       0       0       0       0
       0       0       0       0       0       0       0       0       0       0
       0       0       0       0       0       0       0       0       0       0
       0       0       0       0       0       0       0       0       0       0
       0       0       0       0       0       0       0       0       0       0
       0       0       0       0       0       0       0       0       0       0
       0       0       0       0       0       0       0       0       0       0
       0       0       0       0       0       0       0       0       0       0
       0       0       0       0       0       0       0       0       0       0
       0       0       0       0       0       0       0       0       0       0
       0       0       0       0       0       0       0       0       0       0
       0       0       0       0       0       0       0       0       0       0
       0       0       0       0       0       0       0       0       0       0
       0       0       0       0       0       0       0       0       0       0
       0       0       0       0       0       0       0       0       0       0
       0       0       0       0       0       0       0       0       0       0
       0       0       0       0       0       0       0       0       0       0
       0       0       0       0       0       0       0       0       0       0
       0       0       0       0       0       0       0       0       0       0
       0       0       0       0       0       0       0       0       0       0
       0       0       0       0       0       0       0       0       0       0
       0       0       0       0       0       0       0       0       0       0
       0       0       0       0       0       0       0       0       0       0
       0       0       0       0       0       0       0       0       0       0
       0       0       0       0       0       0       0       0       0       0
       0       0       0       0       0       0       0       0       0       0
       0       0       0       0       0       0       0       0       0       0
       0       0       0       0       0       0       0       0       0       0
       0       0       0       0       0       0       0       0       0       0
       0       0       0       0       0       0       0       0       0       0
       0       0       0       0       0       0       0       0       0       0
       0       0       0       0       0       0       0       0       0       0
       0       0       0       0       0       0       0       0       0       0
       0       0       0       0       0       0       0       0       0       0
       0       0       0       0       0       0       0       0       0       0
       0       0       0       0       0       0       0       0       0       0
       0       0       0       0       0       0       0       0       0       0
       0       0       0       0       0       0       0       0       0       0
       0       0       0       0       0       0       0       0       0       0
       0       0       0       0       0       0       0       0       0       0
       0       0       0       0       0       0       0       0       0       0
       0       0       0       0       0       0       0       0       0       0
       0       0       0       0       0       0       0       0       0       0
       0       0       0       0       0       0       0       0       0       0
       0       0       0       0       0       0       0       0       0       0
       0       0       0       0       0       0       0       0       0       0
       0       0       0       0       0       0       0       0       0       0
       0       0       0       0       0       0       0       0       0       0
       0       0       0       0       0       0       0       0       0       0
       0       0       0       0       0       0       0       0       0       0
       0       0       0       0       0       0       0       0       0       0
       0       0       0       0       0       0       0       0       0       0
       0       0       0       0       0       0       0       0       0       0
       0       0       0       0       0       0       0       0       0       0
       0       0       0       0       0       0       0       0       0       0
       0       0       0       0       0       0       0       0       0       0
       0       0       0       0       0       0       0       0       0       0
       0       0       0       0       0       0       0       0       0       0
       0       0       0       0       0       0       0       0       0       0
       0       0       0       0       0       0       0       0       0       0
       0       0       0       0       0       0       0       0       0       0
       0       0       0       0       0       0       0       0       0       0
       0       0       0       0       0       0       0       0       0       0
       0       0       0       0       0       0       0       0       0       0
       0       0       0       0       0       0       0       0       0       0
       0       0       0       0       0       0       0       0       0       0
       0       0       0       0       0       0       0       0       0       0
       0       0       0       0       0       0       0       0       0       0
       0       0       0       0       0       0       0       0       0       0
       0       0       0       0       0       0       0       0       0       0
       0       0       0       0       0       0       0       0       0       0
       0       0       0       0       0       0       0       0       0       0
       0       0       0       0       0       0       0       0       0       0
       0       0       0       0       0       0       0       0       0       0
       0       0       0       0       0       0       0       0       0       0
       0       0       0       0       0       0       0       0       0       0
       0       0       0       0       0       0       0       0       0       0
       0       0       0       0       0       0       0       0       0       0
       0       0       0       0       0       0       0       0       0       0
       0       0       0       0       0       0       0       0       0       0
       0       0       0       0       0       0       0       0       0       0
       0       0       0       0       0       0       0       0       0       0
       0       0       0       0       0       0       0       0       0       0
       0       0       0       0       0       0       0       0       0       0
       0       0       0       0       0       0       0       0       0       0
       0       0       0       0       0       0       0       0       0       0
       0       0       0       0       0       0       0       0       0       0
       0       0       0       0       0       0       0       0       0       0
       0       0       0       0       0       0       0       0       0       0
       0       0       0       0       0       0       0       0       0       0
       0       0       0       0       0       0       0       0       0       0
       0       0       0       0       0       0       0       0       0       0
       0       0       0       0       0       0       0       0       0       0
       0       0       0       0       0       0       0       0       0       0
       0       0       0       0       0       0       0       0       0       0
       0       0       0       0       0       0       0       0       0       0
       0       0       0       0       0       0       0       0       0       0
       0       0       0       0       0       0       0       0       0       0
       0       0       0       0       0       0       0       0       0       0
       0       0       0       0       0       0       0       0       0       0
       0       0       0       0       0       0       0       0       0       0
       0       0       0       0       0       0       0       0       0       0
       0       0       0       0       0       0       0       0       0       0
       0       0       0       0       0       0       0       0       0       0
       0       0       0       0       0       0       0       0       0       0
       0       0       0       0       0       0       0       0       0       0
       0       0       0       0       0       0       0       0       0       0
       0       0       0       0       0       0       0       0       0       0
       0       0       0       0       0       0       0       0       0       0
       0       0       0       0       0       0       0       0       0       0
       0       0       0       0       0       0       0       0       0       0
       0       0       0       0       0       0       0       0       0       0
       0       0       0       0       0       0       0       0       0       0
       0       0       0       0       0       0       0       0       0       0
       0       0       0       0       0       0       0       0       0       0
       0       0       0       0       0       0       0       0       0       0
       0       0       0       0       0       0       0       0       0       0
       0       0       0       0       0       0       0       0       0       0
       0       0       0       0       0       0       0       0       0       0
       0       0       0       0       0       0       0       0       0       0
       0       0       0       0       0       0       0       0       0       0
       0       0       0       0       0       0       0       0       0       0
       0       0       0       0       0       0       0       0       0       0
       0       0       0       0       0       0       0       0       0       0
       0       0       0       0       0       0       0       0       0       0
       0       0       0       0       0       0       0       0       0       0
       0       0       0       0       0       0       0       0       0       0
       0       0       0       0       0       0       0       0       0       0
       0       0       0       0       0       0       0       0       0       0
       0       0       0       0       0       0       0       0       0       0
       0       0       0       0       0       0       0       0       0       0
       0       0       0       0       0       0       0       0       0       0
       0       0       0       0       0       0       0       0       0       0
       0       0       0       0       0       0       0       0       0       0
       0       0       0       0       0       0       0       0       0       0
       0       0       0       0       0       0       0       0       0       0
       0       0       0       0       0       0       0       0       0       0
       0       0       0       0       0       0       0       0       0       0
       0       0       0       0       0       0       0       0       0       0
       0       0       0       0       0       0       0       0       0       0
       0       0       0       0       0       0       0       0       0       0
       0       0       0       0       0       0       0       0       0       0
       0       0       0       0       0       0       0       0       0       0
       0       0       0       0       0       0       0       0       0       0
       0       0       0       0       0       0       0       0       0       0
       0       0       0       0       0       0       0       0       0       0
       0       0       0       0       0       0       0       0       0       0
       0       0       0       0       0       0       0       0       0       0
       0       0       0       0       0       0       0       0       0       0
       0       0       0       0       0       0       0       0       0       0
       0       0       0       0       0       0       0       0       0       0
       0       0       0       0       0       0       0       0       0       0
       0       0       0       0       0       0       0       0       0       0
       0       0       0       0       0       0       0       0       0       0
       0       0       0       0       0       0       0       0       0       0
       0       0       0       0       0       0       0       0       0       0
       0       0       0       0       0       0       0       0       0       0
       0       0       0       0       0       0       0       0       0       0
       0       0       0       0       0       0       0       0       0       0
       0       0       0       0       0       0       0       0       0       0
       0       0       0       0       0       0       0       0       0       0
       0       0       0       0       0       0       0       0       0       0
       0       0       0       0       0       0       0       0       0       0
       0       0       0       0       0       0       0       0       0       0
       0       0       0       0       0       0       0       0       0       0
       0       0       0       0       0       0       0       0       0       0
       0       0       0       0       0       0       0       0       0       0
       0       0       0       0       0       0       0       0       0       0
       0       0       0       0       0       0       0       0       0       0
       0       0       0       0       0       0       0       0       0       0
       0       0       0       0       0       0       0       0       0       0
       0       0       0       0       0       0       0       0       0       0
       0       0       0       0       0       0       0       0       0       0
       0       0       0       0       0       0       0       0       0       0
       0       0       0       0       0       0       0       0       0       0
       0       0       0       0       0       0       0       0       0       0
       0       0       0       0       0       0       0       0       0       0
       0       0       0       0       0       0       0       0       0       0
       0       0       0       0       0       0       0       0       0       0
       0       0       0       0       0       0       0       0       0       0
       0       0       0       0       0       0       0       0       0       0
       0       0       0       0       0       0       0       0       0       0
       0       0       0       0       0       0       0       0       0       0
       0       0       0       0       0       0       0       0       0       0
       0       0       0       0       0       0       0       0       0       0
       0       0       0       0       0       0       0       0       0       0
       0       0       0       0       0       0       0       0       0       0
       0       0       0       0       0       0       0       0       0       0
       0       0       0       0       0       0       0       0       0       0
       0       0       0       0       0       0       0       0       0       0
       0       0       0       0       0       0       0       0       0       0
       0       0       0       0       0       0       0       0       0       0
       0       0       0       0       0       0       0       0       0       0
       0       0       0       0       0       0       0       0       0       0
       0       0       0       0       0       0       0       0       0       0
       0       0       0       0       0       0       0       0       0       0
       0       0       0       0       0       0       0       0       0       0
       0       0       0       0       0       0       0       0       0       0
       0       0       0       0       0       0       0       0       0       0
       0       0       0       0       0       0       0       0       0       0
       0       0       0       0       0       0       0       0       0       0
       0       0       0       0       0       0       0       0       0       0
       0       0       0       0       0       0       0       0       0       0
       0       0       0       0       0       0       0       0       0       0
       0       0       0       0       0       0       0       0       0       0
       0       0       0       0       0       0       0       0       0       0
       0       0       0       0       0       0       0       0       0       0
       0       0       0       0       0       0       0       0       0       0
       0       0       0       0       0       0       0       0       0       0
       0       0       0       0       0       0       0       0       0       0
       0       0       0       0       0       0       0       0       0       0
       0       0       0       0       0       0       0       0       0       0
       0       0       0       0       0       0       0       0       0       0
       0       0       0       0       0       0       0       0       0       0
       0       0       0       0       0       0       0       0       0       0
       0       0       0       0       0       0       0       0       0       0
       0       0       0       0       0       0       0       0       0       0
       0       0       0       0       0       0       0       0       0       0
       0       0       0       0       0       0       0       0       0       0
       0       0       0       0       0       0       0       0       0       0
       0       0       0       0       0       0       0       0       0       0
       0       0       0       0       0       0       0       0       0       0
       0       0       0       0       0       0       0       0       0       0
       0       0       0       0       0       0       0       0       0       0
       0       0       0       0       0       0       0       0       0       0
       0       0       0       0       0       0       0       0       0       0
       0       0       0       0       0       0       0       0       0       0
       0       0       0       0       0       0       0       0       0       0
       0       0       0       0       0       0       0       0       0       0
       0       0       0       0       0       0       0       0       0       0
       0       0       0       0       0       0       0       0       0       0
       0       0       0       0       0       0       0       0       0       0
       0       0       0       0       0       0       0       0       0       0
       0       0       0       0       0       0       0       0       0       0
       0       0       0       0       0       0       0       0       0       0
       0       0       0       0       0       0       0       0       0       0
       0       0       0       0       0       0       0       0       0       0
       0       0       0       0       0       0       0       0       0       0
       0       0       0       0       0       0       0       0       0       0
       0       0       0       0       0       0       0       0       0       0
       0       0       0       0       0       0       0       0       0       0
       0       0       0       0       0       0       0       0       0       0
       0       0       0       0       0       0       0       0       0       0
       0       0       0       0       0       0       0       0       0       0
       0       0       0       0       0       0       0       0       0       0
       0       0       0       0       0       0       0       0       0       0
       0       0       0       0       0       0       0       0       0       0
       0       0       0       0       0       0       0       0       0       0
       0       0       0       0       0       0       0       0       0       0
       0       0       0       0       0       0       0       0       0       0
       0       0       0       0       0       0       0       0       0       0
       0       0       0       0       0       0       0       0       0       0
       0       0       0       0       0       0       0       0       0       0
       0       0       0       0       0       0       0       0       0       0
       0       0       0       0       0       0       0       0       0       0
       0       0       0       0       0       0       0       0       0       0
       0       0       0       0       0       0       0       0       0       0
       0       0       0       0       0       0       0       0       0       0
       0       0       0       0       0       0       0       0       0       0
       0       0       0       0       0       0       0       0       0       0
       0       0       0       0       0       0       0       0       0       0
       0       0       0       0       0       0       0       0       0       0
       0       0       0       0       0       0       0       0       0       0
       0       0       0       0       0       0       0       0       0       0
       0       0       0       0       0       0       0       0       0       0
       0       0       0       0       0       0       0       0       0       0
       0       0       0       0       0       0       0       0       0       0
       0       0       0       0       0       0       0       0       0       0
       0       0       0       0       0       0       0       0       0       0
       0       0       0       0       0       0       0       0       0       0
       0       0       0       0       0       0       0       0       0       0
       0       0       0       0       0       0       0       0       0       0
       0       0       0       0       0       0       0       0       0       0
       0       0       0       0       0       0       0       0       0       0
       0       0       0       0       0       0       0       0       0       0
       0       0       0       0       0       0       0       0       0       0
       0       0       0       0       0       0       0       0       0       0
       0       0       0       0       0       0       0       0       0       0
       0       0       0       0       0       0       0       0       0       0
       0       0       0       0       0       0       0       0       0       0
       0       0       0       0       0       0       0       0       0       0
       0       0       0       0       0       0       0       0       0       0
       0       0       0       0       0       0       0       0       0       0
       0       0       0       0       0       0       0       0       0       0
       0       0       0       0       0       0       0       0       0       0
       0       0       0       0       0       0       0       0       0       0
       0       0       0       0       0       0       0       0       0       0
       0       0       0       0       0       0       0       0       0       0
       0       0       0       0       0       0       0       0       0       0
       0       0       0       0       0       0       0       0       0       0
       0       0       0       0       0       0       0       0       0       0
       0       0       0       0       0       0       0       0       0       0
       0       0       0       0       0       0       0       0       0       0
       0       0       0       0       0       0       0       0       0       0
       0       0       0       0       0       0       0       0       0       0
       0       0       0       0       0       0       0       0       0       0
       0       0       0       0       0       0       0       0       0       0
       0       0       0       0       0       0       0       0       0       0
       0       0       0       0       0       0       0       0       0       0
       0       0       0       0       0       0       0       0       0       0
       0       0       0       0       0       0       0       0       0       0
       0       0       0       0       0       0       0       0       0       0
       0       0       0       0       0       0       0       0       0       0
       0       0       0       0       0       0       0       0       0       0
       0       0       0       0       0       0       0       0       0       0
       0       0       0       0       0       0       0       0       0       0
       0       0       0       0       0       0       0       0       0       0
       0       0       0       0       0       0       0       0       0       0
       0       0       0       0       0       0       0       0       0       0
       0       0       0       0       0       0       0       0       0       0
       0       0       0       0       0       0       0       0       0       0
       0       0       0       0       0       0       0       0       0       0
       0       0       0       0       0       0       0       0       0       0
       0       0       0       0       0       0       0       0       0       0
       0       0       0       0       0       0       0       0       0       0
       0       0       0       0       0       0       0       0       0       0
       0       0       0       0       0       0       0       0       0       0
       0       0       0       0       0       0       0       0       0       0
       0       0       0       0       0       0       0       0       0       0
       0       0       0       0       0       0       0       0       0       0
       0       0       0       0       0       0       0       0       0       0
       0       0       0       0       0       0       0       0       0       0
       0       0       0       0       0       0       0       0       0       0
       0       0       0       0       0       0       0       0       0       0
       0       0       0       0       0       0       0       0       0       0
       0       0       0       0       0       0       0       0       0       0
       0       0       0       0       0       0       0       0       0       0
       0       0       0       0       0       0       0       0       0       0
       0       0       0       0       0       0       0       0       0       0
       0       0       0       0       0       0       0       0       0       0
       0       0       0       0       0       0       0       0       0       0
       0       0       0       0       0       0       0       0       0       0
       0       0       0       0       0       0       0       0       0       0
       0       0       0       0       0       0       0       0       0       0
       0       0       0       0       0       0       0       0       0       0
       0       0       0       0       0       0       0       0       0       0
       0       0       0       0       0       0       0       0       0       0
       0       0       0       0       0       0       0       0       0       0
       0       0       0       0       0       0       0       0       0       0
       0       0       0       0       0       0       0       0       0       0
       0       0       0       0       0       0       0       0       0       0
       0       0       0       0       0       0       0       0       0       0
       0       0       0       0       0       0       0       0       0       0
       0       0       0       0       0       0       0       0       0       0
       0       0       0       0       0       0       0       0       0       0
       0       0       0       0       0       0       0       0       0       0
       0       0       0       0       0       0       0       0       0
%FLAG IROTAT                                                                    
%FORMAT(10I8)                                                                   
       0       0       0       0       0       0       0       0       0       0
       0       0       0       0       0       0       0       0       0       0
       0       0       0       0       0       0       0       0       0       0
       0       0       0       0       0       0       0       0       0       0
       0       0       0       0       0       0       0       0       0       0
       0       0       0       0       0       0       0       0       0       0
       0       0       0       0       0       0       0       0       0       0
       0       0       0       0       0       0       0       0       0       0
       0       0       0       0       0       0       0       0       0       0
       0       0       0       0       0       0       0       0       0       0
       0       0       0       0       0       0       0       0       0       0
       0       0       0       0       0       0       0       0       0       0
       0       0       0       0       0       0       0       0       0       0
       0       0       0       0       0       0       0       0       0       0
       0       0       0       0       0       0       0       0       0       0
       0       0       0       0       0       0       0       0       0       0
       0       0       0       0       0       0       0       0       0       0
       0       0       0       0       0       0       0       0       0       0
       0       0       0       0       0       0       0       0       0       0
       0       0       0       0       0       0       0       0       0       0
       0       0       0       0       0       0       0       0       0       0
       0       0       0       0       0       0       0       0       0       0
       0       0       0       0       0       0       0       0       0       0
       0       0       0       0       0       0       0       0       0       0
       0       0       0       0       0       0       0       0       0       0
       0       0       0       0       0       0       0       0       0       0
       0       0       0       0       0       0       0       0       0       0
       0       0       0       0       0       0       0       0       0       0
       0       0       0       0       0       0       0       0       0       0
       0       0       0       0       0       0       0       0       0       0
       0       0       0       0       0       0       0       0       0       0
       0       0       0       0       0       0       0       0       0       0
       0       0       0       0       0       0       0       0       0       0
       0       0       0       0       0       0       0       0       0       0
       0       0       0       0       0       0       0       0       0       0
       0       0       0       0       0       0       0       0       0       0
       0       0       0       0       0       0       0       0       0       0
       0       0       0       0       0       0       0       0       0       0
       0       0       0       0       0       0       0       0       0       0
       0       0       0       0       0       0       0       0       0       0
       0       0       0       0       0       0       0       0       0       0
       0       0       0       0       0       0       0       0       0       0
       0       0       0       0       0       0       0       0       0       0
       0       0       0       0       0       0       0       0       0       0
       0       0       0       0       0       0       0       0       0       0
       0       0       0       0       0       0       0       0       0       0
       0       0       0       0       0       0       0       0       0       0
       0       0       0       0       0       0       0       0       0       0
       0       0       0       0       0       0       0       0       0       0
       0       0       0       0       0       0       0       0       0       0
       0       0       0       0       0       0       0       0       0       0
       0       0       0       0       0       0       0       0       0       0
       0       0       0       0       0       0       0       0       0       0
       0       0       0       0       0       0       0       0       0       0
       0       0       0       0       0       0       0       0       0       0
       0       0       0       0       0       0       0       0       0       0
       0       0       0       0       0       0       0       0       0       0
       0       0       0       0       0       0       0       0       0       0
       0       0       0       0       0       0       0       0       0       0
       0       0       0       0       0       0       0       0       0       0
       0       0       0       0       0       0       0       0       0       0
       0       0       0       0       0       0       0       0       0       0
       0       0       0       0       0       0       0       0       0       0
       0       0       0       0       0       0       0       0       0       0
       0       0       0       0       0       0       0       0       0       0
       0       0       0       0       0       0       0       0       0       0
       0       0       0       0       0       0       0       0       0       0
       0       0       0       0       0       0       0       0       0       0
       0       0       0       0       0       0       0       0       0       0
       0       0       0       0       0       0       0       0       0       0
       0       0       0       0       0       0       0       0       0       0
       0       0       0       0       0       0       0       0       0       0
       0       0       0       0       0       0       0       0       0       0
       0       0       0       0       0       0       0       0       0       0
       0       0       0       0       0       0       0       0       0       0
       0       0       0       0       0       0       0       0       0       0
       0       0       0       0       0       0       0       0       0       0
       0       0       0       0       0       0       0       0       0       0
       0       0       0       0       0       0       0       0       0       0
       0       0       0       0       0       0       0       0       0       0
       0       0       0       0       0       0       0       0       0       0
       0       0       0       0       0       0       0       0       0       0
       0       0       0       0       0       0       0       0       0       0
       0       0       0       0       0       0       0       0       0       0
       0       0       0       0       0       0       0       0       0       0
       0       0       0       0       0       0       0       0       0       0
       0       0       0       0       0       0       0       0       0       0
       0       0       0       0       0       0       0       0       0       0
       0       0       0       0       0       0       0       0       0       0
       0       0       0       0       0       0       0       0       0       0
       0       0       0       0       0       0       0       0       0       0
       0       0       0       0       0       0       0       0       0       0
       0       0       0       0       0       0       0       0       0       0
       0       0       0       0       0       0       0       0       0       0
       0       0       0       0       0       0       0       0       0       0
       0       0       0       0       0       0       0       0       0       0
       0       0       0       0       0       0       0       0       0       0
       0       0       0       0       0       0       0       0       0       0
       0       0       0       0       0       0       0       0       0       0
       0       0       0       0       0       0       0       0       0       0
       0       0       0       0       0       0       0       0       0       0
       0       0       0       0       0       0       0       0       0       0
       0       0       0       0       0       0       0       0       0       0
       0       0       0       0       0       0       0       0       0       0
       0       0       0       0       0       0       0       0       0       0
       0       0       0       0       0       0       0       0       0       0
       0       0       0       0       0       0       0       0       0       0
       0       0       0       0       0       0       0       0       0       0
       0       0       0       0       0       0       0       0       0       0
       0       0       0       0       0       0       0       0       0       0
       0       0       0       0       0       0       0       0       0       0
       0       0       0       0       0       0       0       0       0       0
       0       0       0       0       0       0       0       0       0       0
       0       0       0       0       0       0       0       0       0       0
       0       0       0       0       0       0       0       0       0       0
       0       0       0       0       0       0       0       0       0       0
       0       0       0       0       0       0       0       0       0       0
       0       0       0       0       0       0       0       0       0       0
       0       0       0       0       0       0       0       0       0       0
       0       0       0       0       0       0       0       0       0       0
       0       0       0       0       0       0       0       0       0       0
       0       0       0       0       0       0       0       0       0       0
       0       0       0       0       0       0       0       0       0       0
       0       0       0       0       0       0       0       0       0       0
       0       0       0       0       0       0       0       0       0       0
       0       0       0       0       0       0       0       0       0       0
       0       0       0       0       0       0       0       0       0       0
       0       0       0       0       0       0       0       0       0       0
       0       0       0       0       0       0       0       0       0       0
       0       0       0       0       0       0       0       0       0       0
       0       0       0       0       0       0       0       0       0       0
       0       0       0       0       0       0       0       0       0       0
       0       0       0       0       0       0       0       0       0       0
       0       0       0       0       0       0       0       0       0       0
       0       0       0       0       0       0       0       0       0       0
       0       0       0       0       0       0       0       0       0       0
       0       0       0       0       0       0       0       0       0       0
       0       0       0       0       0       0       0       0       0       0
       0       0       0       0       0       0       0       0       0       0
       0       0       0       0       0       0       0       0       0       0
       0       0       0       0       0       0       0       0       0       0
       0       0       0       0       0       0       0       0       0       0
       0       0       0       0       0       0       0       0       0       0
       0       0       0       0       0       0       0       0       0       0
       0       0       0       0       0       0       0       0       0       0
       0       0       0       0       0       0       0       0       0       0
       0       0       0       0       0       0       0       0       0       0
       0       0       0       0       0       0       0       0       0       0
       0       0       0       0       0       0       0       0       0       0
       0       0       0       0       0       0       0       0       0       0
       0       0       0       0       0       0       0       0       0       0
       0       0       0       0       0       0       0       0       0       0
       0       0       0       0       0       0       0       0       0       0
       0       0       0       0       0       0       0       0       0       0
       0       0       0       0       0       0       0       0       0       0
       0       0       0       0       0       0       0       0       0       0
       0       0       0       0       0       0       0       0       0       0
       0       0       0       0       0       0       0       0       0       0
       0       0       0       0       0       0       0       0       0       0
       0       0       0       0       0       0       0       0       0       0
       0       0       0       0       0       0       0       0       0       0
       0       0       0       0       0       0       0       0       0       0
       0       0       0       0       0       0       0       0       0       0
       0       0       0       0       0       0       0       0       0       0
       0       0       0       0       0       0       0       0       0       0
       0       0       0       0       0       0       0       0       0       0
       0       0       0       0       0       0       0       0       0       0
       0       0       0       0       0       0       0       0       0       0
       0       0       0       0       0       0       0       0       0       0
       0       0       0       0       0       0       0       0       0       0
       0       0       0       0       0       0       0       0       0       0
       0       0       0       0       0       0       0       0       0       0
       0       0       0       0       0       0       0       0       0       0
       0       0       0       0       0       0       0       0       0       0
       0       0       0       0       0       0       0       0       0       0
       0       0       0       0       0       0       0       0       0       0
       0       0       0       0       0       0       0       0       0       0
       0       0       0       0       0       0       0       0       0       0
       0       0       0       0       0       0       0       0       0       0
       0       0       0       0       0       0       0       0       0       0
       0       0       0       0       0       0       0       0       0       0
       0       0       0       0       0       0       0       0       0       0
       0       0       0       0       0       0       0       0       0       0
       0       0       0       0       0       0       0       0       0       0
       0       0       0       0       0       0       0       0       0       0
       0       0       0       0       0       0       0       0       0       0
       0       0       0       0       0       0       0       0       0       0
       0       0       0       0       0       0       0       0       0       0
       0       0       0       0       0       0       0       0       0       0
       0       0       0       0       0       0       0       0       0       0
       0       0       0       0       0       0       0       0       0       0
       0       0       0       0       0       0       0       0       0       0
       0       0       0       0       0       0       0       0       0       0
       0       0       0       0       0       0       0       0       0       0
       0       0       0       0       0       0       0       0       0       0
       0       0       0       0       0       0       0       0       0       0
       0       0       0       0       0       0       0       0       0       0
       0       0       0       0       0       0       0       0       0       0
       0       0       0       0       0       0       0       0       0       0
       0       0       0       0       0       0       0       0       0       0
       0       0       0       0       0       0       0       0       0       0
       0       0       0       0       0       0       0       0       0       0
       0       0       0       0       0       0       0       0       0       0
       0       0       0       0       0       0       0       0       0       0
       0       0       0       0       0       0       0       0       0       0
       0       0       0       0       0       0       0       0       0       0
       0       0       0       0       0       0       0       0       0       0
       0       0       0       0       0       0       0       0       0       0
       0       0       0       0       0       0       0       0       0       0
       0       0       0       0       0       0       0       0       0       0
       0       0       0       0       0       0       0       0       0       0
       0       0       0       0       0       0       0       0       0       0
       0       0       0       0       0       0       0       0       0       0
       0       0       0       0       0       0       0       0       0       0
       0       0       0       0       0       0       0       0       0       0
       0       0       0       0       0       0       0       0       0       0
       0       0       0       0       0       0       0       0       0       0
       0       0       0       0       0       0       0       0       0       0
       0       0       0       0       0       0       0       0       0       0
       0       0       0       0       0       0       0       0       0       0
       0       0       0       0       0       0       0       0       0       0
       0       0       0       0       0       0       0       0       0       0
       0       0       0       0       0       0       0       0       0       0
       0       0       0       0       0       0       0       0       0       0
       0       0       0       0       0       0       0       0       0       0
       0       0       0       0       0       0       0       0       0       0
       0       0       0       0       0       0       0       0       0       0
       0       0       0       0       0       0       0       0       0       0
       0       0       0       0       0       0       0       0       0       0
       0       0       0       0       0       0       0       0       0       0
       0       0       0       0       0       0       0       0       0       0
       0       0       0       0       0       0       0       0       0       0
       0       0       0       0       0       0       0       0       0       0
       0       0       0       0       0       0       0       0       0       0
       0       0       0       0       0       0       0       0       0       0
       0       0       0       0       0       0       0       0       0       0
       0       0       0       0       0       0       0       0       0       0
       0       0       0       0       0       0       0       0       0       0
       0       0       0       0       0       0       0       0       0       0
       0       0       0       0       0       0       0       0       0       0
       0       0       0       0       0       0       0       0       0       0
       0       0       0       0       0       0       0       0       0       0
       0       0       0       0       0       0       0       0       0       0
       0       0       0       0       0       0       0       0       0       0
       0       0       0       0       0       0       0       0       0       0
       0       0       0       0       0       0       0       0       0       0
       0       0       0       0       0       0       0       0       0       0
       0       0       0       0       0       0       0       0       0       0
       0       0       0       0       0       0       0       0       0       0
       0       0       0       0       0       0       0       0       0       0
       0       0       0       0       0       0       0       0       0       0
       0       0       0       0       0       0       0       0       0       0
       0       0       0       0       0       0       0       0       0       0
       0       0       0       0       0       0       0       0       0       0
       0       0       0       0       0       0       0       0       0       0
       0       0       0       0       0       0       0       0       0       0
       0       0       0       0       0       0       0       0       0       0
       0       0       0       0       0       0       0       0       0       0
       0       0       0       0       0       0       0       0       0       0
       0       0       0       0       0       0       0       0       0       0
       0       0       0       0       0       0       0       0       0       0
       0       0       0       0       0       0       0       0       0       0
       0       0       0       0       0       0       0       0       0       0
       0       0       0       0       0       0       0       0       0       0
       0       0       0       0       0       0       0       0       0       0
       0       0       0       0       0       0       0       0       0       0
       0       0       0       0       0       0       0       0       0       0
       0       0       0       0       0       0       0       0       0       0
       0       0       0       0       0       0       0       0       0       0
       0       0       0       0       0       0       0       0       0       0
       0       0       0       0       0       0       0       0       0       0
       0       0       0       0       0       0       0       0       0       0
       0       0       0       0       0       0       0       0       0       0
       0       0       0       0       0       0       0       0       0       0
       0       0       0       0       0       0       0       0       0       0
       0       0       0       0       0       0       0       0       0       0
       0       0       0       0       0       0       0       0       0       0
       0       0       0       0       0       0       0       0       0       0
       0       0       0       0       0       0       0       0       0       0
       0       0       0       0       0       0       0       0       0       0
       0       0       0       0       0       0       0       0       0       0
       0       0       0       0       0       0       0       0       0       0
       0       0       0       0       0       0       0       0       0       0
       0       0       0       0       0       0       0       0       0       0
       0       0       0       0       0       0       0       0       0       0
       0       0       0       0       0       0       0       0       0       0
       0       0       0       0       0       0       0       0       0       0
       0       0       0       0       0       0       0       0       0       0
       0       0       0       0       0       0       0       0       0       0
       0       0       0       0       0       0       0       0       0       0
       0       0       0       0       0       0       0       0       0       0
       0       0       0       0       0       0       0       0       0       0
       0       0       0       0       0       0       0       0       0       0
       0       0       0       0       0       0       0       0       0       0
       0       0       0       0       0       0       0       0       0       0
       0       0       0       0       0       0       0       0       0       0
       0       0       0       0       0       0       0       0       0       0
       0       0       0       0       0       0       0       0       0       0
       0       0       0       0       0       0       0       0       0       0
       0       0       0       0       0       0       0       0       0       0
       0       0       0       0       0       0       0       0       0       0
       0       0       0       0       0       0       0       0       0       0
       0       0       0       0       0       0       0       0       0       0
       0       0       0       0       0       0       0       0       0       0
       0       0       0       0       0       0       0       0       0       0
       0       0       0       0       0       0       0       0       0       0
       0       0       0       0       0       0       0       0       0       0
       0       0       0       0       0       0       0       0       0       0
       0       0       0       0       0       0       0       0       0       0
       0       0       0       0       0       0       0       0       0       0
       0       0       0       0       0       0       0       0       0       0
       0       0       0       0       0       0       0       0       0       0
       0       0       0       0       0       0       0       0       0       0
       0       0       0       0       0       0       0       0       0       0
       0       0       0       0       0       0       0       0       0       0
       0       0       0       0       0       0       0       0       0       0
       0       0       0       0       0       0       0       0       0       0
       0       0       0       0       0       0       0       0       0       0
       0       0       0       0       0       0       0       0       0       0
       0       0       0       0       0       0       0       0       0       0
       0       0       0       0       0       0       0       0       0       0
       0       0       0       0       0       0       0       0       0       0
       0       0       0       0       0       0       0       0       0       0
       0       0       0       0       0       0       0       0       0       0
       0       0       0       0       0       0       0       0       0       0
       0       0       0       0       0       0       0       0       0       0
       0       0       0       0       0       0       0       0       0       0
       0       0       0       0       0       0       0       0       0       0
       0       0       0       0       0       0       0       0       0       0
       0       0       0       0       0       0       0       0       0       0
       0       0       0       0       0       0       0       0       0       0
       0       0       0       0       0       0       0       0       0       0
       0       0       0       0       0       0       0       0       0       0
       0       0       0       0       0       0       0       0       0       0
       0       0       0       0       0       0       0       0       0       0
       0       0       0       0       0       0       0       0       0       0
       0       0       0       0       0       0       0       0       0       0
       0       0       0       0       0       0       0       0       0       0
       0       0       0       0       0       0       0       0       0       0
       0       0       0       0       0       0       0       0       0       0
       0       0       0       0       0       0       0       0       0       0
       0       0       0       0       0       0       0       0       0       0
       0       0       0       0       0       0       0       0       0       0
       0       0       0       0       0       0       0       0       0       0
       0       0       0       0       0       0       0       0       0       0
       0       0       0       0       0       0       0       0       0       0
       0       0       0       0       0       0       0       0       0       0
       0       0       0       0       0       0       0       0       0       0
       0       0       0       0       0       0       0       0       0       0
       0       0       0       0       0       0       0       0       0       0
       0       0       0       0       0       0       0       0       0       0
       0       0       0       0       0       0       0       0       0       0
       0       0       0       0       0       0       0       0       0       0
       0       0       0       0       0       0       0       0       0       0
       0       0       0       0       0       0       0       0       0       0
       0       0       0       0       0       0       0       0       0       0
       0       0       0       0       0       0       0       0       0       0
       0       0       0       0       0       0       0       0       0       0
       0       0       0       0       0       0       0       0       0       0
       0       0       0       0       0       0       0       0       0       0
       0       0       0       0       0       0       0       0       0       0
       0       0       0       0       0       0       0       0       0       0
       0       0       0       0       0       0       0       0       0       0
       0       0       0       0       0       0       0       0       0       0
       0       0       0       0       0       0       0       0       0       0
       0       0       0       0       0       0       0       0       0       0
       0       0       0       0       0       0       0       0       0       0
       0       0       0       0       0       0       0       0       0       0
       0       0       0       0       0       0       0       0       0       0
       0       0       0       0       0       0       0       0       0       0
       0       0       0       0       0       0       0       0       0       0
       0       0       0       0       0       0       0       0       0       0
       0       0       0       0       0       0       0       0       0       0
       0       0       0       0       0       0       0       0       0       0
       0       0       0       0       0       0       0       0       0       0
       0       0       0       0       0       0       0       0       0       0
       0       0       0       0       0       0       0       0       0       0
       0       0       0       0       0       0       0       0       0       0
       0       0       0       0       0       0       0       0       0       0
       0       0       0       0       0       0       0       0       0       0
       0       0       0       0       0       0       0       0       0       0
       0       0       0       0       0       0       0       0       0       0
       0       0       0       0       0       0       0       0       0       0
       0       0       0       0       0       0       0       0       0       0
       0       0       0       0       0       0       0       0       0       0
       0       0       0       0       0       0       0       0       0       0
       0       0       0       0       0       0       0       0       0       0
       0       0       0       0       0       0       0       0       0       0
       0       0       0       0       0       0       0       0       0       0
       0       0       0       0       0       0       0       0       0       0
       0       0       0       0       0       0       0       0       0       0
       0       0       0       0       0       0       0       0       0       0
       0       0       0       0       0       0       0       0       0       0
       0       0       0       0       0       0       0       0       0       0
       0       0       0       0       0       0       0       0       0       0
       0       0       0       0       0       0       0       0       0       0
       0       0       0       0       0       0       0       0       0       0
       0       0       0       0       0       0       0       0       0       0
       0       0       0       0       0       0       0       0       0       0
       0       0       0       0       0       0       0       0       0       0
       0       0       0       0       0       0       0       0       0       0
       0       0       0       0       0       0       0       0       0       0
       0       0       0       0       0       0       0       0       0       0
       0       0       0       0       0       0       0       0       0       0
       0       0       0       0       0       0       0       0       0       0
       0       0       0       0       0       0       0       0       0       0
       0       0       0       0       0       0       0       0       0       0
       0       0       0       0       0       0       0       0       0       0
       0       0       0       0       0       0       0       0       0       0
       0       0       0       0       0       0       0       0       0       0
       0       0       0       0       0       0       0       0       0       0
       0       0       0       0       0       0       0       0       0       0
       0       0       0       0       0       0       0       0       0       0
       0       0       0       0       0       0       0       0       0       0
       0       0       0       0       0       0       0       0       0       0
       0       0       0       0       0       0       0       0       0       0
       0       0       0       0       0       0       0       0       0       0
       0       0       0       0       0       0       0       0       0       0
       0       0       0       0       0       0       0       0       0       0
       0       0       0       0       0       0       0       0       0       0
       0       0       0       0       0       0       0       0       0       0
       0       0       0       0       0       0       0       0       0       0
       0       0       0       0       0       0       0       0       0       0
       0       0       0       0       0       0       0       0       0       0
       0       0       0       0       0       0       0       0       0       0
       0       0       0       0       0       0       0       0       0       0
       0       0       0       0       0       0       0       0       0       0
       0       0       0       0       0       0       0       0       0       0
       0       0       0       0       0       0       0       0       0       0
       0       0       0       0       0       0       0       0       0       0
       0       0       0       0       0       0       0       0       0       0
       0       0       0       0       0       0       0       0       0       0
       0       0       0       0       0       0       0       0       0       0
       0       0       0       0       0       0       0       0       0       0
       0       0       0       0       0       0       0       0       0       0
       0       0       0       0       0       0       0       0       0       0
       0       0       0       0       0       0       0       0       0       0
       0       0       0       0       0       0       0       0       0       0
       0       0       0       0       0       0       0       0       0       0
       0       0       0       0       0       0       0       0       0       0
       0       0       0       0       0       0       0       0       0       0
       0       0       0       0       0       0       0       0       0       0
       0       0       0       0       0       0       0       0       0       0
       0       0       0       0       0       0       0       0       0       0
       0       0       0       0       0       0       0       0       0       0
       0       0       0       0       0       0       0       0       0       0
       0       0       0       0       0       0       0       0       0       0
       0       0       0       0       0       0       0       0       0       0
       0       0       0       0       0       0       0       0       0       0
       0       0       0       0       0       0       0       0       0       0
       0       0       0       0       0       0       0       0       0       0
       0       0       0       0       0       0       0       0       0       0
       0       0       0       0       0       0       0       0       0       0
       0       0       0       0       0       0       0       0       0       0
       0       0       0       0       0       0       0       0       0       0
       0       0       0       0       0       0       0       0       0       0
       0       0       0       0       0       0       0       0       0       0
       0       0       0       0       0       0       0       0       0       0
       0       0       0       0       0       0       0       0       0       0
       0       0       0       0       0       0       0       0       0       0
       0       0       0       0       0       0       0       0       0       0
       0       0       0       0       0       0       0       0       0       0
       0       0       0       0       0       0       0       0       0       0
       0       0       0       0       0       0       0       0       0       0
       0       0       0       0       0       0       0       0       0       0
       0       0       0       0       0       0       0       0       0       0
       0       0       0       0       0       0       0       0       0       0
       0       0       0       0       0       0       0       0       0       0
       0       0       0       0       0       0       0       0       0       0
       0       0       0       0       0       0       0       0       0       0
       0       0       0       0       0       0       0       0       0       0
       0       0       0       0       0       0       0       0       0       0
       0       0       0       0       0       0       0       0       0       0
       0       0       0       0       0       0       0       0       0       0
       0       0       0       0       0       0       0       0       0       0
       0       0       0       0       0       0       0       0       0       0
       0       0       0       0       0       0       0       0       0       0
       0       0       0       0       0       0       0       0       0       0
       0       0       0       0       0       0       0       0       0       0
       0       0       0       0       0       0       0       0       0       0
       0       0       0       0       0       0       0       0       0       0
       0       0       0       0       0       0       0       0       0       0
       0       0       0       0       0       0       0       0       0       0
       0       0       0       0       0       0       0       0       0       0
       0       0       0       0       0       0       0       0       0       0
       0       0       0       0       0       0       0       0       0       0
       0       0       0       0       0       0       0       0       0       0
       0       0       0       0       0       0       0       0       0       0
       0       0       0       0       0       0       0       0       0       0
       0       0       0       0       0       0       0       0       0       0
       0       0       0       0       0       0       0       0       0       0
       0       0       0       0       0       0       0       0       0       0
       0       0       0       0       0       0       0       0       0       0
       0       0       0       0       0       0       0       0       0       0
       0       0       0       0       0       0       0       0       0       0
       0       0       0       0       0       0       0       0       0       0
       0       0       0       0       0       0       0       0       0       0
       0       0       0       0       0       0       0       0       0       0
       0       0       0       0       0       0       0       0       0       0
       0       0       0       0       0       0       0       0       0       0
       0       0       0       0       0       0       0       0       0       0
       0       0       0       0       0       0       0       0       0       0
       0       0       0       0       0       0       0       0       0       0
       0       0       0       0       0       0       0       0       0       0
       0       0       0       0       0       0       0       0       0       0
       0       0       0       0       0       0       0       0       0       0
       0       0       0       0       0       0       0       0       0       0
       0       0       0       0       0       0       0       0       0       0
       0       0       0       0       0       0       0       0       0       0
       0       0       0       0       0       0       0       0       0       0
       0       0       0       0       0       0       0       0       0       0
       0       0       0       0       0       0       0       0       0       0
       0       0       0       0       0       0       0       0       0       0
       0       0       0       0       0       0       0       0       0       0
       0       0       0       0       0       0       0       0       0       0
       0       0       0       0       0       0       0       0       0       0
       0       0       0       0       0       0       0       0       0       0
       0       0       0       0       0       0       0       0       0       0
       0       0       0       0       0       0       0       0       0       0
       0       0       0       0       0       0       0       0       0       0
       0       0       0       0       0       0       0       0       0       0
       0       0       0       0       0       0       0       0       0       0
       0       0       0       0       0       0       0       0       0       0
       0       0       0       0       0       0       0       0       0       0
       0       0       0       0       0       0       0       0       0       0
       0       0       0       0       0       0       0       0       0       0
       0       0       0       0       0       0       0       0       0       0
       0       0       0       0       0       0       0       0       0       0
       0       0       0       0       0       0       0       0       0       0
       0       0       0       0       0       0       0       0       0       0
       0       0       0       0       0       0       0       0       0       0
       0       0       0       0       0       0       0       0       0       0
       0       0       0       0       0       0       0       0       0       0
       0       0       0       0       0       0       0       0       0       0
       0       0       0       0       0       0       0       0       0       0
       0       0       0       0       0       0       0       0       0       0
       0       0       0       0       0       0       0       0       0       0
       0       0       0       0       0       0       0       0       0       0
       0       0       0       0       0       0       0       0       0       0
       0       0       0       0       0       0       0       0       0       0
       0       0       0       0       0       0       0       0       0       0
       0       0       0       0       0       0       0       0       0       0
       0       0       0       0       0       0       0       0       0       0
       0       0       0       0       0       0       0       0       0       0
       0       0       0       0       0       0       0       0       0       0
       0       0       0       0       0       0       0       0       0       0
       0       0       0       0       0       0       0       0       0       0
       0       0       0       0       0       0       0       0       0       0
       0       0       0       0       0       0       0       0       0       0
       0       0       0       0       0       0       0       0       0       0
       0       0       0       0       0       0       0       0       0       0
       0       0       0       0       0       0       0       0       0       0
       0       0       0       0       0       0       0       0       0       0
       0       0       0       0       0       0       0       0       0       0
       0       0       0       0       0       0       0       0       0       0
       0       0       0       0       0       0       0       0       0       0
       0       0       0       0       0       0       0       0       0       0
       0       0       0       0       0       0       0       0       0       0
       0       0       0       0       0       0       0       0       0       0
       0       0       0       0       0       0       0       0       0       0
       0       0       0       0       0       0       0       0       0       0
       0       0       0       0       0       0       0       0       0       0
       0       0       0       0       0       0       0       0       0       0
       0       0       0       0       0       0       0       0       0       0
       0       0       0       0       0       0       0       0       0       0
       0       0       0       0       0       0       0       0       0       0
       0       0       0       0       0       0       0       0       0       0
       0       0       0       0       0       0       0       0       0       0
       0       0       0       0       0       0       0       0       0       0
       0       0       0       0       0       0       0       0       0       0
       0       0       0       0       0       0       0       0       0       0
       0       0       0       0       0       0       0       0       0       0
       0       0       0       0       0       0       0       0       0       0
       0       0       0       0       0       0       0       0       0       0
       0       0       0       0       0       0       0       0       0       0
       0       0       0       0       0       0       0       0       0       0
       0       0       0       0       0       0       0       0       0       0
       0       0       0       0       0       0       0       0       0       0
       0       0       0       0       0       0       0       0       0       0
       0       0       0       0       0       0       0       0       0       0
       0       0       0       0       0       0       0       0       0       0
       0       0       0       0       0       0       0       0       0       0
       0       0       0       0       0       0       0       0       0       0
       0       0       0       0       0       0       0       0       0       0
       0       0       0       0       0       0       0       0       0       0
       0       0       0       0       0       0       0       0       0       0
       0       0       0       0       0       0       0       0       0       0
       0       0       0       0       0       0       0       0       0       0
       0       0       0       0       0       0       0       0       0       0
       0       0       0       0       0       0       0       0       0       0
       0       0       0       0       0       0       0       0       0       0
       0       0       0       0       0       0       0       0       0       0
       0       0       0       0       0       0       0       0       0       0
       0       0       0       0       0       0       0       0       0       0
       0       0       0       0       0       0       0       0       0       0
       0       0       0       0       0       0       0       0       0       0
       0       0       0       0       0       0       0       0       0       0
       0       0       0       0       0       0       0       0       0       0
       0       0       0       0       0       0       0       0       0       0
       0       0       0       0       0       0       0       0       0       0
       0       0       0       0       0       0       0       0       0       0
       0       0       0       0       0       0       0       0       0       0
       0       0       0       0       0       0       0       0       0       0
       0       0       0       0       0       0       0       0       0       0
       0       0       0       0       0       0       0       0       0       0
       0       0       0       0       0       0       0       0       0       0
       0       0       0       0       0       0       0       0       0       0
       0       0       0       0       0       0       0       0       0       0
       0       0       0       0       0       0       0       0       0       0
       0       0       0       0       0       0       0       0       0       0
       0       0       0       0       0       0       0       0       0       0
       0       0       0       0       0       0       0       0       0       0
       0       0       0       0       0       0       0       0       0       0
       0       0       0       0       0       0       0       0       0       0
       0       0       0       0       0       0       0       0       0       0
       0       0       0       0       0       0       0       0       0       0
       0       0       0       0       0       0       0       0       0       0
       0       0       0       0       0       0       0       0       0       0
       0       0       0       0       0       0       0       0       0       0
       0       0       0       0       0       0       0       0       0       0
       0       0       0       0       0       0       0       0       0       0
       0       0       0       0       0       0       0       0       0       0
       0       0       0       0       0       0       0       0       0       0
       0       0       0       0       0       0       0       0       0       0
       0       0       0       0       0       0       0       0       0       0
       0       0       0       0       0       0       0       0       0       0
       0       0       0       0       0       0       0       0       0       0
       0       0       0       0       0       0       0       0       0       0
       0       0       0       0       0       0       0       0       0       0
       0       0       0       0       0       0       0       0       0       0
       0       0       0       0       0       0       0       0       0       0
       0       0       0       0       0       0       0       0       0       0
       0       0       0       0       0       0       0       0       0       0
       0       0       0       0       0       0       0       0       0       0
       0       0       0       0       0       0       0       0       0       0
       0       0       0       0       0       0       0       0       0       0
       0       0       0       0       0       0       0       0       0       0
       0       0       0       0       0       0       0       0       0       0
       0       0       0       0       0       0       0       0       0       0
       0       0       0       0       0       0       0       0       0       0
       0       0       0       0       0       0       0       0       0       0
       0       0       0       0       0       0       0       0       0       0
       0       0       0       0       0       0       0       0       0       0
       0       0       0       0       0       0       0       0       0       0
       0       0       0       0       0       0       0       0       0       0
       0       0       0       0       0       0       0       0       0       0
       0       0       0       0       0       0       0       0       0       0
       0       0       0       0       0       0       0       0       0       0
       0       0       0       0       0       0       0       0       0       0
       0       0       0       0       0       0       0       0       0       0
       0       0       0       0       0       0       0       0       0       0
       0       0       0       0       0       0       0       0       0       0
       0       0       0       0       0       0       0       0       0       0
       0       0       0       0       0       0       0       0       0       0
       0       0       0       0       0       0       0       0       0       0
       0       0       0       0       0       0       0       0       0       0
       0       0       0       0       0       0       0       0       0       0
       0       0       0       0       0       0       0       0       0       0
       0       0       0       0       0       0       0       0       0       0
       0       0       0       0       0       0       0       0       0       0
       0       0       0       0       0       0       0       0       0       0
       0       0       0       0       0       0       0       0       0       0
       0       0       0       0       0       0       0       0       0       0
       0       0       0       0       0       0       0       0       0       0
       0       0       0       0       0       0       0       0       0       0
       0       0       0       0       0       0       0       0       0       0
       0       0       0       0       0       0       0       0       0       0
       0       0       0       0       0       0       0       0       0       0
       0       0       0       0       0       0       0       0       0       0
       0       0       0       0       0       0       0       0       0       0
       0       0       0       0       0       0       0       0       0       0
       0       0       0       0       0       0       0       0       0       0
       0       0       0       0       0       0       0       0       0       0
       0       0       0       0       0       0       0       0       0       0
       0       0       0       0       0       0       0       0       0       0
       0       0       0       0       0       0       0       0       0       0
       0       0       0       0       0       0       0       0       0       0
       0       0       0       0       0       0       0       0       0       0
       0       0       0       0       0       0       0       0       0       0
       0       0       0       0       0       0       0       0       0       0
       0       0       0       0       0       0       0       0       0       0
       0       0       0       0       0       0       0       0       0       0
       0       0       0       0       0       0       0       0       0       0
       0       0       0       0       0       0       0       0       0       0
       0       0       0       0       0       0       0       0       0       0
       0       0       0       0       0       0       0       0       0       0
       0       0       0       0       0       0       0       0       0       0
       0       0       0       0       0       0       0       0       0       0
       0       0       0       0       0       0       0       0       0       0
       0       0       0       0       0       0       0       0       0       0
       0       0       0       0       0       0       0       0       0       0
       0       0       0       0       0       0       0       0       0       0
       0       0       0       0       0       0       0       0       0       0
       0       0       0       0       0       0       0       0       0       0
       0       0       0       0       0       0       0       0       0       0
       0       0       0       0       0       0       0       0       0       0
       0       0       0       0       0       0       0       0       0       0
       0       0       0       0       0       0       0       0       0       0
       0       0       0       0       0       0       0       0       0       0
       0       0       0       0       0       0       0       0       0       0
       0       0       0       0       0       0       0       0       0       0
       0       0       0       0       0       0       0       0       0       0
       0       0       0       0       0       0       0       0       0       0
       0       0       0       0       0       0       0       0       0       0
       0       0       0       0       0       0       0       0       0       0
       0       0       0       0       0       0       0       0       0       0
       0       0       0       0       0       0       0       0       0       0
       0       0       0       0       0       0       0       0       0       0
       0       0       0       0       0       0       0       0       0       0
       0       0       0       0       0       0       0       0       0       0
       0       0       0       0       0       0       0       0       0       0
       0       0       0       0       0       0       0       0       0       0
       0       0       0       0       0       0       0       0       0       0
       0       0       0       0       0       0       0       0       0       0
       0       0       0       0       0       0       0       0       0       0
       0       0       0       0       0       0       0       0       0       0
       0       0       0       0       0       0       0       0       0       0
       0       0       0       0       0       0       0       0       0       0
       0       0       0       0       0       0       0       0       0       0
       0       0       0       0       0       0       0       0       0       0
       0       0       0       0       0       0       0       0       0       0
       0       0       0       0       0       0       0       0       0       0
       0       0       0       0       0       0       0       0       0       0
       0       0       0       0       0       0       0       0       0       0
       0       0       0       0       0       0       0       0       0       0
       0       0       0       0       0       0       0       0       0       0
       0       0       0       0       0       0       0       0       0       0
       0       0       0       0       0       0       0       0       0       0
       0       0       0       0       0       0       0       0       0       0
       0       0       0       0       0       0       0       0       0       0
       0       0       0       0       0       0       0       0       0       0
       0       0       0       0       0       0       0       0       0       0
       0       0       0       0       0       0       0       0       0       0
       0       0       0       0       0       0       0       0       0       0
       0       0       0       0       0       0       0       0       0       0
       0       0       0       0       0       0       0       0       0       0
       0       0       0       0       0       0       0       0       0       0
       0       0       0       0       0       0       0       0       0       0
       0       0       0       0       0       0       0       0       0       0
       0       0       0       0       0       0       0       0       0       0
       0       0       0       0       0       0       0       0       0       0
       0       0       0       0       0       0       0       0       0       0
       0       0       0       0       0       0       0       0       0       0
       0       0       0       0       0       0       0       0       0       0
       0       0       0       0       0       0       0       0       0       0
       0       0       0       0       0       0       0       0       0       0
       0       0       0       0       0       0       0       0       0       0
       0       0       0       0       0       0       0       0       0       0
       0       0       0       0       0       0       0       0       0       0
       0       0       0       0       0       0       0       0       0       0
       0       0       0       0       0       0       0       0       0       0
       0       0       0       0       0       0       0       0       0       0
       0       0       0       0       0       0       0       0       0       0
       0       0       0       0       0       0       0       0       0       0
       0       0       0       0       0       0       0       0       0       0
       0       0       0       0       0       0       0       0       0       0
       0       0       0       0       0       0       0       0       0       0
       0       0       0       0       0       0       0       0       0       0
       0       0       0       0       0       0       0       0       0       0
       0       0       0       0       0       0       0       0       0       0
       0       0       0       0       0       0       0       0       0       0
       0       0       0       0       0       0       0       0       0       0
       0       0       0       0       0       0       0       0       0       0
       0       0       0       0       0       0       0       0       0       0
       0       0       0       0       0       0       0       0       0       0
       0       0       0       0       0       0       0       0       0       0
       0       0       0       0       0       0       0       0       0       0
       0       0       0       0       0       0       0       0       0       0
       0       0       0       0       0       0       0       0       0       0
       0       0       0       0       0       0       0       0       0       0
       0       0       0       0       0       0       0       0       0       0
       0       0       0       0       0       0       0       0       0       0
       0       0       0       0       0       0       0       0       0       0
       0       0       0       0       0       0       0       0       0       0
       0       0       0       0       0       0       0       0       0       0
       0       0       0       0       0       0       0       0       0       0
       0       0       0       0       0       0       0       0       0       0
       0       0       0       0       0       0       0       0       0       0
       0       0       0       0       0       0       0       0       0       0
       0       0       0       0       0       0       0       0       0       0
       0       0       0       0       0       0       0       0       0       0
       0       0       0       0       0       0       0       0       0       0
       0       0       0       0       0       0       0       0       0       0
       0       0       0       0       0       0       0       0       0       0
       0       0       0       0       0       0       0       0       0       0
       0       0       0       0       0       0       0       0       0       0
       0       0       0       0       0       0       0       0       0       0
       0       0       0       0       0       0       0       0       0       0
       0       0       0       0       0       0       0       0       0       0
       0       0       0       0       0       0       0       0       0       0
       0       0       0       0       0       0       0       0       0       0
       0       0       0       0       0       0       0       0       0       0
       0       0       0       0       0       0       0       0       0       0
       0       0       0       0       0       0       0       0       0       0
       0       0       0       0       0       0       0       0       0       0
       0       0       0       0       0       0       0       0       0       0
       0       0       0       0       0       0       0       0       0       0
       0       0       0       0       0       0       0       0       0       0
       0       0       0       0       0       0       0       0       0       0
       0       0       0       0       0       0       0       0       0       0
       0       0       0       0       0       0       0       0       0       0
       0       0       0       0       0       0       0       0       0       0
       0       0       0       0       0       0       0       0       0       0
       0       0       0       0       0       0       0       0       0       0
       0       0       0       0       0       0       0       0       0       0
       0       0       0       0       0       0       0       0       0       0
       0       0       0       0       0       0       0       0       0       0
       0       0       0       0       0       0       0       0       0       0
       0       0       0       0       0       0       0       0       0       0
       0       0       0       0       0       0       0       0       0       0
       0       0       0       0       0       0       0       0       0       0
       0       0       0       0       0       0       0       0       0       0
       0       0       0       0       0       0       0       0       0       0
       0       0       0       0       0       0       0       0       0       0
       0       0       0       0       0       0       0       0       0       0
       0       0       0       0       0       0       0       0       0       0
       0       0       0       0       0       0       0       0       0       0
       0       0       0       0       0       0       0       0       0       0
       0       0       0       0       0       0       0       0       0       0
       0       0       0       0       0       0       0       0       0       0
       0       0       0       0       0       0       0       0       0       0
       0       0       0       0       0       0       0       0       0       0
       0       0       0       0       0       0       0       0       0       0
       0       0       0       0       0       0       0       0       0       0
       0       0       0       0       0       0       0       0       0       0
       0       0       0       0       0       0       0       0       0       0
       0       0       0       0       0       0       0       0       0       0
       0       0       0       0       0       0       0       0       0       0
       0       0       0       0       0       0       0       0       0       0
       0       0       0       0       0       0       0       0       0       0
       0       0       0       0       0       0       0       0       0       0
       0       0       0       0       0       0       0       0       0       0
       0       0       0       0       0       0       0       0       0       0
       0       0       0       0       0       0       0       0       0       0
       0       0       0       0       0       0       0       0       0       0
       0       0       0       0       0       0       0       0       0       0
       0       0       0       0       0       0       0       0       0       0
       0       0       0       0       0       0       0       0       0       0
       0       0       0       0       0       0       0       0       0       0
       0       0       0       0       0       0       0       0       0       0
       0       0       0       0       0       0       0       0       0       0
       0       0       0       0       0       0       0       0       0       0
       0       0       0       0       0       0       0       0       0       0
       0       0       0       0       0       0       0       0       0       0
       0       0       0       0       0       0       0       0       0       0
       0       0       0       0       0       0       0       0       0       0
       0       0       0       0       0       0       0       0       0       0
       0       0       0       0       0       0       0       0       0       0
       0       0       0       0       0       0       0       0       0       0
       0       0       0       0       0       0       0       0       0       0
       0       0       0       0       0       0       0       0       0       0
       0       0       0       0       0       0       0       0       0       0
       0       0       0       0       0       0       0       0       0       0
       0       0       0       0       0       0       0       0       0       0
       0       0       0       0       0       0       0       0       0       0
       0       0       0       0       0       0       0       0       0       0
       0       0       0       0       0       0       0       0       0       0
       0       0       0       0       0       0       0       0       0       0
       0       0       0       0       0       0       0       0       0       0
       0       0       0       0       0       0       0       0       0       0
       0       0       0       0       0       0       0       0       0       0
       0       0       0       0       0       0       0       0       0       0
       0       0       0       0       0       0       0       0       0       0
       0       0       0       0       0       0       0       0       0       0
       0       0       0       0       0       0       0       0       0       0
       0       0       0       0       0       0       0       0       0       0
       0       0       0       0       0       0       0       0       0       0
       0       0       0       0       0       0       0       0       0       0
       0       0       0       0       0       0       0       0       0       0
       0       0       0       0       0       0       0       0       0       0
       0       0       0       0       0       0       0       0       0       0
       0       0       0       0       0       0       0       0       0       0
       0       0       0       0       0       0       0       0       0       0
       0       0       0       0       0       0       0       0       0       0
       0       0       0       0       0       0       0       0       0       0
       0       0       0       0       0       0       0       0       0       0
       0       0       0       0       0       0       0       0       0       0
       0       0       0       0       0       0       0       0       0       0
       0       0       0       0       0       0       0       0       0       0
       0       0       0       0       0       0       0       0       0       0
       0       0       0       0       0       0       0       0       0       0
       0       0       0       0       0       0       0       0       0       0
       0       0       0       0       0       0       0       0       0       0
       0       0       0       0       0       0       0       0       0       0
       0       0       0       0       0       0       0       0       0       0
       0       0       0       0       0       0       0       0       0       0
       0       0       0       0       0       0       0       0       0       0
       0       0       0       0       0       0       0       0       0       0
       0       0       0       0       0       0       0       0       0       0
       0       0       0       0       0       0       0       0       0       0
       0       0       0       0       0       0       0       0       0       0
       0       0       0       0       0       0       0       0       0       0
       0       0       0       0       0       0       0       0       0       0
       0       0       0       0       0       0       0       0       0       0
       0       0       0       0       0       0       0       0       0       0
       0       0       0       0       0       0       0       0       0       0
       0       0       0       0       0       0       0       0       0       0
       0       0       0       0       0       0       0       0       0       0
       0       0       0       0       0       0       0       0       0       0
       0       0       0       0       0       0       0       0       0       0
       0       0       0       0       0       0       0       0       0       0
       0       0       0       0       0       0       0       0       0       0
       0       0       0       0       0       0       0       0       0       0
       0       0       0       0       0       0       0       0       0       0
       0       0       0       0       0       0       0       0       0       0
       0       0       0       0       0       0       0       0       0       0
       0       0       0       0       0       0       0       0       0       0
       0       0       0       0       0       0       0       0       0       0
       0       0       0       0       0       0       0       0       0       0
       0       0       0       0       0       0       0       0       0       0
       0       0       0       0       0       0       0       0       0       0
       0       0       0       0       0       0       0       0       0       0
       0       0       0       0       0       0       0       0       0       0
       0       0       0       0       0       0       0       0       0       0
       0       0       0       0       0       0       0       0       0       0
       0       0       0       0       0       0       0       0       0       0
       0       0       0       0       0       0       0       0       0       0
       0       0       0       0       0       0       0       0       0       0
       0       0       0       0       0       0       0       0       0       0
       0       0       0       0       0       0       0       0       0       0
       0       0       0       0       0       0       0       0       0       0
       0       0       0       0       0       0       0       0       0       0
       0       0       0       0       0       0       0       0       0       0
       0       0       0       0       0       0       0       0       0       0
       0       0       0       0       0       0       0       0       0       0
       0       0       0       0       0       0       0       0       0       0
       0       0       0       0       0       0       0       0       0       0
       0       0       0       0       0       0       0       0       0       0
       0       0       0       0       0       0       0       0       0       0
       0       0       0       0       0       0       0       0       0       0
       0       0       0       0       0       0       0       0       0       0
       0       0       0       0       0       0       0       0       0       0
       0       0       0       0       0       0       0       0       0       0
       0       0       0       0       0       0       0       0       0       0
       0       0       0       0       0       0       0       0       0       0
       0       0       0       0       0       0       0       0       0       0
       0       0       0       0       0       0       0       0       0       0
       0       0       0       0       0       0       0       0       0       0
       0       0       0       0       0       0       0       0       0       0
       0       0       0       0       0       0       0       0       0       0
       0       0       0       0       0       0       0       0       0       0
       0       0       0       0       0       0       0       0       0       0
       0       0       0       0       0       0       0       0       0       0
       0       0       0       0       0       0       0       0       0       0
       0       0       0       0       0       0       0       0       0       0
       0       0       0       0       0       0       0       0       0       0
       0       0       0       0       0       0       0       0       0       0
       0       0       0       0       0       0       0       0       0       0
       0       0       0       0       0       0       0       0       0       0
       0       0       0       0       0       0       0       0       0       0
       0       0       0       0       0       0       0       0       0       0
       0       0       0       0       0       0       0       0       0       0
       0       0       0       0       0       0       0       0       0       0
       0       0       0       0       0       0       0       0       0       0
       0       0       0       0       0       0       0       0       0       0
       0       0       0       0       0       0       0       0       0       0
       0       0       0       0       0       0       0       0       0       0
       0       0       0       0       0       0       0       0       0       0
       0       0       0       0       0       0       0       0       0       0
       0       0       0       0       0       0       0       0       0       0
       0       0       0       0       0       0       0       0       0       0
       0       0       0       0       0       0       0       0       0       0
       0       0       0       0       0       0       0       0       0       0
       0       0       0       0       0       0       0       0       0       0
       0       0       0       0       0       0       0       0       0       0
       0       0       0       0       0       0       0       0       0       0
       0       0       0       0       0       0       0       0       0       0
       0       0       0       0       0       0       0       0       0       0
       0       0       0       0       0       0       0       0       0       0
       0       0       0       0       0       0       0       0       0       0
       0       0       0       0       0       0       0       0       0       0
       0       0       0       0       0       0       0       0       0       0
       0       0       0       0       0       0       0       0       0       0
       0       0       0       0       0       0       0       0       0       0
       0       0       0       0       0       0       0       0       0       0
       0       0       0       0       0       0       0       0       0       0
       0       0       0       0       0       0       0       0       0       0
       0       0       0       0       0       0       0       0       0       0
       0       0       0       0       0       0       0       0       0       0
       0       0       0       0       0       0       0       0       0       0
       0       0       0       0       0       0       0       0       0       0
       0       0       0       0       0       0       0       0       0       0
       0       0       0       0       0       0       0       0       0       0
       0       0       0       0       0       0       0       0       0       0
       0       0       0       0       0       0       0       0       0       0
       0       0       0       0       0       0       0       0       0       0
       0       0       0       0       0       0       0       0       0       0
       0       0       0       0       0       0       0       0       0       0
       0       0       0       0       0       0       0       0       0       0
       0       0       0       0       0       0       0       0       0       0
       0       0       0       0       0       0       0       0       0       0
       0       0       0       0       0       0       0       0       0       0
       0       0       0       0       0       0       0       0       0       0
       0       0       0       0       0       0       0       0       0       0
       0       0       0       0       0       0       0       0       0       0
       0       0       0       0       0       0       0       0       0       0
       0       0       0       0       0       0       0       0       0       0
       0       0       0       0       0       0       0       0       0       0
       0       0       0       0       0       0       0       0       0       0
       0       0       0       0       0       0       0       0       0       0
       0       0       0       0       0       0       0       0       0       0
       0       0       0       0       0       0       0       0       0       0
       0       0       0       0       0       0       0       0       0       0
       0       0       0       0       0       0       0       0       0       0
       0       0       0       0       0       0       0       0       0       0
       0       0       0       0       0       0       0       0       0       0
       0       0       0       0       0       0       0       0       0       0
       0       0       0       0       0       0       0       0       0       0
       0       0       0       0       0       0       0       0       0       0
       0       0       0       0       0       0       0       0       0       0
       0       0       0       0       0       0       0       0       0       0
       0       0       0       0       0       0       0       0       0       0
       0       0       0       0       0       0       0       0       0       0
       0       0       0       0       0       0       0       0       0       0
       0       0       0       0       0       0       0       0       0       0
       0       0       0       0       0       0       0       0       0       0
       0       0       0       0       0       0       0       0       0       0
       0       0       0       0       0       0       0       0       0       0
       0       0       0       0       0       0       0       0       0       0
       0       0       0       0       0       0       0       0       0       0
       0       0       0       0       0       0       0       0       0       0
       0       0       0       0       0       0       0       0       0       0
       0       0       0       0       0       0       0       0       0       0
       0       0       0       0       0       0       0       0       0       0
       0       0       0       0       0       0       0       0       0       0
       0       0       0       0       0       0       0       0       0       0
       0       0       0       0       0       0       0       0       0       0
       0       0       0       0       0       0       0       0       0       0
       0       0       0       0       0       0       0       0       0       0
       0       0       0       0       0       0       0       0       0       0
       0       0       0       0       0       0       0       0       0       0
       0       0       0       0       0       0       0       0       0       0
       0       0       0       0       0       0       0       0       0       0
       0       0       0       0       0       0       0       0       0       0
       0       0       0       0       0       0       0       0       0       0
       0       0       0       0       0       0       0       0       0       0
       0       0       0       0       0       0       0       0       0       0
       0       0       0       0       0       0       0       0       0       0
       0       0       0       0       0       0       0       0       0       0
       0       0       0       0       0       0       0       0       0       0
       0       0       0       0       0       0       0       0       0       0
       0       0       0       0       0       0       0       0       0       0
       0       0       0       0       0       0       0       0       0       0
       0       0       0       0       0       0       0       0       0       0
       0       0       0       0       0       0       0       0       0       0
       0       0       0       0       0       0       0       0       0       0
       0       0       0       0       0       0       0       0       0       0
       0       0       0       0       0       0       0       0       0       0
       0       0       0       0       0       0       0       0       0       0
       0       0       0       0       0       0       0       0       0       0
       0       0       0       0       0       0       0       0       0       0
       0       0       0       0       0       0       0       0       0       0
       0       0       0       0       0       0       0       0       0       0
       0       0       0       0       0       0       0       0       0       0
       0       0       0       0       0       0       0       0       0       0
       0       0       0       0       0       0       0       0       0       0
       0       0       0       0       0       0       0       0       0       0
       0       0       0       0       0       0       0       0       0       0
       0       0       0       0       0       0       0       0       0       0
       0       0       0       0       0       0       0       0       0       0
       0       0       0       0       0       0       0       0       0       0
       0       0       0       0       0       0       0       0       0       0
       0       0       0       0       0       0       0       0       0       0
       0       0       0       0       0       0       0       0       0       0
       0       0       0       0       0       0       0       0       0       0
       0       0       0       0       0       0       0       0       0       0
       0       0       0       0       0       0       0       0       0       0
       0       0       0       0       0       0       0       0       0       0
       0       0       0       0       0       0       0       0       0       0
       0       0       0       0       0       0       0       0       0       0
       0       0       0       0       0       0       0       0       0       0
       0       0       0       0       0       0       0       0       0       0
       0       0       0       0       0       0       0       0       0       0
       0       0       0       0       0       0       0       0       0       0
       0       0       0       0       0       0       0       0       0       0
       0       0       0       0       0       0       0       0       0       0
       0       0       0       0       0       0       0       0       0       0
       0       0       0       0       0       0       0       0       0       0
       0       0       0       0       0       0       0       0       0       0
       0       0       0       0       0       0       0       0       0       0
       0       0       0       0       0       0       0       0       0       0
       0       0       0       0       0       0       0       0       0       0
       0       0       0       0       0       0       0       0       0       0
       0       0       0       0       0       0       0       0       0       0
       0       0       0       0       0       0       0       0       0       0
       0       0       0       0       0       0       0       0       0       0
       0       0       0       0       0       0       0       0       0       0
       0       0       0       0       0       0       0       0       0       0
       0       0       0       0       0       0       0       0       0       0
       0       0       0       0       0       0       0       0       0       0
       0       0       0       0       0       0       0       0       0       0
       0       0       0       0       0       0       0       0       0       0
       0       0       0       0       0       0       0       0       0       0
       0       0       0       0       0       0       0       0       0       0
       0       0       0       0       0       0       0       0       0       0
       0       0       0       0       0       0       0       0       0       0
       0       0       0       0       0       0       0       0       0       0
       0       0       0       0       0       0       0       0       0       0
       0       0       0       0       0       0       0       0       0       0
       0       0       0       0       0       0       0       0       0       0
       0       0       0       0       0       0       0       0       0       0
       0       0       0       0       0       0       0       0       0       0
       0       0       0       0       0       0       0       0       0       0
       0       0       0       0       0       0       0       0       0       0
       0       0       0       0       0       0       0       0       0       0
       0       0       0       0       0       0       0       0       0       0
       0       0       0       0       0       0       0       0       0       0
       0       0       0       0       0       0       0       0       0       0
       0       0       0       0       0       0       0       0       0       0
       0       0       0       0       0       0       0       0       0       0
       0       0       0       0       0       0       0       0       0       0
       0       0       0       0       0       0       0       0       0       0
       0       0       0       0       0       0       0       0       0       0
       0       0       0       0       0       0       0       0       0       0
       0       0       0       0       0       0       0       0       0       0
       0       0       0       0       0       0       0       0       0       0
       0       0       0       0       0       0       0       0       0       0
       0       0       0       0       0       0       0       0       0       0
       0       0       0       0       0       0       0       0       0       0
       0       0       0       0       0       0       0       0       0       0
       0       0       0       0       0       0       0       0       0       0
       0       0       0       0       0       0       0       0       0       0
       0       0       0       0       0       0       0       0       0       0
       0       0       0       0       0       0       0       0       0       0
       0       0       0       0       0       0       0       0       0       0
       0       0       0       0       0       0       0       0       0       0
       0       0       0       0       0       0       0       0       0       0
       0       0       0       0       0       0       0       0       0       0
       0       0       0       0       0       0       0       0       0       0
       0       0       0       0       0       0       0       0       0       0
       0       0       0       0       0       0       0       0       0       0
       0       0       0       0       0       0       0       0       0       0
       0       0       0       0       0       0       0       0       0       0
       0       0       0       0       0       0       0       0       0       0
       0       0       0       0       0       0       0       0       0       0
       0       0       0       0       0       0       0       0       0       0
       0       0       0       0       0       0       0       0       0       0
       0       0       0       0       0       0       0       0       0       0
       0       0       0       0       0       0       0       0       0       0
       0       0       0       0       0       0       0       0       0       0
       0       0       0       0       0       0       0       0       0       0
       0       0       0       0       0       0       0       0       0       0
       0       0       0       0       0       0       0       0       0       0
       0       0       0       0       0       0       0       0       0       0
       0       0       0       0       0       0       0       0       0       0
       0       0       0       0       0       0       0       0       0       0
       0       0       0       0       0       0       0       0       0       0
       0       0       0       0       0       0       0       0       0       0
       0       0       0       0       0       0       0       0       0       0
       0       0       0       0       0       0       0       0       0       0
       0       0       0       0       0       0       0       0       0       0
       0       0       0       0       0       0       0       0       0       0
       0       0       0       0       0       0       0       0       0       0
       0       0       0       0       0       0       0       0       0       0
       0       0       0       0       0       0       0       0       0       0
       0       0       0       0       0       0       0       0       0       0
       0       0       0       0       0       0       0       0       0       0
       0       0       0       0       0       0       0       0       0       0
       0       0       0       0       0       0       0       0       0       0
       0       0       0       0       0       0       0       0       0       0
       0       0       0       0       0       0       0       0       0       0
       0       0       0       0       0       0       0       0       0       0
       0       0       0       0       0       0       0       0       0       0
       0       0       0       0       0       0       0       0       0       0
       0       0       0       0       0       0       0       0       0       0
       0       0       0       0       0       0       0       0       0       0
       0       0       0       0       0       0       0       0       0       0
       0       0       0       0       0       0       0       0       0       0
       0       0       0       0       0       0       0       0       0       0
       0       0       0       0       0       0       0       0       0       0
       0       0       0       0       0       0       0       0       0       0
       0       0       0       0       0       0       0       0       0       0
       0       0       0       0       0       0       0       0       0       0
       0       0       0       0       0       0       0       0       0       0
       0       0       0       0       0       0       0       0       0       0
       0       0       0       0       0       0       0       0       0       0
       0       0       0       0       0       0       0       0       0       0
       0       0       0       0       0       0       0       0       0       0
       0       0       0       0       0       0       0       0       0       0
       0       0       0       0       0       0       0       0       0       0
       0       0       0       0       0       0       0       0       0       0
       0       0       0       0       0       0       0       0       0       0
       0       0       0       0       0       0       0       0       0       0
       0       0       0       0       0       0       0       0       0       0
       0       0       0       0       0       0       0       0       0       0
       0       0       0       0       0       0       0       0       0       0
       0       0       0       0       0       0       0       0       0       0
       0       0       0       0       0       0       0       0       0       0
       0       0       0       0       0       0       0       0       0       0
       0       0       0       0       0       0       0       0       0       0
       0       0       0       0       0       0       0       0       0       0
       0       0       0       0       0       0       0       0       0       0
       0       0       0       0       0       0       0       0       0       0
       0       0       0       0       0       0       0       0       0       0
       0       0       0       0       0       0       0       0       0       0
       0       0       0       0       0       0       0       0       0       0
       0       0       0       0       0       0       0       0       0       0
       0       0       0       0       0       0       0       0       0       0
       0       0       0       0       0       0       0       0       0       0
       0       0       0       0       0       0       0       0       0       0
       0       0       0       0       0       0       0       0       0       0
       0       0       0       0       0       0       0       0       0       0
       0       0       0       0       0       0       0       0       0       0
       0       0       0       0       0       0       0       0       0       0
       0       0       0       0       0       0       0       0       0       0
       0       0       0       0       0       0       0       0       0       0
       0       0       0       0       0       0       0       0       0       0
       0       0       0       0       0       0       0       0       0       0
       0       0       0       0       0       0       0       0       0       0
       0       0       0       0       0       0       0       0       0       0
       0       0       0       0       0       0       0       0       0       0
       0       0       0       0       0       0       0       0       0       0
       0       0       0       0       0       0       0       0       0       0
       0       0       0       0       0       0       0       0       0       0
       0       0       0       0       0       0       0       0       0       0
       0       0       0       0       0       0       0       0       0       0
       0       0       0       0       0       0       0       0       0       0
       0       0       0       0       0       0       0       0       0       0
       0       0       0       0       0       0       0       0       0       0
       0       0       0       0       0       0       0       0       0       0
       0       0       0       0       0       0       0       0       0       0
       0       0       0       0       0       0       0       0       0       0
       0       0       0       0       0       0       0       0       0       0
       0       0       0       0       0       0       0       0       0       0
       0       0       0       0       0       0       0       0       0       0
       0       0       0       0       0       0       0       0       0       0
       0       0       0       0       0       0       0       0       0       0
       0       0       0       0       0       0       0       0       0       0
       0       0       0       0       0       0       0       0       0       0
       0       0       0       0       0       0       0       0       0       0
       0       0       0       0       0       0       0       0       0       0
       0       0       0       0       0       0       0       0       0       0
       0       0       0       0       0       0       0       0       0       0
       0       0       0       0       0       0       0       0       0       0
       0       0       0       0       0       0       0       0       0       0
       0       0       0       0       0       0       0       0       0       0
       0       0       0       0       0       0       0       0       0       0
       0       0       0       0       0       0       0       0       0       0
       0       0       0       0       0       0       0       0       0       0
       0       0       0       0       0       0       0       0       0       0
       0       0       0       0       0       0       0       0       0       0
       0       0       0       0       0       0       0       0       0       0
       0       0       0       0       0       0       0       0       0       0
       0       0       0       0       0       0       0       0       0       0
       0       0       0       0       0       0       0       0       0       0
       0       0       0       0       0       0       0       0       0       0
       0       0       0       0       0       0       0       0       0       0
       0       0       0       0       0       0       0       0       0       0
       0       0       0       0       0       0       0       0       0       0
       0       0       0       0       0       0       0       0       0       0
       0       0       0       0       0       0       0       0       0       0
       0       0       0       0       0       0       0       0       0       0
       0       0       0       0       0       0       0       0       0       0
       0       0       0       0       0       0       0       0       0       0
       0       0       0       0       0       0       0       0       0       0
       0       0       0       0       0       0       0       0       0       0
       0       0       0       0       0       0       0       0       0       0
       0       0       0       0       0       0       0       0       0       0
       0       0       0       0       0       0       0       0       0       0
       0       0       0       0       0       0       0       0       0       0
       0       0       0       0       0       0       0       0       0       0
       0       0       0       0       0       0       0       0       0       0
       0       0       0       0       0       0       0       0       0       0
       0       0       0       0       0       0       0       0       0       0
       0       0       0       0       0       0       0       0       0       0
       0       0       0       0       0       0       0       0       0       0
       0       0       0       0       0       0       0       0       0       0
       0       0       0       0       0       0       0       0       0       0
       0       0       0       0       0       0       0       0       0       0
       0       0       0       0       0       0       0       0       0       0
       0       0       0       0       0       0       0       0       0       0
       0       0       0       0       0       0       0       0       0       0
       0       0       0       0       0       0       0       0       0       0
       0       0       0       0       0       0       0       0       0       0
       0       0       0       0       0       0       0       0       0       0
       0       0       0       0       0       0       0       0       0       0
       0       0       0       0       0       0       0       0       0       0
       0       0       0       0       0       0       0       0       0       0
       0       0       0       0       0       0       0       0       0       0
       0       0       0       0       0       0       0       0       0       0
       0       0       0       0       0       0       0       0       0       0
       0       0       0       0       0       0       0       0       0       0
       0       0       0       0       0       0       0       0       0       0
       0       0       0       0       0       0       0       0       0       0
       0       0       0       0       0       0       0       0       0       0
       0       0       0       0       0       0       0       0       0       0
       0       0       0       0       0       0       0       0       0       0
       0       0       0       0       0       0       0       0       0       0
       0       0       0       0       0       0       0       0       0       0
       0       0       0       0       0       0       0       0       0       0
       0       0       0       0       0       0       0       0       0       0
       0       0       0       0       0       0       0       0       0       0
       0       0       0       0       0       0       0       0       0       0
       0       0       0       0       0       0       0       0       0       0
       0       0       0       0       0       0       0       0       0       0
       0       0       0       0       0       0       0       0       0       0
       0       0       0       0       0       0       0       0       0       0
       0       0       0       0       0       0       0       0       0       0
       0       0       0       0       0       0       0       0       0       0
       0       0       0       0       0       0       0       0       0       0
       0       0       0       0       0       0       0       0       0       0
       0       0       0       0       0       0       0       0       0       0
       0       0       0       0       0       0       0       0       0       0
       0       0       0       0       0       0       0       0       0       0
       0       0       0       0       0       0       0       0       0       0
       0       0       0       0       0       0       0       0       0       0
       0       0       0       0       0       0       0       0       0       0
       0       0       0       0       0       0       0       0       0       0
       0       0       0       0       0       0       0       0       0       0
       0       0       0       0       0       0       0       0       0       0
       0       0       0       0       0       0       0       0       0       0
       0       0       0       0       0       0       0       0       0       0
       0       0       0       0       0       0       0       0       0       0
       0       0       0       0       0       0       0       0       0       0
       0       0       0       0       0       0       0       0       0       0
       0       0       0       0       0       0       0       0       0       0
       0       0       0       0       0       0       0       0       0       0
       0       0       0       0       0       0       0       0       0       0
       0       0       0       0       0       0       0       0       0       0
       0       0       0       0       0       0       0       0       0       0
       0       0       0       0       0       0       0       0       0       0
       0       0       0       0       0       0       0       0       0       0
       0       0       0       0       0       0       0       0       0       0
       0       0       0       0       0       0       0       0       0       0
       0       0       0       0       0       0       0       0       0       0
       0       0       0       0       0       0       0       0       0       0
       0       0       0       0       0       0       0       0       0       0
       0       0       0       0       0       0       0       0       0       0
       0       0       0       0       0       0       0       0       0       0
       0       0       0       0       0       0       0       0       0       0
       0       0       0       0       0       0       0       0       0       0
       0       0       0       0       0       0       0       0       0       0
       0       0       0       0       0       0       0       0       0       0
       0       0       0       0       0       0       0       0       0       0
       0       0       0       0       0       0       0       0       0       0
       0       0       0       0       0       0       0       0       0       0
       0       0       0       0       0       0       0       0       0       0
       0       0       0       0       0       0       0       0       0       0
       0       0       0       0       0       0       0       0       0       0
       0       0       0       0       0       0       0       0       0       0
       0       0       0       0       0       0       0       0       0       0
       0       0       0       0       0       0       0       0       0       0
       0       0       0       0       0       0       0       0       0       0
       0       0       0       0       0       0       0       0       0       0
       0       0       0       0       0       0       0       0       0       0
       0       0       0       0       0       0       0       0       0       0
       0       0       0       0       0       0       0       0       0       0
       0       0       0       0       0       0       0       0       0       0
       0       0       0       0       0       0       0       0       0       0
       0       0       0       0       0       0       0       0       0       0
       0       0       0       0       0       0       0       0       0       0
       0       0       0       0       0       0       0       0       0       0
       0       0       0       0       0       0       0       0       0       0
       0       0       0       0       0       0       0       0       0       0
       0       0       0       0       0       0       0       0       0       0
       0       0       0       0       0       0       0       0       0       0
       0       0       0       0       0       0       0       0       0       0
       0       0       0       0       0       0       0       0       0       0
       0       0       0       0       0       0       0       0       0       0
       0       0       0       0       0       0       0       0       0       0
       0       0       0       0       0       0       0       0       0       0
       0       0       0       0       0       0       0       0       0       0
       0       0       0       0       0       0       0       0       0       0
       0       0       0       0       0       0       0       0       0       0
       0       0       0       0       0       0       0       0       0       0
       0       0       0       0       0       0       0       0       0       0
       0       0       0       0       0       0       0       0       0       0
       0       0       0       0       0       0       0       0       0       0
       0       0       0       0       0       0       0       0       0       0
       0       0       0       0       0       0       0       0       0       0
       0       0       0       0       0       0       0       0       0       0
       0       0       0       0       0       0       0       0       0       0
       0       0       0       0       0       0       0       0       0       0
       0       0       0       0       0       0       0       0       0       0
       0       0       0       0       0       0       0       0       0       0
       0       0       0       0       0       0       0       0       0       0
       0       0       0       0       0       0       0       0       0       0
       0       0       0       0       0       0       0       0       0       0
       0       0       0       0       0       0       0       0       0       0
       0       0       0       0       0       0       0       0       0       0
       0       0       0       0       0       0       0       0       0       0
       0       0       0       0       0       0       0       0       0       0
       0       0       0       0       0       0       0       0       0       0
       0       0       0       0       0       0       0       0       0       0
       0       0       0       0       0       0       0       0       0       0
       0       0       0       0       0       0       0       0       0       0
       0       0       0       0       0       0       0       0       0       0
       0       0       0       0       0       0       0       0       0       0
       0       0       0       0       0       0       0       0       0       0
       0       0       0       0       0       0       0       0       0       0
       0       0       0       0       0       0       0       0       0       0
       0       0       0       0       0       0       0       0       0       0
       0       0       0       0       0       0       0       0       0       0
       0       0       0       0       0       0       0       0       0       0
       0       0       0       0       0       0       0       0       0       0
       0       0       0       0       0       0       0       0       0       0
       0       0       0       0       0       0       0       0       0       0
       0       0       0       0       0       0       0       0       0       0
       0       0       0       0       0       0       0       0       0       0
       0       0       0       0       0       0       0       0       0       0
       0       0       0       0       0       0       0       0       0       0
       0       0       0       0       0       0       0       0       0       0
       0       0       0       0       0       0       0       0       0       0
       0       0       0       0       0       0       0       0       0       0
       0       0       0       0       0       0       0       0       0       0
       0       0       0       0       0       0       0       0       0       0
       0       0       0       0       0       0       0       0       0       0
       0       0       0       0       0       0       0       0       0       0
       0       0       0       0       0       0       0       0       0       0
       0       0       0       0       0       0       0       0       0       0
       0       0       0       0       0       0       0       0       0       0
       0       0       0       0       0       0       0       0       0       0
       0       0       0       0       0       0       0       0       0       0
       0       0       0       0       0       0       0       0       0       0
       0       0       0       0       0       0       0       0       0       0
       0       0       0       0       0       0       0       0       0       0
       0       0       0       0       0       0       0       0       0       0
       0       0       0       0       0       0       0       0       0       0
       0       0       0       0       0       0       0       0       0       0
       0       0       0       0       0       0       0       0       0       0
       0       0       0       0       0       0       0       0       0       0
       0       0       0       0       0       0       0       0       0       0
       0       0       0       0       0       0       0       0       0       0
       0       0       0       0       0       0       0       0       0       0
       0       0       0       0       0       0       0       0       0       0
       0       0       0       0       0       0       0       0       0       0
       0       0       0       0       0       0       0       0       0       0
       0       0       0       0       0       0       0       0       0       0
       0       0       0       0       0       0       0       0       0       0
       0       0       0       0       0       0       0       0       0       0
       0       0       0       0       0       0       0       0       0       0
       0       0       0       0       0       0       0       0       0       0
       0       0       0       0       0       0       0       0       0       0
       0       0       0       0       0       0       0       0       0       0
       0       0       0       0       0       0       0       0       0       0
       0       0       0       0       0       0       0       0       0       0
       0       0       0       0       0       0       0       0       0       0
       0       0       0       0       0       0       0       0       0       0
       0       0       0       0       0       0       0       0       0       0
       0       0       0       0       0       0       0       0       0       0
       0       0       0       0       0       0       0       0       0       0
       0       0       0       0       0       0       0       0       0       0
       0       0       0       0       0       0       0       0       0       0
       0       0       0       0       0       0       0       0       0       0
       0       0       0       0       0       0       0       0       0       0
       0       0       0       0       0       0       0       0       0       0
       0       0       0       0       0       0       0       0       0       0
       0       0       0       0       0       0       0       0       0       0
       0       0       0       0       0       0       0       0       0       0
       0       0       0       0       0       0       0       0       0       0
       0       0       0       0       0       0       0       0       0       0
       0       0       0       0       0       0       0       0       0       0
       0       0       0       0       0       0       0       0       0       0
       0       0       0       0       0       0       0       0       0       0
       0       0       0       0       0       0       0       0       0       0
       0       0       0       0       0       0       0       0       0       0
       0       0       0       0       0       0       0       0       0       0
       0       0       0       0       0       0       0       0       0       0
       0       0       0       0       0       0       0       0       0       0
       0       0       0       0       0       0       0       0       0       0
       0       0       0       0       0       0       0       0       0       0
       0       0       0       0       0       0       0       0       0       0
       0       0       0       0       0       0       0       0       0       0
       0       0       0       0       0       0       0       0       0       0
       0       0       0       0       0       0       0       0       0       0
       0       0       0       0       0       0       0       0       0       0
       0       0       0       0       0       0       0       0       0       0
       0       0       0       0       0       0       0       0       0       0
       0       0       0       0       0       0       0       0       0       0
       0       0       0       0       0       0       0       0       0       0
       0       0       0       0       0       0       0       0       0       0
       0       0       0       0       0       0       0       0       0       0
       0       0       0       0       0       0       0       0       0       0
       0       0       0       0       0       0       0       0       0       0
       0       0       0       0       0       0       0       0       0       0
       0       0       0       0       0       0       0       0       0       0
       0       0       0       0       0       0       0       0       0       0
       0       0       0       0       0       0       0       0       0       0
       0       0       0       0       0       0       0       0       0       0
       0       0       0       0       0       0       0       0       0       0
       0       0       0       0       0       0       0       0       0       0
       0       0       0       0       0       0       0       0       0       0
       0       0       0       0       0       0       0       0       0       0
       0       0       0       0       0       0       0       0       0       0
       0       0       0       0       0       0       0       0       0       0
       0       0       0       0       0       0       0       0       0       0
       0       0       0       0       0       0       0       0       0       0
       0       0       0       0       0       0       0       0       0       0
       0       0       0       0       0       0       0       0       0       0
       0       0       0       0       0       0       0       0       0       0
       0       0       0       0       0       0       0       0       0       0
       0       0       0       0       0       0       0       0       0       0
       0       0       0       0       0       0       0       0       0       0
       0       0       0       0       0       0       0       0       0       0
       0       0       0       0       0       0       0       0       0       0
       0       0       0       0       0       0       0       0       0       0
       0       0       0       0       0       0       0       0       0       0
       0       0       0       0       0       0       0       0       0       0
       0       0       0       0       0       0       0       0       0       0
       0       0       0       0       0       0       0       0       0       0
       0       0       0       0       0       0       0       0       0       0
       0       0       0       0       0       0       0       0       0       0
       0       0       0       0       0       0       0       0       0       0
       0       0       0       0       0       0       0       0       0       0
       0       0       0       0       0       0       0       0       0       0
       0       0       0       0       0       0       0       0       0       0
       0       0       0       0       0       0       0       0       0       0
       0       0       0       0       0       0       0       0       0       0
       0       0       0       0       0       0       0       0       0       0
       0       0       0       0       0       0       0       0       0       0
       0       0       0       0       0       0       0       0       0       0
       0       0       0       0       0       0       0       0       0       0
       0       0       0       0       0       0       0       0       0       0
       0       0       0       0       0       0       0       0       0       0
       0       0       0       0       0       0       0       0       0       0
       0       0       0       0       0       0       0       0       0       0
       0       0       0       0       0       0       0       0       0       0
       0       0       0       0       0       0       0       0       0       0
       0       0       0       0       0       0       0       0       0       0
       0       0       0       0       0       0       0       0       0       0
       0       0       0       0       0       0       0       0       0       0
       0       0       0       0       0       0       0       0       0       0
       0       0       0       0       0       0       0       0       0       0
       0       0       0       0       0       0       0       0       0       0
       0       0       0       0       0       0       0       0       0       0
       0       0       0       0       0       0       0       0       0       0
       0       0       0       0       0       0       0       0       0       0
       0       0       0       0       0       0       0       0       0       0
       0       0       0       0       0       0       0       0       0       0
       0       0       0       0       0       0       0       0       0       0
       0       0       0       0       0       0       0       0       0       0
       0       0       0       0       0       0       0       0       0       0
       0       0       0       0       0       0       0       0       0       0
       0       0       0       0       0       0       0       0       0       0
       0       0       0       0       0       0       0       0       0       0
       0       0       0       0       0       0       0       0       0       0
       0       0       0       0       0       0       0       0       0       0
       0       0       0       0       0       0       0       0       0       0
       0       0       0       0       0       0       0       0       0       0
       0       0       0       0       0       0       0       0       0       0
       0       0       0       0       0       0       0       0       0       0
       0       0       0       0       0       0       0       0       0       0
       0       0       0       0       0       0       0       0       0       0
       0       0       0       0       0       0       0       0       0       0
       0       0       0       0       0       0       0       0       0       0
       0       0       0       0       0       0       0       0       0       0
       0       0       0       0       0       0       0       0       0       0
       0       0       0       0       0       0       0       0       0       0
       0       0       0       0       0       0       0       0       0       0
       0       0       0       0       0       0       0       0       0       0
       0       0       0       0       0       0       0       0       0       0
       0       0       0       0       0       0       0       0       0       0
       0       0       0       0       0       0       0       0       0       0
       0       0       0       0       0       0       0       0       0       0
       0       0       0       0       0       0       0       0       0       0
       0       0       0       0       0       0       0       0       0       0
       0       0       0       0       0       0       0       0       0       0
       0       0       0       0       0       0       0       0       0       0
       0       0       0       0       0       0       0       0       0       0
       0       0       0       0       0       0       0       0       0       0
       0       0       0       0       0       0       0       0       0       0
       0       0       0       0       0       0       0       0       0       0
       0       0       0       0       0       0       0       0       0       0
       0       0       0       0       0       0       0       0       0       0
       0       0       0       0       0       0       0       0       0       0
       0       0       0       0       0       0       0       0       0       0
       0       0       0       0       0       0       0       0       0       0
       0       0       0       0       0       0       0       0       0       0
       0       0       0       0       0       0       0       0       0       0
       0       0       0       0       0       0       0       0       0       0
       0       0       0       0       0       0       0       0       0       0
       0       0       0       0       0       0       0       0       0       0
       0       0       0       0       0       0       0       0       0       0
       0       0       0       0       0       0       0       0       0       0
       0       0       0       0       0       0       0       0       0       0
       0       0       0       0       0       0       0       0       0       0
       0       0       0       0       0       0       0       0       0       0
       0       0       0       0       0       0       0       0       0       0
       0       0       0       0       0       0       0       0       0       0
       0       0       0       0       0       0       0       0       0       0
       0       0       0       0       0       0       0       0       0       0
       0       0       0       0       0       0       0       0       0       0
       0       0       0       0       0       0       0       0       0       0
       0       0       0       0       0       0       0       0       0       0
       0       0       0       0       0       0       0       0       0       0
       0       0       0       0       0       0       0       0       0       0
       0       0       0       0       0       0       0       0       0       0
       0       0       0       0       0       0       0       0       0       0
       0       0       0       0       0       0       0       0       0       0
       0       0       0       0       0       0       0       0       0       0
       0       0       0       0       0       0       0       0       0       0
       0       0       0       0       0       0       0       0       0       0
       0       0       0       0       0       0       0       0       0       0
       0       0       0       0       0       0       0       0       0       0
       0       0       0       0       0       0       0       0       0       0
       0       0       0       0       0       0       0       0       0       0
       0       0       0       0       0       0       0       0       0       0
       0       0       0       0       0       0       0       0       0       0
       0       0       0       0       0       0       0       0       0       0
       0       0       0       0       0       0       0       0       0       0
       0       0       0       0       0       0       0       0       0       0
       0       0       0       0       0       0       0       0       0       0
       0       0       0       0       0       0       0       0       0       0
       0       0       0       0       0       0       0       0       0       0
       0       0       0       0       0       0       0       0       0       0
       0       0       0       0       0       0       0       0       0       0
       0       0       0       0       0       0       0       0       0       0
       0       0       0       0       0       0       0       0       0       0
       0       0       0       0       0       0       0       0       0       0
       0       0       0       0       0       0       0       0       0       0
       0       0       0       0       0       0       0       0       0       0
       0       0       0       0       0       0       0       0       0       0
       0       0       0       0       0       0       0       0       0       0
       0       0       0       0       0       0       0       0       0       0
       0       0       0       0       0       0       0       0       0       0
       0       0       0       0       0       0       0       0       0       0
       0       0       0       0       0       0       0       0       0       0
       0       0       0       0       0       0       0       0       0       0
       0       0       0       0       0       0       0       0       0       0
       0       0       0       0       0       0       0       0       0       0
       0       0       0       0       0       0       0       0       0       0
       0       0       0       0       0       0       0       0       0       0
       0       0       0       0       0       0       0       0       0       0
       0       0       0       0       0       0       0       0       0       0
       0       0       0       0       0       0       0       0       0       0
       0       0       0       0       0       0       0       0       0       0
       0       0       0       0       0       0       0       0       0       0
       0       0       0       0       0       0       0       0       0       0
       0       0       0       0       0       0       0       0       0       0
       0       0       0       0       0       0       0       0       0       0
       0       0       0       0       0       0       0       0       0       0
       0       0       0       0       0       0       0       0       0       0
       0       0       0       0       0       0       0       0       0       0
       0       0       0       0       0       0       0       0       0       0
       0       0       0       0       0       0       0       0       0       0
       0       0       0       0       0       0       0       0       0       0
       0       0       0       0       0       0       0       0       0       0
       0       0       0       0       0       0       0       0       0       0
       0       0       0       0       0       0       0       0       0       0
       0       0       0       0       0       0       0       0       0       0
       0       0       0       0       0       0       0       0       0       0
       0       0       0       0       0       0       0       0       0       0
       0       0       0       0       0       0       0       0       0       0
       0       0       0       0       0       0       0       0       0       0
       0       0       0       0       0       0       0       0       0       0
       0       0       0       0       0       0       0       0       0       0
       0       0       0       0       0       0       0       0       0       0
       0       0       0       0       0       0       0       0       0       0
       0       0       0       0       0       0       0       0       0       0
       0       0       0       0       0       0       0       0       0       0
       0       0       0       0       0       0       0       0       0       0
       0       0       0       0       0       0       0       0       0       0
       0       0       0       0       0       0       0       0       0       0
       0       0       0       0       0       0       0       0       0       0
       0       0       0       0       0       0       0       0       0       0
       0       0       0       0       0       0       0       0       0       0
       0       0       0       0       0       0       0       0       0       0
       0       0       0       0       0       0       0       0       0       0
       0       0       0       0       0       0       0       0       0       0
       0       0       0       0       0       0       0       0       0       0
       0       0       0       0       0       0       0       0       0       0
       0       0       0       0       0       0       0       0       0       0
       0       0       0       0       0       0       0       0       0       0
       0       0       0       0       0       0       0       0       0       0
       0       0       0       0       0       0       0       0       0       0
       0       0       0       0       0       0       0       0       0       0
       0       0       0       0       0       0       0       0       0       0
       0       0       0       0       0       0       0       0       0       0
       0       0       0       0       0       0       0       0       0       0
       0       0       0       0       0       0       0       0       0       0
       0       0       0       0       0       0       0       0       0       0
       0       0       0       0       0       0       0       0       0       0
       0       0       0       0       0       0       0       0       0       0
       0       0       0       0       0       0       0       0       0       0
       0       0       0       0       0       0       0       0       0       0
       0       0       0       0       0       0       0       0       0       0
       0       0       0       0       0       0       0       0       0       0
       0       0       0       0       0       0       0       0       0       0
       0       0       0       0       0       0       0       0       0       0
       0       0       0       0       0       0       0       0       0       0
       0       0       0       0       0       0       0       0       0       0
       0       0       0       0       0       0       0       0       0       0
       0       0       0       0       0       0       0       0       0       0
       0       0       0       0       0       0       0       0       0       0
       0       0       0       0       0       0       0       0       0       0
       0       0       0       0       0       0       0       0       0       0
       0       0       0       0       0       0       0       0       0       0
       0       0       0       0       0       0       0       0       0       0
       0       0       0       0       0       0       0       0       0       0
       0       0       0       0       0       0       0       0       0       0
       0       0       0       0       0       0       0       0       0       0
       0       0       0       0       0       0       0       0       0       0
       0       0       0       0       0       0       0       0       0       0
       0       0       0       0       0       0       0       0       0       0
       0       0       0       0       0       0       0       0       0       0
       0       0       0       0       0       0       0       0       0       0
       0       0       0       0       0       0       0       0       0       0
       0       0       0       0       0       0       0       0       0       0
       0       0       0       0       0       0       0       0       0       0
       0       0       0       0       0       0       0       0       0       0
       0       0       0       0       0       0       0       0       0       0
       0       0       0       0       0       0       0       0       0       0
       0       0       0       0       0       0       0       0       0       0
       0       0       0       0       0       0       0       0       0       0
       0       0       0       0       0       0       0       0       0       0
       0       0       0       0       0       0       0       0       0       0
       0       0       0       0       0       0       0       0       0       0
       0       0       0       0       0       0       0       0       0       0
       0       0       0       0       0       0       0       0       0       0
       0       0       0       0       0       0       0       0       0       0
       0       0       0       0       0       0       0       0       0       0
       0       0       0       0       0       0       0       0       0       0
       0       0       0       0       0       0       0       0       0       0
       0       0       0       0       0       0       0       0       0       0
       0       0       0       0       0       0       0       0       0       0
       0       0       0       0       0       0       0       0       0       0
       0       0       0       0       0       0       0       0       0       0
       0       0       0       0       0       0       0       0       0       0
       0       0       0       0       0       0       0       0       0       0
       0       0       0       0       0       0       0       0       0       0
       0       0       0       0       0       0       0       0       0       0
       0       0       0       0       0       0       0       0       0       0
       0       0       0       0       0       0       0       0       0       0
       0       0       0       0       0       0       0       0       0       0
       0       0       0       0       0       0       0       0       0       0
       0       0       0       0       0       0       0       0       0       0
       0       0       0       0       0       0       0       0       0       0
       0       0       0       0       0       0       0       0       0       0
       0       0       0       0       0       0       0       0       0       0
       0       0       0       0       0       0       0       0       0       0
       0       0       0       0       0       0       0       0       0       0
       0       0       0       0       0       0       0       0       0       0
       0       0       0       0       0       0       0       0       0       0
       0       0       0       0       0       0       0       0       0       0
       0       0       0       0       0       0       0       0       0       0
       0       0       0       0       0       0       0       0       0       0
       0       0       0       0       0       0       0       0       0       0
       0       0       0       0       0       0       0       0       0       0
       0       0       0       0       0       0       0       0       0       0
       0       0       0       0       0       0       0       0       0       0
       0       0       0       0       0       0       0       0       0       0
       0       0       0       0       0       0       0       0       0       0
       0       0       0       0       0       0       0       0       0       0
       0       0       0       0       0       0       0       0       0       0
       0       0       0       0       0       0       0       0       0       0
       0       0       0       0       0       0       0       0       0       0
       0       0       0       0       0       0       0       0       0       0
       0       0       0       0       0       0       0       0       0       0
       0       0       0       0       0       0       0       0       0       0
       0       0       0       0       0       0       0       0       0       0
       0       0       0       0       0       0       0       0       0       0
       0       0       0       0       0       0       0       0       0       0
       0       0       0       0       0       0       0       0       0       0
       0       0       0       0       0       0       0       0       0       0
       0       0       0       0       0       0       0       0       0       0
       0       0       0       0       0       0       0       0       0       0
       0       0       0       0       0       0       0       0       0       0
       0       0       0       0       0       0       0       0       0       0
       0       0       0       0       0       0       0       0       0       0
       0       0       0       0       0       0       0       0       0       0
       0       0       0       0       0       0       0       0       0       0
       0       0       0       0       0       0       0       0       0       0
       0       0       0       0       0       0       0       0       0       0
       0       0       0       0       0       0       0       0       0       0
       0       0       0       0       0       0       0       0       0       0
       0       0       0       0       0       0       0       0       0       0
       0       0       0       0       0       0       0       0       0       0
       0       0       0       0       0       0       0       0       0       0
       0       0       0       0       0       0       0       0       0       0
       0       0       0       0       0       0       0       0       0       0
       0       0       0       0       0       0       0       0       0       0
       0       0       0       0       0       0       0       0       0       0
       0       0       0       0       0       0       0       0       0       0
       0       0       0       0       0       0       0       0       0       0
       0       0       0       0       0       0       0       0       0       0
       0       0       0       0       0       0       0       0       0       0
       0       0       0       0       0       0       0       0       0       0
       0       0       0       0       0       0       0       0       0       0
       0       0       0       0       0       0       0       0       0       0
       0       0       0       0       0       0       0       0       0       0
       0       0       0       0       0       0       0       0       0       0
       0       0       0       0       0       0       0       0       0       0
       0       0       0       0       0       0       0       0       0       0
       0       0       0       0       0       0       0       0       0       0
       0       0       0       0       0       0       0       0       0       0
       0       0       0       0       0       0       0       0       0       0
       0       0       0       0       0       0       0       0       0       0
       0       0       0       0       0       0       0       0       0       0
       0       0       0       0       0       0       0       0       0       0
       0       0       0       0       0       0       0       0       0       0
       0       0       0       0       0       0       0       0       0       0
       0       0       0       0       0       0       0       0       0       0
       0       0       0       0       0       0       0       0       0       0
       0       0       0       0       0       0       0       0       0       0
       0       0       0       0       0       0       0       0       0       0
       0       0       0       0       0       0       0       0       0       0
       0       0       0       0       0       0       0       0       0       0
       0       0       0       0       0       0       0       0       0       0
       0       0       0       0       0       0       0       0       0       0
       0       0       0       0       0       0       0       0       0       0
       0       0       0       0       0       0       0       0       0       0
       0       0       0       0       0       0       0       0       0       0
       0       0       0       0       0       0       0       0       0       0
       0       0       0       0       0       0       0       0       0       0
       0       0       0       0       0       0       0       0       0       0
       0       0       0       0       0       0       0       0       0       0
       0       0       0       0       0       0       0       0       0       0
       0       0       0       0       0       0       0       0       0       0
       0       0       0       0       0       0       0       0       0       0
       0       0       0       0       0       0       0       0       0       0
       0       0       0       0       0       0       0       0       0       0
       0       0       0       0       0       0       0       0       0       0
       0       0       0       0       0       0       0       0       0       0
       0       0       0       0       0       0       0       0       0       0
       0       0       0       0       0       0       0       0       0       0
       0       0       0       0       0       0       0       0       0       0
       0       0       0       0       0       0       0       0       0       0
       0       0       0       0       0       0       0       0       0       0
       0       0       0       0       0       0       0       0       0       0
       0       0       0       0       0       0       0       0       0       0
       0       0       0       0       0       0       0       0       0       0
       0       0       0       0       0       0       0       0       0       0
       0       0       0       0       0       0       0       0       0       0
       0       0       0       0       0       0       0       0       0       0
       0       0       0       0       0       0       0       0       0       0
       0       0       0       0       0       0       0       0       0       0
       0       0       0       0       0       0       0       0       0       0
       0       0       0       0       0       0       0       0       0       0
       0       0       0       0       0       0       0       0       0       0
       0       0       0       0       0       0       0       0       0       0
       0       0       0       0       0       0       0       0       0       0
       0       0       0       0       0       0       0       0       0       0
       0       0       0       0       0       0       0       0       0       0
       0       0       0       0       0       0       0       0       0       0
       0       0       0       0       0       0       0       0       0       0
       0       0       0       0       0       0       0       0       0       0
       0       0       0       0       0       0       0       0       0       0
       0       0       0       0       0       0       0       0       0       0
       0       0       0       0       0       0       0       0       0       0
       0       0       0       0       0       0       0       0       0       0
       0       0       0       0       0       0       0       0       0       0
       0       0       0       0       0       0       0       0       0       0
       0       0       0       0       0       0       0       0       0       0
       0       0       0       0       0       0       0       0       0       0
       0       0       0       0       0       0       0       0       0       0
       0       0       0       0       0       0       0       0       0       0
       0       0       0       0       0       0       0       0       0       0
       0       0       0       0       0       0       0       0       0       0
       0       0       0       0       0       0       0       0       0       0
       0       0       0       0       0       0       0       0       0       0
       0       0       0       0       0       0       0       0       0       0
       0       0       0       0       0       0       0       0       0       0
       0       0       0       0       0       0       0       0       0       0
       0       0       0       0       0       0       0       0       0       0
       0       0       0       0       0       0       0       0       0       0
       0       0       0       0       0       0       0       0       0       0
       0       0       0       0       0       0       0       0       0       0
       0       0       0       0       0       0       0       0       0       0
       0       0       0       0       0       0       0       0       0       0
       0       0       0       0       0       0       0       0       0       0
       0       0       0       0       0       0       0       0       0       0
       0       0       0       0       0       0       0       0       0       0
       0       0       0       0       0       0       0       0       0       0
       0       0       0       0       0       0       0       0       0       0
       0       0       0       0       0       0       0       0       0       0
       0       0       0       0       0       0       0       0       0       0
       0       0       0       0       0       0       0       0       0       0
       0       0       0       0       0       0       0       0       0       0
       0       0       0       0       0       0       0       0       0       0
       0       0       0       0       0       0       0       0       0       0
       0       0       0       0       0       0       0       0       0       0
       0       0       0       0       0       0       0       0       0       0
       0       0       0       0       0       0       0       0       0       0
       0       0       0       0       0       0       0       0       0       0
       0       0       0       0       0       0       0       0       0       0
       0       0       0       0       0       0       0       0       0       0
       0       0       0       0       0       0       0       0       0       0
       0       0       0       0       0       0       0       0       0       0
       0       0       0       0       0       0       0       0       0       0
       0       0       0       0       0       0       0       0       0       0
       0       0       0       0       0       0       0       0       0       0
       0       0       0       0       0       0       0       0       0       0
       0       0       0       0       0       0       0       0       0       0
       0       0       0       0       0       0       0       0       0       0
       0       0       0       0       0       0       0       0       0       0
       0       0       0       0       0       0       0       0       0       0
       0       0       0       0       0       0       0       0       0       0
       0       0       0       0       0       0       0       0       0       0
       0       0       0       0       0       0       0       0       0       0
       0       0       0       0       0       0       0       0       0       0
       0       0       0       0       0       0       0       0       0       0
       0       0       0       0       0       0       0       0       0       0
       0       0       0       0       0       0       0       0       0       0
       0       0       0       0       0       0       0       0       0       0
       0       0       0       0       0       0       0       0       0       0
       0       0       0       0       0       0       0       0       0       0
       0       0       0       0       0       0       0       0       0       0
       0       0       0       0       0       0       0       0       0       0
       0       0       0       0       0       0       0       0       0       0
       0       0       0       0       0       0       0       0       0       0
       0       0       0       0       0       0       0       0       0       0
       0       0       0       0       0       0       0       0       0       0
       0       0       0       0       0       0       0       0       0       0
       0       0       0       0       0       0       0       0       0       0
       0       0       0       0       0       0       0       0       0       0
       0       0       0       0       0       0       0       0       0       0
       0       0       0       0       0       0       0       0       0       0
       0       0       0       0       0       0       0       0       0       0
       0       0       0       0       0       0       0       0       0       0
       0       0       0       0       0       0       0       0       0       0
       0       0       0       0       0       0       0       0       0       0
       0       0       0       0       0       0       0       0       0       0
       0       0       0       0       0       0       0       0       0       0
       0       0       0       0       0       0       0       0       0       0
       0       0       0       0       0       0       0       0       0       0
       0       0       0       0       0       0       0       0       0       0
       0       0       0       0       0       0       0       0       0       0
       0       0       0       0       0       0       0       0       0       0
       0       0       0       0       0       0       0       0       0       0
       0       0       0       0       0       0       0       0       0       0
       0       0       0       0       0       0       0       0       0       0
       0       0       0       0       0       0       0       0       0       0
       0       0       0       0       0       0       0       0       0       0
       0       0       0       0       0       0       0       0       0       0
       0       0       0       0       0       0       0       0       0       0
       0       0       0       0       0       0       0       0       0       0
       0       0       0       0       0       0       0       0       0       0
       0       0       0       0       0       0       0       0       0       0
       0       0       0       0       0       0       0       0       0       0
       0       0       0       0       0       0       0       0       0       0
       0       0       0       0       0       0       0       0       0       0
       0       0       0       0       0       0       0       0       0       0
       0       0       0       0       0       0       0       0       0       0
       0       0       0       0       0       0       0       0       0       0
       0       0       0       0       0       0       0       0       0       0
       0       0       0       0       0       0       0       0       0       0
       0       0       0       0       0       0       0       0       0       0
       0       0       0       0       0       0       0       0       0       0
       0       0       0       0       0       0       0       0       0       0
       0       0       0       0       0       0       0       0       0       0
       0       0       0       0       0       0       0       0       0       0
       0       0       0       0       0       0       0       0       0       0
       0       0       0       0       0       0       0       0       0       0
       0       0       0       0       0       0       0       0       0       0
       0       0       0       0       0       0       0       0       0       0
       0       0       0       0       0       0       0       0       0       0
       0       0       0       0       0       0       0       0       0       0
       0       0       0       0       0       0       0       0       0       0
       0       0       0       0       0       0       0       0       0       0
       0       0       0       0       0       0       0       0       0       0
       0       0       0       0       0       0       0       0       0       0
       0       0       0       0       0       0       0       0       0       0
       0       0       0       0       0       0       0       0       0       0
       0       0       0       0       0       0       0       0       0       0
       0       0       0       0       0       0       0       0       0       0
       0       0       0       0       0       0       0       0       0       0
       0       0       0       0       0       0       0       0       0       0
       0       0       0       0       0       0       0       0       0       0
       0       0       0       0       0       0       0       0       0       0
       0       0       0       0       0       0       0       0       0       0
       0       0       0       0       0       0       0       0       0       0
       0       0       0       0       0       0       0       0       0       0
       0       0       0       0       0       0       0       0       0       0
       0       0       0       0       0       0       0       0       0       0
       0       0       0       0       0       0       0       0       0       0
       0       0       0       0       0       0       0       0       0       0
       0       0       0       0       0       0       0       0       0       0
       0       0       0       0       0       0       0       0       0       0
       0       0       0       0       0       0       0       0       0       0
       0       0       0       0       0       0       0       0       0       0
       0       0       0       0       0       0       0       0       0       0
       0       0       0       0       0       0       0       0       0       0
       0       0       0       0       0       0       0       0       0       0
       0       0       0       0       0       0       0       0       0       0
       0       0       0       0       0       0       0       0       0       0
       0       0       0       0       0       0       0       0       0       0
       0       0       0       0       0       0       0       0       0       0
       0       0       0       0       0       0       0       0       0       0
       0       0       0       0       0       0       0       0       0       0
       0       0       0       0       0       0       0       0       0       0
       0       0       0       0       0       0       0       0       0       0
       0       0       0       0       0       0       0       0       0       0
       0       0       0       0       0       0       0       0       0       0
       0       0       0       0       0       0       0       0       0       0
       0       0       0       0       0       0       0       0       0       0
       0       0       0       0       0       0       0       0       0       0
       0       0       0       0       0       0       0       0       0       0
       0       0       0       0       0       0       0       0       0       0
       0       0       0       0       0       0       0       0       0       0
       0       0       0       0       0       0       0       0       0       0
       0       0       0       0       0       0       0       0       0       0
       0       0       0       0       0       0       0       0       0       0
       0       0       0       0       0       0       0       0       0       0
       0       0       0       0       0       0       0       0       0       0
       0       0       0       0       0       0       0       0       0       0
       0       0       0       0       0       0       0       0       0       0
       0       0       0       0       0       0       0       0       0       0
       0       0       0       0       0       0       0       0       0       0
       0       0       0       0       0       0       0       0       0       0
       0       0       0       0       0       0       0       0       0       0
       0       0       0       0       0       0       0       0       0       0
       0       0       0       0       0       0       0       0       0       0
       0       0       0       0       0       0       0       0       0       0
       0       0       0       0       0       0       0       0       0       0
       0       0       0       0       0       0       0       0       0       0
       0       0       0       0       0       0       0       0       0       0
       0       0       0       0       0       0       0       0       0       0
       0       0       0       0       0       0       0       0       0       0
       0       0       0       0       0       0       0       0       0       0
       0       0       0       0       0       0       0       0       0       0
       0       0       0       0       0       0       0       0       0       0
       0       0       0       0       0       0       0       0       0       0
       0       0       0       0       0       0       0       0       0       0
       0       0       0       0       0       0       0       0       0       0
       0       0       0       0       0       0       0       0       0       0
       0       0       0       0       0       0       0       0       0       0
       0       0       0       0       0       0       0       0       0       0
       0       0       0       0       0       0       0       0       0       0
       0       0       0       0       0       0       0       0       0       0
       0       0       0       0       0       0       0       0       0       0
       0       0       0       0       0       0       0       0       0       0
       0       0       0       0       0       0       0       0       0       0
       0       0       0       0       0       0       0       0       0       0
       0       0       0       0       0       0       0       0       0       0
       0       0       0       0       0       0       0       0       0       0
       0       0       0       0       0       0       0       0       0       0
       0       0       0       0       0       0       0       0       0       0
       0       0       0       0       0       0       0       0       0       0
       0       0       0       0       0       0       0       0       0       0
       0       0       0       0       0       0       0       0       0       0
       0       0       0       0       0       0       0       0       0       0
       0       0       0       0       0       0       0       0       0       0
       0       0       0       0       0       0       0       0       0       0
       0       0       0       0       0       0       0       0       0       0
       0       0       0       0       0       0       0       0       0       0
       0       0       0       0       0       0       0       0       0       0
       0       0       0       0       0       0       0       0       0       0
       0       0       0       0       0       0       0       0       0       0
       0       0       0       0       0       0       0       0       0       0
       0       0       0       0       0       0       0       0       0       0
       0       0       0       0       0       0       0       0       0       0
       0       0       0       0       0       0       0       0       0       0
       0       0       0       0       0       0       0       0       0       0
       0       0       0       0       0       0       0       0       0       0
       0       0       0       0       0       0       0       0       0       0
       0       0       0       0       0       0       0       0       0       0
       0       0       0       0       0       0       0       0       0       0
       0       0       0       0       0       0       0       0       0       0
       0       0       0       0       0       0       0       0       0       0
       0       0       0       0       0       0       0       0       0       0
       0       0       0       0       0       0       0       0       0       0
       0       0       0       0       0       0       0       0       0       0
       0       0       0       0       0       0       0       0       0       0
       0       0       0       0       0       0       0       0       0       0
       0       0       0       0       0       0       0       0       0       0
       0       0       0       0       0       0       0       0       0       0
       0       0       0       0       0       0       0       0       0       0
       0       0       0       0       0       0       0       0       0       0
       0       0       0       0       0       0       0       0       0       0
       0       0       0       0       0       0       0       0       0       0
       0       0       0       0       0       0       0       0       0       0
       0       0       0       0       0       0       0       0       0       0
       0       0       0       0       0       0       0       0       0       0
       0       0       0       0       0       0       0       0       0       0
       0       0       0       0       0       0       0       0       0       0
       0       0       0       0       0       0       0       0       0       0
       0       0       0       0       0       0       0       0       0       0
       0       0       0       0       0       0       0       0       0       0
       0       0       0       0       0       0       0       0       0       0
       0       0       0       0       0       0       0       0       0       0
       0       0       0       0       0       0       0       0       0       0
       0       0       0       0       0       0       0       0       0       0
       0       0       0       0       0       0       0       0       0       0
       0       0       0       0       0       0       0       0       0       0
       0       0       0       0       0       0       0       0       0       0
       0       0       0       0       0       0       0       0       0       0
       0       0       0       0       0       0       0       0       0       0
       0       0       0       0       0       0       0       0       0       0
       0       0       0       0       0       0       0       0       0       0
       0       0       0       0       0       0       0       0       0       0
       0       0       0       0       0       0       0       0       0       0
       0       0       0       0       0       0       0       0       0       0
       0       0       0       0       0       0       0       0       0       0
       0       0       0       0       0       0       0       0       0       0
       0       0       0       0       0       0       0       0       0       0
       0       0       0       0       0       0       0       0       0       0
       0       0       0       0       0       0       0       0       0       0
       0       0       0       0       0       0       0       0       0       0
       0       0       0       0       0       0       0       0       0       0
       0       0       0       0       0       0       0       0       0       0
       0       0       0       0       0       0       0       0       0       0
       0       0       0       0       0       0       0       0       0       0
       0       0       0       0       0       0       0       0       0       0
       0       0       0       0       0       0       0       0       0       0
       0       0       0       0       0       0       0       0       0       0
       0       0       0       0       0       0       0       0       0       0
       0       0       0       0       0       0       0       0       0       0
       0       0       0       0       0       0       0       0       0       0
       0       0       0       0       0       0       0       0       0       0
       0       0       0       0       0       0       0       0       0       0
       0       0       0       0       0       0       0       0       0       0
       0       0       0       0       0       0       0       0       0       0
       0       0       0       0       0       0       0       0       0       0
       0       0       0       0       0       0       0       0       0       0
       0       0       0       0       0       0       0       0       0       0
       0       0       0       0       0       0       0       0       0       0
       0       0       0       0       0       0       0       0       0       0
       0       0       0       0       0       0       0       0       0       0
       0       0       0       0       0       0       0       0       0       0
       0       0       0       0       0       0       0       0       0       0
       0       0       0       0       0       0       0       0       0       0
       0       0       0       0       0       0       0       0       0       0
       0       0       0       0       0       0       0       0       0       0
       0       0       0       0       0       0       0       0       0       0
       0       0       0       0       0       0       0       0       0       0
       0       0       0       0       0       0       0       0       0       0
       0       0       0       0       0       0       0       0       0       0
       0       0       0       0       0       0       0       0       0       0
       0       0       0       0       0       0       0       0       0       0
       0       0       0       0       0       0       0       0       0       0
       0       0       0       0       0       0       0       0       0       0
       0       0       0       0       0       0       0       0       0       0
       0       0       0       0       0       0       0       0       0       0
       0       0       0       0       0       0       0       0       0       0
       0       0       0       0       0       0       0       0       0       0
       0       0       0       0       0       0       0       0       0       0
       0       0       0       0       0       0       0       0       0       0
       0       0       0       0       0       0       0       0       0       0
       0       0       0       0       0       0       0       0       0       0
       0       0       0       0       0       0       0       0       0       0
       0       0       0       0       0       0       0       0       0       0
       0       0       0       0       0       0       0       0       0       0
       0       0       0       0       0       0       0       0       0       0
       0       0       0       0       0       0       0       0       0       0
       0       0       0       0       0       0       0       0       0       0
       0       0       0       0       0       0       0       0       0       0
       0       0       0       0       0       0       0       0       0       0
       0       0       0       0       0       0       0       0       0       0
       0       0       0       0       0       0       0       0       0       0
       0       0       0       0       0       0       0       0       0       0
       0       0       0       0       0       0       0       0       0       0
       0       0       0       0       0       0       0       0       0       0
       0       0       0       0       0       0       0       0       0       0
       0       0       0       0       0       0       0       0       0       0
       0       0       0       0       0       0       0       0       0       0
       0       0       0       0       0       0       0       0       0       0
       0       0       0       0       0       0       0       0       0       0
       0       0       0       0       0       0       0       0       0       0
       0       0       0       0       0       0       0       0       0       0
       0       0       0       0       0       0       0       0       0       0
       0       0       0       0       0       0       0       0       0       0
       0       0       0       0       0       0       0       0       0       0
       0       0       0       0       0       0       0       0       0       0
       0       0       0       0       0       0       0       0       0       0
       0       0       0       0       0       0       0       0       0       0
       0       0       0       0       0       0       0       0       0       0
       0       0       0       0       0       0       0       0       0       0
       0       0       0       0       0       0       0       0       0       0
       0       0       0       0       0       0       0       0       0       0
       0       0       0       0       0       0       0       0       0       0
       0       0       0       0       0       0       0       0       0       0
       0       0       0       0       0       0       0       0       0       0
       0       0       0       0       0       0       0       0       0       0
       0       0       0       0       0       0       0       0       0       0
       0       0       0       0       0       0       0       0       0       0
       0       0       0       0       0       0       0       0       0       0
       0       0       0       0       0       0       0       0       0       0
       0       0       0       0       0       0       0       0       0       0
       0       0       0       0       0       0       0       0       0       0
       0       0       0       0       0       0       0       0       0       0
       0       0       0       0       0       0       0       0       0       0
       0       0       0       0       0       0       0       0       0       0
       0       0       0       0       0       0       0       0       0       0
       0       0       0       0       0       0       0       0       0       0
       0       0       0       0       0       0       0       0       0       0
       0       0       0       0       0       0       0       0       0       0
       0       0       0       0       0       0       0       0       0       0
       0       0       0       0       0       0       0       0       0       0
       0       0       0       0       0       0       0       0       0       0
       0       0       0       0       0       0       0       0       0       0
       0       0       0       0       0       0       0       0       0       0
       0       0       0       0       0       0       0       0       0       0
       0       0       0       0       0       0       0       0       0       0
       0       0       0       0       0       0       0       0       0       0
       0       0       0       0       0       0       0       0       0       0
       0       0       0       0       0       0       0       0       0       0
       0       0       0       0       0       0       0       0       0       0
       0       0       0       0       0       0       0       0       0       0
       0       0       0       0       0       0       0       0       0       0
       0       0       0       0       0       0       0       0       0       0
       0       0       0       0       0       0       0       0       0       0
       0       0       0       0       0       0       0       0       0       0
       0       0       0       0       0       0       0       0       0       0
       0       0       0       0       0       0       0       0       0       0
       0       0       0       0       0       0       0       0       0       0
       0       0       0       0       0       0       0       0       0       0
       0       0       0       0       0       0       0       0       0       0
       0       0       0       0       0       0       0       0       0       0
       0       0       0       0       0       0       0       0       0       0
       0       0       0       0       0       0       0       0       0       0
       0       0       0       0       0       0       0       0       0       0
       0       0       0       0       0       0       0       0       0       0
       0       0       0       0       0       0       0       0       0       0
       0       0       0       0       0       0       0       0       0       0
       0       0       0       0       0       0       0       0       0       0
       0       0       0       0       0       0       0       0       0       0
       0       0       0       0       0       0       0       0       0       0
       0       0       0       0       0       0       0       0       0       0
       0       0       0       0       0       0       0       0       0       0
       0       0       0       0       0       0       0       0       0       0
       0       0       0       0       0       0       0       0       0       0
       0       0       0       0       0       0       0       0       0       0
       0       0       0       0       0       0       0       0       0       0
       0       0       0       0       0       0       0       0       0       0
       0       0       0       0       0       0       0       0       0       0
       0       0       0       0       0       0       0       0       0       0
       0       0       0       0       0       0       0       0       0       0
       0       0       0       0       0       0       0       0       0       0
       0       0       0       0       0       0       0       0       0       0
       0       0       0       0       0       0       0       0       0       0
       0       0       0       0       0       0       0       0       0       0
       0       0       0       0       0       0       0       0       0       0
       0       0       0       0       0       0       0       0       0       0
       0       0       0       0       0       0       0       0       0       0
       0       0       0       0       0       0       0       0       0       0
       0       0       0       0       0       0       0       0       0       0
       0       0       0       0       0       0       0       0       0       0
       0       0       0       0       0       0       0       0       0       0
       0       0       0       0       0       0       0       0       0       0
       0       0       0       0       0       0       0       0       0       0
       0       0       0       0       0       0       0       0       0       0
       0       0       0       0       0       0       0       0       0       0
       0       0       0       0       0       0       0       0       0       0
       0       0       0       0       0       0       0       0       0       0
       0       0       0       0       0       0       0       0       0       0
       0       0       0       0       0       0       0       0       0       0
       0       0       0       0       0       0       0       0       0       0
       0       0       0       0       0       0       0       0       0       0
       0       0       0       0       0       0       0       0       0       0
       0       0       0       0       0       0       0       0       0       0
       0       0       0       0       0       0       0       0       0       0
       0       0       0       0       0       0       0       0       0       0
       0       0       0       0       0       0       0       0       0       0
       0       0       0       0       0       0       0       0       0       0
       0       0       0       0       0       0       0       0       0       0
       0       0       0       0       0       0       0       0       0       0
       0       0       0       0       0       0       0       0       0       0
       0       0       0       0       0       0       0       0       0       0
       0       0       0       0       0       0       0       0       0       0
       0       0       0       0       0       0       0       0       0       0
       0       0       0       0       0       0       0       0       0       0
       0       0       0       0       0       0       0       0       0       0
       0       0       0       0       0       0       0       0       0       0
       0       0       0       0       0       0       0       0       0       0
       0       0       0       0       0       0       0       0       0       0
       0       0       0       0       0       0       0       0       0       0
       0       0       0       0       0       0       0       0       0       0
       0       0       0       0       0       0       0       0       0       0
       0       0       0       0       0       0       0       0       0       0
       0       0       0       0       0       0       0       0       0       0
       0       0       0       0       0       0       0       0       0       0
       0       0       0       0       0       0       0       0       0       0
       0       0       0       0       0       0       0       0       0       0
       0       0       0       0       0       0       0       0       0       0
       0       0       0       0       0       0       0       0       0       0
       0       0       0       0       0       0       0       0       0       0
       0       0       0       0       0       0       0       0       0       0
       0       0       0       0       0       0       0       0       0       0
       0       0       0       0       0       0       0       0       0       0
       0       0       0       0       0       0       0       0       0       0
       0       0       0       0       0       0       0       0       0       0
       0       0       0       0       0       0       0       0       0       0
       0       0       0       0       0       0       0       0       0       0
       0       0       0       0       0       0       0       0       0       0
       0       0       0       0       0       0       0       0       0       0
       0       0       0       0       0       0       0       0       0       0
       0       0       0       0       0       0       0       0       0       0
       0       0       0       0       0       0       0       0       0       0
       0       0       0       0       0       0       0       0       0       0
       0       0       0       0       0       0       0       0       0       0
       0       0       0       0       0       0       0       0       0       0
       0       0       0       0       0       0       0       0       0       0
       0       0       0       0       0       0       0       0       0       0
       0       0       0       0       0       0       0       0       0       0
       0       0       0       0       0       0       0       0       0       0
       0       0       0       0       0       0       0       0       0       0
       0       0       0       0       0       0       0       0       0       0
       0       0       0       0       0       0       0       0       0       0
       0       0       0       0       0       0       0       0       0       0
       0       0       0       0       0       0       0       0       0       0
       0       0       0       0       0       0       0       0       0       0
       0       0       0       0       0       0       0       0       0       0
       0       0       0       0       0       0       0       0       0       0
       0       0       0       0       0       0       0       0       0       0
       0       0       0       0       0       0       0       0       0       0
       0       0       0       0       0       0       0       0       0       0
       0       0       0       0       0       0       0       0       0       0
       0       0       0       0       0       0       0       0       0       0
       0       0       0       0       0       0       0       0       0       0
       0       0       0       0       0       0       0       0       0       0
       0       0       0       0       0       0       0       0       0       0
       0       0       0       0       0       0       0       0       0       0
       0       0       0       0       0       0       0       0       0       0
       0       0       0       0       0       0       0       0       0       0
       0       0       0       0       0       0       0       0       0       0
       0       0       0       0       0       0       0       0       0       0
       0       0       0       0       0       0       0       0       0       0
       0       0       0       0       0       0       0       0       0       0
       0       0       0       0       0       0       0       0       0       0
       0       0       0       0       0       0       0       0       0       0
       0       0       0       0       0       0       0       0       0       0
       0       0       0       0       0       0       0       0       0       0
       0       0       0       0       0       0       0       0       0       0
       0       0       0       0       0       0       0       0       0       0
       0       0       0       0       0       0       0       0       0       0
       0       0       0       0       0       0       0       0       0       0
       0       0       0       0       0       0       0       0       0       0
       0       0       0       0       0       0       0       0       0       0
       0       0       0       0       0       0       0       0       0       0
       0       0       0       0       0       0       0       0       0       0
       0       0       0       0       0       0       0       0       0       0
       0       0       0       0       0       0       0       0       0       0
       0       0       0       0       0       0       0       0       0       0
       0       0       0       0       0       0       0       0       0       0
       0       0       0       0       0       0       0       0       0       0
       0       0       0       0       0       0       0       0       0       0
       0       0       0       0       0       0       0       0       0       0
       0       0       0       0       0       0       0       0       0       0
       0       0       0       0       0       0       0       0       0       0
       0       0       0       0       0       0       0       0       0       0
       0       0       0       0       0       0       0       0       0       0
       0       0       0       0       0       0       0       0       0       0
       0       0       0       0       0       0       0       0       0       0
       0       0       0       0       0       0       0       0       0       0
       0       0       0       0       0       0       0       0       0       0
       0       0       0       0       0       0       0       0       0       0
       0       0       0       0       0       0       0       0       0       0
       0       0       0       0       0       0       0       0       0       0
       0       0       0       0       0       0       0       0       0       0
       0       0       0       0       0       0       0       0       0       0
       0       0       0       0       0       0       0       0       0       0
       0       0       0       0       0       0       0       0       0       0
       0       0       0       0       0       0       0       0       0       0
       0       0       0       0       0       0       0       0       0       0
       0       0       0       0       0       0       0       0       0       0
       0       0       0       0       0       0       0       0       0       0
       0       0       0       0       0       0       0       0       0       0
       0       0       0       0       0       0       0       0       0       0
       0       0       0       0       0       0       0       0       0       0
       0       0       0       0       0       0       0       0       0       0
       0       0       0       0       0       0       0       0       0       0
       0       0       0       0       0       0       0       0       0       0
       0       0       0       0       0       0       0       0       0       0
       0       0       0       0       0       0       0       0       0       0
       0       0       0       0       0       0       0       0       0       0
       0       0       0       0       0       0       0       0       0       0
       0       0       0       0       0       0       0       0       0       0
       0       0       0       0       0       0       0       0       0       0
       0       0       0       0       0       0       0       0       0       0
       0       0       0       0       0       0       0       0       0       0
       0       0       0       0       0       0       0       0       0       0
       0       0       0       0       0       0       0       0       0       0
       0       0       0       0       0       0       0       0       0       0
       0       0       0       0       0       0       0       0       0       0
       0       0       0       0       0       0       0       0       0       0
       0       0       0       0       0       0       0       0       0       0
       0       0       0       0       0       0       0       0       0       0
       0       0       0       0       0       0       0       0       0       0
       0       0       0       0       0       0       0       0       0       0
       0       0       0       0       0       0       0       0       0       0
       0       0       0       0       0       0       0       0       0       0
       0       0       0       0       0       0       0       0       0       0
       0       0       0       0       0       0       0       0       0       0
       0       0       0       0       0       0       0       0       0       0
       0       0       0       0       0       0       0       0       0       0
       0       0       0       0       0       0       0       0       0       0
       0       0       0       0       0       0       0       0       0       0
       0       0       0       0       0       0       0       0       0       0
       0       0       0       0       0       0       0       0       0       0
       0       0       0       0       0       0       0       0       0       0
       0       0       0       0       0       0       0       0       0       0
       0       0       0       0       0       0       0       0       0       0
       0       0       0       0       0       0       0       0       0       0
       0       0       0       0       0       0       0       0       0       0
       0       0       0       0       0       0       0       0       0       0
       0       0       0       0       0       0       0       0       0       0
       0       0       0       0       0       0       0       0       0       0
       0       0       0       0       0       0       0       0       0       0
       0       0       0       0       0       0       0       0       0       0
       0       0       0       0       0       0       0       0       0       0
       0       0       0       0       0       0       0       0       0       0
       0       0       0       0       0       0       0       0       0       0
       0       0       0       0       0       0       0       0       0       0
       0       0       0       0       0       0       0       0       0       0
       0       0       0       0       0       0       0       0       0       0
       0       0       0       0       0       0       0       0       0       0
       0       0       0       0       0       0       0       0       0       0
       0       0       0       0       0       0       0       0       0       0
       0       0       0       0       0       0       0       0       0       0
       0       0       0       0       0       0       0       0       0       0
       0       0       0       0       0       0       0       0       0       0
       0       0       0       0       0       0       0       0       0       0
       0       0       0       0       0       0       0       0       0       0
       0       0       0       0       0       0       0       0       0       0
       0       0       0       0       0       0       0       0       0       0
       0       0       0       0       0       0       0       0       0       0
       0       0       0       0       0       0       0       0       0       0
       0       0       0       0       0       0       0       0       0       0
       0       0       0       0       0       0       0       0       0       0
       0       0       0       0       0       0       0       0       0       0
       0       0       0       0       0       0       0       0       0       0
       0       0       0       0       0       0       0       0       0       0
       0       0       0       0       0       0       0       0       0       0
       0       0       0       0       0       0       0       0       0       0
       0       0       0       0       0       0       0       0       0       0
       0       0       0       0       0       0       0       0       0       0
       0       0       0       0       0       0       0       0       0       0
       0       0       0       0       0       0       0       0       0       0
       0       0       0       0       0       0       0       0       0       0
       0       0       0       0       0       0       0       0       0       0
       0       0       0       0       0       0       0       0       0       0
       0       0       0       0       0       0       0       0       0       0
       0       0       0       0       0       0       0       0       0       0
       0       0       0       0       0       0       0       0       0       0
       0       0       0       0       0       0       0       0       0       0
       0       0       0       0       0       0       0       0       0       0
       0       0       0       0       0       0       0       0       0       0
       0       0       0       0       0       0       0       0       0       0
       0       0       0       0       0       0       0       0       0       0
       0       0       0       0       0       0       0       0       0       0
       0       0       0       0       0       0       0       0       0       0
       0       0       0       0       0       0       0       0       0       0
       0       0       0       0       0       0       0       0       0       0
       0       0       0       0       0       0       0       0       0       0
       0       0       0       0       0       0       0       0       0       0
       0       0       0       0       0       0       0       0       0       0
       0       0       0       0       0       0       0       0       0       0
       0       0       0       0       0       0       0       0       0       0
       0       0       0       0       0       0       0       0       0       0
       0       0       0       0       0       0       0       0       0       0
       0       0       0       0       0       0       0       0       0       0
       0       0       0       0       0       0       0       0       0       0
       0       0       0       0       0       0       0       0       0       0
       0       0       0       0       0       0       0       0       0       0
       0       0       0       0       0       0       0       0       0       0
       0       0       0       0       0       0       0       0       0       0
       0       0       0       0       0       0       0       0       0       0
       0       0       0       0       0       0       0       0       0       0
       0       0       0       0       0       0       0       0       0       0
       0       0       0       0       0       0       0       0       0       0
       0       0       0       0       0       0       0       0       0       0
       0       0       0       0       0       0       0       0       0       0
       0       0       0       0       0       0       0       0       0       0
       0       0       0       0       0       0       0       0       0       0
       0       0       0       0       0       0       0       0       0       0
       0       0       0       0       0       0       0       0       0       0
       0       0       0       0       0       0       0       0       0       0
       0       0       0       0       0       0       0       0       0       0
       0       0       0       0       0       0       0       0       0       0
       0       0       0       0       0       0       0       0       0       0
       0       0       0       0       0       0       0       0       0       0
       0       0       0       0       0       0       0       0       0       0
       0       0       0       0       0       0       0       0       0       0
       0       0       0       0       0       0       0       0       0       0
       0       0       0       0       0       0       0       0       0       0
       0       0       0       0       0       0       0       0       0       0
       0       0       0       0       0       0       0       0       0       0
       0       0       0       0       0       0       0       0       0       0
       0       0       0       0       0       0       0       0       0       0
       0       0       0       0       0       0       0       0       0       0
       0       0       0       0       0       0       0       0       0       0
       0       0       0       0       0       0       0       0       0       0
       0       0       0       0       0       0       0       0       0       0
       0       0       0       0       0       0       0       0       0       0
       0       0       0       0       0       0       0       0       0       0
       0       0       0       0       0       0       0       0       0       0
       0       0       0       0       0       0       0       0       0       0
       0       0       0       0       0       0       0       0       0       0
       0       0       0       0       0       0       0       0       0       0
       0       0       0       0       0       0       0       0       0       0
       0       0       0       0       0       0       0       0       0       0
       0       0       0       0       0       0       0       0       0       0
       0       0       0       0       0       0       0       0       0       0
       0       0       0       0       0       0       0       0       0       0
       0       0       0       0       0       0       0       0       0       0
       0       0       0       0       0       0       0       0       0       0
       0       0       0       0       0       0       0       0       0       0
       0       0       0       0       0       0       0       0       0       0
       0       0       0       0       0       0       0       0       0       0
       0       0       0       0       0       0       0       0       0       0
       0       0       0       0       0       0       0       0       0       0
       0       0       0       0       0       0       0       0       0       0
       0       0       0       0       0       0       0       0       0       0
       0       0       0       0       0       0       0       0       0       0
       0       0       0       0       0       0       0       0       0       0
       0       0       0       0       0       0       0       0       0       0
       0       0       0       0       0       0       0       0       0       0
       0       0       0       0       0       0       0       0       0       0
       0       0       0       0       0       0       0       0       0       0
       0       0       0       0       0       0       0       0       0       0
       0       0       0       0       0       0       0       0       0       0
       0       0       0       0       0       0       0       0       0       0
       0       0       0       0       0       0       0       0       0       0
       0       0       0       0       0       0       0       0       0       0
       0       0       0       0       0       0       0       0       0       0
       0       0       0       0       0       0       0       0       0       0
       0       0       0       0       0       0       0       0       0       0
       0       0       0       0       0       0       0       0       0       0
       0       0       0       0       0       0       0       0       0       0
       0       0       0       0       0       0       0       0       0       0
       0       0       0       0       0       0       0       0       0       0
       0       0       0       0       0       0       0       0       0       0
       0       0       0       0       0       0       0       0       0       0
       0       0       0       0       0       0       0       0       0       0
       0       0       0       0       0       0       0       0       0       0
       0       0       0       0       0       0       0       0       0       0
       0       0       0       0       0       0       0       0       0       0
       0       0       0       0       0       0       0       0       0       0
       0       0       0       0       0       0       0       0       0       0
       0       0       0       0       0       0       0       0       0       0
       0       0       0       0       0       0       0       0       0       0
       0       0       0       0       0       0       0       0       0       0
       0       0       0       0       0       0       0       0       0       0
       0       0       0       0       0       0       0       0       0       0
       0       0       0       0       0       0       0       0       0       0
       0       0       0       0       0       0       0       0       0       0
       0       0       0       0       0       0       0       0       0       0
       0       0       0       0       0       0       0       0       0       0
       0       0       0       0       0       0       0       0       0       0
       0       0       0       0       0       0       0       0       0       0
       0       0       0       0       0       0       0       0       0       0
       0       0       0       0       0       0       0       0       0       0
       0       0       0       0       0       0       0       0       0       0
       0       0       0       0       0       0       0       0       0       0
       0       0       0       0       0       0       0       0       0       0
       0       0       0       0       0       0       0       0       0       0
       0       0       0       0       0       0       0       0       0       0
       0       0       0       0       0       0       0       0       0       0
       0       0       0       0       0       0       0       0       0       0
       0       0       0       0       0       0       0       0       0       0
       0       0       0       0       0       0       0       0       0       0
       0       0       0       0       0       0       0       0       0       0
       0       0       0       0       0       0       0       0       0       0
       0       0       0       0       0       0       0       0       0       0
       0       0       0       0       0       0       0       0       0       0
       0       0       0       0       0       0       0       0       0       0
       0       0       0       0       0       0       0       0       0       0
       0       0       0       0       0       0       0       0       0       0
       0       0       0       0       0       0       0       0       0       0
       0       0       0       0       0       0       0       0       0       0
       0       0       0       0       0       0       0       0       0       0
       0       0       0       0       0       0       0       0       0       0
       0       0       0       0       0       0       0       0       0       0
       0       0       0       0       0       0       0       0       0       0
       0       0       0       0       0       0       0       0       0       0
       0       0       0       0       0       0       0       0       0       0
       0       0       0       0       0       0       0       0       0       0
       0       0       0       0       0       0       0       0       0       0
       0       0       0       0       0       0       0       0       0       0
       0       0       0       0       0       0       0       0       0       0
       0       0       0       0       0       0       0       0       0       0
       0       0       0       0       0       0       0       0       0       0
       0       0       0       0       0       0       0       0       0       0
       0       0       0       0       0       0       0       0       0       0
       0       0       0       0       0       0       0       0       0       0
       0       0       0       0       0       0       0       0       0       0
       0       0       0       0       0       0       0       0       0       0
       0       0       0       0       0       0       0       0       0       0
       0       0       0       0       0       0       0       0       0       0
       0       0       0       0       0       0       0       0       0       0
       0       0       0       0       0       0       0       0       0       0
       0       0       0       0       0       0       0       0       0       0
       0       0       0       0       0       0       0       0       0       0
       0       0       0       0       0       0       0       0       0       0
       0       0       0       0       0       0       0       0       0       0
       0       0       0       0       0       0       0       0       0       0
       0       0       0       0       0       0       0       0       0       0
       0       0       0       0       0       0       0       0       0       0
       0       0       0       0       0       0       0       0       0       0
       0       0       0       0       0       0       0       0       0       0
       0       0       0       0       0       0       0       0       0       0
       0       0       0       0       0       0       0       0       0       0
       0       0       0       0       0       0       0       0       0       0
       0       0       0       0       0       0       0       0       0       0
       0       0       0       0       0       0       0       0       0       0
       0       0       0       0       0       0       0       0       0       0
       0       0       0       0       0       0       0       0       0       0
       0       0       0       0       0       0       0       0       0       0
       0       0       0       0       0       0       0       0       0       0
       0       0       0       0       0       0       0       0       0       0
       0       0       0       0       0       0       0       0       0       0
       0       0       0       0       0       0       0       0       0       0
       0       0       0       0       0       0       0       0       0       0
       0       0       0       0       0       0       0       0       0       0
       0       0       0       0       0       0       0       0       0       0
       0       0       0       0       0       0       0       0       0       0
       0       0       0       0       0       0       0       0       0       0
       0       0       0       0       0       0       0       0       0       0
       0       0       0       0       0       0       0       0       0       0
       0       0       0       0       0       0       0       0       0       0
       0       0       0       0       0       0       0       0       0       0
       0       0       0       0       0       0       0       0       0       0
       0       0       0       0       0       0       0       0       0       0
       0       0       0       0       0       0       0       0       0       0
       0       0       0       0       0       0       0       0       0       0
       0       0       0       0       0       0       0       0       0       0
       0       0       0       0       0       0       0       0       0       0
       0       0       0       0       0       0       0       0       0       0
       0       0       0       0       0       0       0       0       0       0
       0       0       0       0       0       0       0       0       0       0
       0       0       0       0       0       0       0       0       0       0
       0       0       0       0       0       0       0       0       0       0
       0       0       0       0       0       0       0       0       0       0
       0       0       0       0       0       0       0       0       0       0
       0       0       0       0       0       0       0       0       0       0
       0       0       0       0       0       0       0       0       0       0
       0       0       0       0       0       0       0       0       0       0
       0       0       0       0       0       0       0       0       0       0
       0       0       0       0       0       0       0       0       0       0
       0       0       0       0       0       0       0       0       0       0
       0       0       0       0       0       0       0       0       0       0
       0       0       0       0       0       0       0       0       0       0
       0       0       0       0       0       0       0       0       0       0
       0       0       0       0       0       0       0       0       0       0
       0       0       0       0       0       0       0       0       0       0
       0       0       0       0       0       0       0       0       0       0
       0       0       0       0       0       0       0       0       0       0
       0       0       0       0       0       0       0       0       0       0
       0       0       0       0       0       0       0       0       0       0
       0       0       0       0       0       0       0       0       0       0
       0       0       0       0       0       0       0       0       0       0
       0       0       0       0       0       0       0       0       0       0
       0       0       0       0       0       0       0       0       0       0
       0       0       0       0       0       0       0       0       0       0
       0       0       0       0       0       0       0       0       0       0
       0       0       0       0       0       0       0       0       0       0
       0       0       0       0       0       0       0       0       0       0
       0       0       0       0       0       0       0       0       0       0
       0       0       0       0       0       0       0       0       0       0
       0       0       0       0       0       0       0       0       0       0
       0       0       0       0       0       0       0       0       0       0
       0       0       0       0       0       0       0       0       0       0
       0       0       0       0       0       0       0       0       0       0
       0       0       0       0       0       0       0       0       0       0
       0       0       0       0       0       0       0       0       0       0
       0       0       0       0       0       0       0       0       0       0
       0       0       0       0       0       0       0       0       0       0
       0       0       0       0       0       0       0       0       0       0
       0       0       0       0       0       0       0       0       0       0
       0       0       0       0       0       0       0       0       0       0
       0       0       0       0       0       0       0       0       0       0
       0       0       0       0       0       0       0       0       0       0
       0       0       0       0       0       0       0       0       0       0
       0       0       0       0       0       0       0       0       0       0
       0       0       0       0       0       0       0       0       0       0
       0       0       0       0       0       0       0       0       0       0
       0       0       0       0       0       0       0       0       0       0
       0       0       0       0       0       0       0       0       0       0
       0       0       0       0       0       0       0       0       0       0
       0       0       0       0       0       0       0       0       0       0
       0       0       0       0       0       0       0       0       0       0
       0       0       0       0       0       0       0       0       0       0
       0       0       0       0       0       0       0       0       0       0
       0       0       0       0       0       0       0       0       0       0
       0       0       0       0       0       0       0       0       0       0
       0       0       0       0       0       0       0       0       0       0
       0       0       0       0       0       0       0       0       0       0
       0       0       0       0       0       0       0       0       0       0
       0       0       0       0       0       0       0       0       0       0
       0       0       0       0       0       0       0       0       0       0
       0       0       0       0       0       0       0       0       0       0
       0       0       0       0       0       0       0       0       0       0
       0       0       0       0       0       0       0       0       0       0
       0       0       0       0       0       0       0       0       0       0
       0       0       0       0       0       0       0       0       0       0
       0       0       0       0       0       0       0       0       0       0
       0       0       0       0       0       0       0       0       0       0
       0       0       0       0       0       0       0       0       0       0
       0       0       0       0       0       0       0       0       0       0
       0       0       0       0       0       0       0       0       0       0
       0       0       0       0       0       0       0       0       0       0
       0       0       0       0       0       0       0       0       0       0
       0       0       0       0       0       0       0       0       0       0
       0       0       0       0       0       0       0       0       0       0
       0       0       0       0       0       0       0       0       0       0
       0       0       0       0       0       0       0       0       0       0
       0       0       0       0       0       0       0       0       0       0
       0       0       0       0       0       0       0       0       0       0
       0       0       0       0       0       0       0       0       0       0
       0       0       0       0       0       0       0       0       0       0
       0       0       0       0       0       0       0       0       0       0
       0       0       0       0       0       0       0       0       0       0
       0       0       0       0       0       0       0       0       0       0
       0       0       0       0       0       0       0       0       0       0
       0       0       0       0       0       0       0       0       0       0
       0       0       0       0       0       0       0       0       0       0
       0       0       0       0       0       0       0       0       0       0
       0       0       0       0       0       0       0       0       0       0
       0       0       0       0       0       0       0       0       0       0
       0       0       0       0       0       0       0       0       0       0
       0       0       0       0       0       0       0       0       0       0
       0       0       0       0       0       0       0       0       0       0
       0       0       0       0       0       0       0       0       0       0
       0       0       0       0       0       0       0       0       0       0
       0       0       0       0       0       0       0       0       0       0
       0       0       0       0       0       0       0       0       0       0
       0       0       0       0       0       0       0       0       0       0
       0       0       0       0       0       0       0       0       0       0
       0       0       0       0       0       0       0       0       0       0
       0       0       0       0       0       0       0       0       0       0
       0       0       0       0       0       0       0       0       0       0
       0       0       0       0       0       0       0       0       0       0
       0       0       0       0       0       0       0       0       0       0
       0       0       0       0       0       0       0       0       0       0
       0       0       0       0       0       0       0       0       0       0
       0       0       0       0       0       0       0       0       0       0
       0       0       0       0       0       0       0       0       0       0
       0       0       0       0       0       0       0       0       0       0
       0       0       0       0       0       0       0       0       0       0
       0       0       0       0       0       0       0       0       0       0
       0       0       0       0       0       0       0       0       0       0
       0       0       0       0       0       0       0       0       0       0
       0       0       0       0       0       0       0       0       0       0
       0       0       0       0       0       0       0       0       0       0
       0       0       0       0       0       0       0       0       0       0
       0       0       0       0       0       0       0       0       0       0
       0       0       0       0       0       0       0       0       0       0
       0       0       0       0       0       0       0       0       0       0
       0       0       0       0       0       0       0       0       0       0
       0       0       0       0       0       0       0       0       0       0
       0       0       0       0       0       0       0       0       0       0
       0       0       0       0       0       0       0       0       0       0
       0       0       0       0       0       0       0       0       0       0
       0       0       0       0       0       0       0       0       0       0
       0       0       0       0       0       0       0       0       0       0
       0       0       0       0       0       0       0       0       0       0
       0       0       0       0       0       0       0       0       0       0
       0       0       0       0       0       0       0       0       0       0
       0       0       0       0       0       0       0       0       0       0
       0       0       0       0       0       0       0       0       0       0
       0       0       0       0       0       0       0       0       0       0
       0       0       0       0       0       0       0       0       0       0
       0       0       0       0       0       0       0       0       0       0
       0       0       0       0       0       0       0       0       0       0
       0       0       0       0       0       0       0       0       0       0
       0       0       0       0       0       0       0       0       0       0
       0       0       0       0       0       0       0       0       0       0
       0       0       0       0       0       0       0       0       0       0
       0       0       0       0       0       0       0       0       0       0
       0       0       0       0       0       0       0       0       0       0
       0       0       0       0       0       0       0       0       0       0
       0       0       0       0       0       0       0       0       0       0
       0       0       0       0       0       0       0       0       0       0
       0       0       0       0       0       0       0       0       0       0
       0       0       0       0       0       0       0       0       0       0
       0       0       0       0       0       0       0       0       0       0
       0       0       0       0       0       0       0       0       0       0
       0       0       0       0       0       0       0       0       0       0
       0       0       0       0       0       0       0       0       0       0
       0       0       0       0       0       0       0       0       0       0
       0       0       0       0       0       0       0       0       0       0
       0       0       0       0       0       0       0       0       0       0
       0       0       0       0       0       0       0       0       0       0
       0       0       0       0       0       0       0       0       0       0
       0       0       0       0       0       0       0       0       0       0
       0       0       0       0       0       0       0       0       0       0
       0       0       0       0       0       0       0       0       0       0
       0       0       0       0       0       0       0       0       0       0
       0       0       0       0       0       0       0       0       0       0
       0       0       0       0       0       0       0       0       0       0
       0       0       0       0       0       0       0       0       0       0
       0       0       0       0       0       0       0       0       0       0
       0       0       0       0       0       0       0       0       0       0
       0       0       0       0       0       0       0       0       0       0
       0       0       0       0       0       0       0       0       0       0
       0       0       0       0       0       0       0       0       0       0
       0       0       0       0       0       0       0       0       0       0
       0       0       0       0       0       0       0       0       0       0
       0       0       0       0       0       0       0       0       0       0
       0       0       0       0       0       0       0       0       0       0
       0       0       0       0       0       0       0       0       0       0
       0       0       0       0       0       0       0       0       0       0
       0       0       0       0       0       0       0       0       0       0
       0       0       0       0       0       0       0       0       0       0
       0       0       0       0       0       0       0       0       0       0
       0       0       0       0       0       0       0       0       0       0
       0       0       0       0       0       0       0       0       0       0
       0       0       0       0       0       0       0       0       0       0
       0       0       0       0       0       0       0       0       0       0
       0       0       0       0       0       0       0       0       0       0
       0       0       0       0       0       0       0       0       0       0
       0       0       0       0       0       0       0       0       0       0
       0       0       0       0       0       0       0       0       0       0
       0       0       0       0       0       0       0       0       0       0
       0       0       0       0       0       0       0       0       0       0
       0       0       0       0       0       0       0       0       0       0
       0       0       0       0       0       0       0       0       0       0
       0       0       0       0       0       0       0       0       0       0
       0       0       0       0       0       0       0       0       0       0
       0       0       0       0       0       0       0       0       0       0
       0       0       0       0       0       0       0       0       0       0
       0       0       0       0       0       0       0       0       0       0
       0       0       0       0       0       0       0       0       0       0
       0       0       0       0       0       0       0       0       0       0
       0       0       0       0       0       0       0       0       0       0
       0       0       0       0       0       0       0       0       0       0
       0       0       0       0       0       0       0       0       0       0
       0       0       0       0       0       0       0       0       0       0
       0       0       0       0       0       0       0       0       0       0
       0       0       0       0       0       0       0       0       0       0
       0       0       0       0       0       0       0       0       0       0
       0       0       0       0       0       0       0       0       0       0
       0       0       0       0       0       0       0       0       0       0
       0       0       0       0       0       0       0       0       0       0
       0       0       0       0       0       0       0       0       0       0
       0       0       0       0       0       0       0       0       0       0
       0       0       0       0       0       0       0       0       0       0
       0       0       0       0       0       0       0       0       0       0
       0       0       0       0       0       0       0       0       0       0
       0       0       0       0       0       0       0       0       0       0
       0       0       0       0       0       0       0       0       0       0
       0       0       0       0       0       0       0       0       0       0
       0       0       0       0       0       0       0       0       0       0
       0       0       0       0       0       0       0       0       0       0
       0       0       0       0       0       0       0       0       0       0
       0       0       0       0       0       0       0       0       0       0
       0       0       0       0       0       0       0       0       0       0
       0       0       0       0       0       0       0       0       0       0
       0       0       0       0       0       0       0       0       0       0
       0       0       0       0       0       0       0       0       0       0
       0       0       0       0       0       0       0       0       0       0
       0       0       0       0       0       0       0       0       0       0
       0       0       0       0       0       0       0       0       0       0
       0       0       0       0       0       0       0       0       0       0
       0       0       0       0       0       0       0       0       0       0
       0       0       0       0       0       0       0       0       0       0
       0       0       0       0       0       0       0       0       0       0
       0       0       0       0       0       0       0       0       0       0
       0       0       0       0       0       0       0       0       0       0
       0       0       0       0       0       0       0       0       0       0
       0       0       0       0       0       0       0       0       0       0
       0       0       0       0       0       0       0       0       0       0
       0       0       0       0       0       0       0       0       0       0
       0       0       0       0       0       0       0       0       0       0
       0       0       0       0       0       0       0       0       0       0
       0       0       0       0       0       0       0       0       0       0
       0       0       0       0       0       0       0       0       0       0
       0       0       0       0       0       0       0       0       0       0
       0       0       0       0       0       0       0       0       0       0
       0       0       0       0       0       0       0       0       0       0
       0       0       0       0       0       0       0       0       0       0
       0       0       0       0       0       0       0       0       0       0
       0       0       0       0       0       0       0       0       0       0
       0       0       0       0       0       0       0       0       0       0
       0       0       0       0       0       0       0       0       0       0
       0       0       0       0       0       0       0       0       0       0
       0       0       0       0       0       0       0       0       0       0
       0       0       0       0       0       0       0       0       0       0
       0       0       0       0       0       0       0       0       0       0
       0       0       0       0       0       0       0       0       0       0
       0       0       0       0       0       0       0       0       0       0
       0       0       0       0       0       0       0       0       0       0
       0       0       0       0       0       0       0       0       0       0
       0       0       0       0       0       0       0       0       0       0
       0       0       0       0       0       0       0       0       0       0
       0       0       0       0       0       0       0       0       0       0
       0       0       0       0       0       0       0       0       0       0
       0       0       0       0       0       0       0       0       0       0
       0       0       0       0       0       0       0       0       0       0
       0       0       0       0       0       0       0       0       0       0
       0       0       0       0       0       0       0       0       0       0
       0       0       0       0       0       0       0       0       0       0
       0       0       0       0       0       0       0       0       0       0
       0       0       0       0       0       0       0       0       0       0
       0       0       0       0       0       0       0       0       0       0
       0       0       0       0       0       0       0       0       0       0
       0       0       0       0       0       0       0       0       0       0
       0       0       0       0       0       0       0       0       0       0
       0       0       0       0       0       0       0       0       0       0
       0       0       0       0       0       0       0       0       0       0
       0       0       0       0       0       0       0       0       0       0
       0       0       0       0       0       0       0       0       0       0
       0       0       0       0       0       0       0       0       0       0
       0       0       0       0       0       0       0       0       0       0
       0       0       0       0       0       0       0       0       0       0
       0       0       0       0       0       0       0       0       0       0
       0       0       0       0       0       0       0       0       0       0
       0       0       0       0       0       0       0       0       0       0
       0       0       0       0       0       0       0       0       0       0
       0       0       0       0       0       0       0       0       0       0
       0       0       0       0       0       0       0       0       0       0
       0       0       0       0       0       0       0       0       0       0
       0       0       0       0       0       0       0       0       0       0
       0       0       0       0       0       0       0       0       0       0
       0       0       0       0       0       0       0       0       0       0
       0       0       0       0       0       0       0       0       0       0
       0       0       0       0       0       0       0       0       0       0
       0       0       0       0       0       0       0       0       0       0
       0       0       0       0       0       0       0       0       0       0
       0       0       0       0       0       0       0       0       0       0
       0       0       0       0       0       0       0       0       0       0
       0       0       0       0       0       0       0       0       0       0
       0       0       0       0       0       0       0       0       0       0
       0       0       0       0       0       0       0       0       0       0
       0       0       0       0       0       0       0       0       0       0
       0       0       0       0       0       0       0       0       0       0
       0       0       0       0       0       0       0       0       0       0
       0       0       0       0       0       0       0       0       0       0
       0       0       0       0       0       0       0       0       0       0
       0       0       0       0       0       0       0       0       0       0
       0       0       0       0       0       0       0       0       0       0
       0       0       0       0       0       0       0       0       0       0
       0       0       0       0       0       0       0       0       0       0
       0       0       0       0       0       0       0       0       0       0
       0       0       0       0       0       0       0       0       0       0
       0       0       0       0       0       0       0       0       0       0
       0       0       0       0       0       0       0       0       0       0
       0       0       0       0       0       0       0       0       0       0
       0       0       0       0       0       0       0       0       0       0
       0       0       0       0       0       0       0       0       0       0
       0       0       0       0       0       0       0       0       0       0
       0       0       0       0       0       0       0       0       0       0
       0       0       0       0       0       0       0       0       0       0
       0       0       0       0       0       0       0       0       0       0
       0       0       0       0       0       0       0       0       0       0
       0       0       0       0       0       0       0       0       0       0
       0       0       0       0       0       0       0       0       0       0
       0       0       0       0       0       0       0       0       0       0
       0       0       0       0       0       0       0       0       0       0
       0       0       0       0       0       0       0       0       0       0
       0       0       0       0       0       0       0       0       0       0
       0       0       0       0       0       0       0       0       0       0
       0       0       0       0       0       0       0       0       0       0
       0       0       0       0       0       0       0       0       0       0
       0       0       0       0       0       0       0       0       0       0
       0       0       0       0       0       0       0       0       0       0
       0       0       0       0       0       0       0       0       0       0
       0       0       0       0       0       0       0       0       0       0
       0       0       0       0       0       0       0       0       0       0
       0       0       0       0       0       0       0       0       0       0
       0       0       0       0       0       0       0       0       0       0
       0       0       0       0       0       0       0       0       0       0
       0       0       0       0       0       0       0       0       0       0
       0       0       0       0       0       0       0       0       0       0
       0       0       0       0       0       0       0       0       0       0
       0       0       0       0       0       0       0       0       0       0
       0       0       0       0       0       0       0       0       0       0
       0       0       0       0       0       0       0       0       0       0
       0       0       0       0       0       0       0       0       0       0
       0       0       0       0       0       0       0       0       0       0
       0       0       0       0       0       0       0       0       0       0
       0       0       0       0       0       0       0       0       0       0
       0       0       0       0       0       0       0       0       0       0
       0       0       0       0       0       0       0       0       0       0
       0       0       0       0       0       0       0       0       0       0
       0       0       0       0       0       0       0       0       0       0
       0       0       0       0       0       0       0       0       0       0
       0       0       0       0       0       0       0       0       0       0
       0       0       0       0       0       0       0       0       0       0
       0       0       0       0       0       0       0       0       0       0
       0       0       0       0       0       0       0       0       0       0
       0       0       0       0       0       0       0       0       0       0
       0       0       0       0       0       0       0       0       0       0
       0       0       0       0       0       0       0       0       0       0
       0       0       0       0       0       0       0       0       0       0
       0       0       0       0       0       0       0       0       0       0
       0       0       0       0       0       0       0       0       0       0
       0       0       0       0       0       0       0       0       0       0
       0       0       0       0       0       0       0       0       0       0
       0       0       0       0       0       0       0       0       0       0
       0       0       0       0       0       0       0       0       0       0
       0       0       0       0       0       0       0       0       0       0
       0       0       0       0       0       0       0       0       0       0
       0       0       0       0       0       0       0       0       0       0
       0       0       0       0       0       0       0       0       0       0
       0       0       0       0       0       0       0       0       0       0
       0       0       0       0       0       0       0       0       0       0
       0       0       0       0       0       0       0       0       0       0
       0       0       0       0       0       0       0       0       0       0
       0       0       0       0       0       0       0       0       0       0
       0       0       0       0       0       0       0       0       0       0
       0       0       0       0       0       0       0       0       0       0
       0       0       0       0       0       0       0       0       0       0
       0       0       0       0       0       0       0       0       0       0
       0       0       0       0       0       0       0       0       0       0
       0       0       0       0       0       0       0       0       0       0
       0       0       0       0       0       0       0       0       0       0
       0       0       0       0       0       0       0       0       0       0
       0       0       0       0       0       0       0       0       0       0
       0       0       0       0       0       0       0       0       0       0
       0       0       0       0       0       0       0       0       0       0
       0       0       0       0       0       0       0       0       0       0
       0       0       0       0       0       0       0       0       0       0
       0       0       0       0       0       0       0       0       0       0
       0       0       0       0       0       0       0       0       0       0
       0       0       0       0       0       0       0       0       0       0
       0       0       0       0       0       0       0       0       0       0
       0       0       0       0       0       0       0       0       0       0
       0       0       0       0       0       0       0       0       0       0
       0       0       0       0       0       0       0       0       0       0
       0       0       0       0       0       0       0       0       0       0
       0       0       0       0       0       0       0       0       0       0
       0       0       0       0       0       0       0       0       0       0
       0       0       0       0       0       0       0       0       0       0
       0       0       0       0       0       0       0       0       0       0
       0       0       0       0       0       0       0       0       0       0
       0       0       0       0       0       0       0       0       0       0
       0       0       0       0       0       0       0       0       0       0
       0       0       0       0       0       0       0       0       0       0
       0       0       0       0       0       0       0       0       0       0
       0       0       0       0       0       0       0       0       0       0
       0       0       0       0       0       0       0       0       0       0
       0       0       0       0       0       0       0       0       0       0
       0       0       0       0       0       0       0       0       0       0
       0       0       0       0       0       0       0       0       0       0
       0       0       0       0       0       0       0       0       0       0
       0       0       0       0       0       0       0       0       0       0
       0       0       0       0       0       0       0       0       0       0
       0       0       0       0       0       0       0       0       0       0
       0       0       0       0       0       0       0       0       0       0
       0       0       0       0       0       0       0       0       0       0
       0       0       0       0       0       0       0       0       0       0
       0       0       0       0       0       0       0       0       0       0
       0       0       0       0       0       0       0       0       0       0
       0       0       0       0       0       0       0       0       0       0
       0       0       0       0       0       0       0       0       0       0
       0       0       0       0       0       0       0       0       0       0
       0       0       0       0       0       0       0       0       0       0
       0       0       0       0       0       0       0       0       0       0
       0       0       0       0       0       0       0       0       0       0
       0       0       0       0       0       0       0       0       0       0
       0       0       0       0       0       0       0       0       0       0
       0       0       0       0       0       0       0       0       0       0
       0       0       0       0       0       0       0       0       0       0
       0       0       0       0       0       0       0       0       0       0
       0       0       0       0       0       0       0       0       0       0
       0       0       0       0       0       0       0       0       0       0
       0       0       0       0       0       0       0       0       0       0
       0       0       0       0       0       0       0       0       0       0
       0       0       0       0       0       0       0       0       0       0
       0       0       0       0       0       0       0       0       0       0
       0       0       0       0       0       0       0       0       0       0
       0       0       0       0       0       0       0       0       0       0
       0       0       0       0       0       0       0       0       0       0
       0       0       0       0       0       0       0       0       0       0
       0       0       0       0       0       0       0       0       0       0
       0       0       0       0       0       0       0       0       0       0
       0       0       0       0       0       0       0       0       0       0
       0       0       0       0       0       0       0       0       0       0
       0       0       0       0       0       0       0       0       0       0
       0       0       0       0       0       0       0       0       0       0
       0       0       0       0       0       0       0       0       0       0
       0       0       0       0       0       0       0       0       0       0
       0       0       0       0       0       0       0       0       0       0
       0       0       0       0       0       0       0       0       0       0
       0       0       0       0       0       0       0       0       0       0
       0       0       0       0       0       0       0       0       0       0
       0       0       0       0       0       0       0       0       0       0
       0       0       0       0       0       0       0       0       0       0
       0       0       0       0       0       0       0       0       0       0
       0       0       0       0       0       0       0       0       0       0
       0       0       0       0       0       0       0       0       0       0
       0       0       0       0       0       0       0       0       0       0
       0       0       0       0       0       0       0       0       0       0
       0       0       0       0       0       0       0       0       0       0
       0       0       0       0       0       0       0       0       0       0
       0       0       0       0       0       0       0       0       0       0
       0       0       0       0       0       0       0       0       0       0
       0       0       0       0       0       0       0       0       0       0
       0       0       0       0       0       0       0       0       0       0
       0       0       0       0       0       0       0       0       0       0
       0       0       0       0       0       0       0       0       0       0
       0       0       0       0       0       0       0       0       0       0
       0       0       0       0       0       0       0       0       0       0
       0       0       0       0       0       0       0       0       0       0
       0       0       0       0       0       0       0       0       0       0
       0       0       0       0       0       0       0       0       0       0
       0       0       0       0       0       0       0       0       0       0
       0       0       0       0       0       0       0       0       0       0
       0       0       0       0       0       0       0       0       0       0
       0       0       0       0       0       0       0       0       0       0
       0       0       0       0       0       0       0       0       0       0
       0       0       0       0       0       0       0       0       0       0
       0       0       0       0       0       0       0       0       0       0
       0       0       0       0       0       0       0       0       0       0
       0       0       0       0       0       0       0       0       0       0
       0       0       0       0       0       0       0       0       0       0
       0       0       0       0       0       0       0       0       0       0
       0       0       0       0       0       0       0       0       0       0
       0       0       0       0       0       0       0       0       0       0
       0       0       0       0       0       0       0       0       0       0
       0       0       0       0       0       0       0       0       0       0
       0       0       0       0       0       0       0       0       0       0
       0       0       0       0       0       0       0       0       0       0
       0       0       0       0       0       0       0       0       0       0
       0       0       0       0       0       0       0       0       0       0
       0       0       0       0       0       0       0       0       0       0
       0       0       0       0       0       0       0       0       0       0
       0       0       0       0       0       0       0       0       0       0
       0       0       0       0       0       0       0       0       0       0
       0       0       0       0       0       0       0       0       0       0
       0       0       0       0       0       0       0       0       0       0
       0       0       0       0       0       0       0       0       0       0
       0       0       0       0       0       0       0       0       0       0
       0       0       0       0       0       0       0       0       0       0
       0       0       0       0       0       0       0       0       0       0
       0       0       0       0       0       0       0       0       0       0
       0       0       0       0       0       0       0       0       0       0
       0       0       0       0       0       0       0       0       0       0
       0       0       0       0       0       0       0       0       0       0
       0       0       0       0       0       0       0       0       0       0
       0       0       0       0       0       0       0       0       0       0
       0       0       0       0       0       0       0       0       0       0
       0       0       0       0       0       0       0       0       0       0
       0       0       0       0       0       0       0       0       0       0
       0       0       0       0       0       0       0       0       0       0
       0       0       0       0       0       0       0       0       0       0
       0       0       0       0       0       0       0       0       0       0
       0       0       0       0       0       0       0       0       0       0
       0       0       0       0       0       0       0       0       0       0
       0       0       0       0       0       0       0       0       0       0
       0       0       0       0       0       0       0       0       0       0
       0       0       0       0       0       0       0       0       0       0
       0       0       0       0       0       0       0       0       0       0
       0       0       0       0       0       0       0       0       0       0
       0       0       0       0       0       0       0       0       0       0
       0       0       0       0       0       0       0       0       0       0
       0       0       0       0       0       0       0       0       0       0
       0       0       0       0       0       0       0       0       0       0
       0       0       0       0       0       0       0       0       0       0
       0       0       0       0       0       0       0       0       0       0
       0       0       0       0       0       0       0       0       0       0
       0       0       0       0       0       0       0       0       0       0
       0       0       0       0       0       0       0       0       0       0
       0       0       0       0       0       0       0       0       0       0
       0       0       0       0       0       0       0       0       0       0
       0       0       0       0       0       0       0       0       0       0
       0       0       0       0       0       0       0       0       0       0
       0       0       0       0       0       0       0       0       0       0
       0       0       0       0       0       0       0       0       0       0
       0       0       0       0       0       0       0       0       0       0
       0       0       0       0       0       0       0       0       0       0
       0       0       0       0       0       0       0       0       0       0
       0       0       0       0       0       0       0       0       0       0
       0       0       0       0       0       0       0       0       0       0
       0       0       0       0       0       0       0       0       0       0
       0       0       0       0       0       0       0       0       0       0
       0       0       0       0       0       0       0       0       0       0
       0       0       0       0       0       0       0       0       0       0
       0       0       0       0       0       0       0       0       0       0
       0       0       0       0       0       0       0       0       0       0
       0       0       0       0       0       0       0       0       0       0
       0       0       0       0       0       0       0       0       0       0
       0       0       0       0       0       0       0       0       0       0
       0       0       0       0       0       0       0       0       0       0
       0       0       0       0       0       0       0       0       0       0
       0       0       0       0       0       0       0       0       0       0
       0       0       0       0       0       0       0       0       0       0
       0       0       0       0       0       0       0       0       0       0
       0       0       0       0       0       0       0       0       0       0
       0       0       0       0       0       0       0       0       0       0
       0       0       0       0       0       0       0       0       0       0
       0       0       0       0       0       0       0       0       0       0
       0       0       0       0       0       0       0       0       0       0
       0       0       0       0       0       0       0       0       0       0
       0       0       0       0       0       0       0       0       0       0
       0       0       0       0       0       0       0       0       0       0
       0       0       0       0       0       0       0       0       0       0
       0       0       0       0       0       0       0       0       0       0
       0       0       0       0       0       0       0       0       0       0
       0       0       0       0       0       0       0       0       0       0
       0       0       0       0       0       0       0       0       0       0
       0       0       0       0       0       0       0       0       0       0
       0       0       0       0       0       0       0       0       0       0
       0       0       0       0       0       0       0       0       0       0
       0       0       0       0       0       0       0       0       0       0
       0       0       0       0       0       0       0       0       0       0
       0       0       0       0       0       0       0       0       0       0
       0       0       0       0       0       0       0       0       0       0
       0       0       0       0       0       0       0       0       0       0
       0       0       0       0       0       0       0       0       0       0
       0       0       0       0       0       0       0       0       0       0
       0       0       0       0       0       0       0       0       0       0
       0       0       0       0       0       0       0       0       0       0
       0       0       0       0       0       0       0       0       0       0
       0       0       0       0       0       0       0       0       0       0
       0       0       0       0       0       0       0       0       0       0
       0       0       0       0       0       0       0       0       0       0
       0       0       0       0       0       0       0       0       0       0
       0       0       0       0       0       0       0       0       0       0
       0       0       0       0       0       0       0       0       0       0
       0       0       0       0       0       0       0       0       0       0
       0       0       0       0       0       0       0       0       0       0
       0       0       0       0       0       0       0       0       0       0
       0       0       0       0       0       0       0       0       0       0
       0       0       0       0       0       0       0       0       0       0
       0       0       0       0       0       0       0       0       0       0
       0       0       0       0       0       0       0       0       0       0
       0       0       0       0       0       0       0       0       0       0
       0       0       0       0       0       0       0       0       0       0
       0       0       0       0       0       0       0       0       0       0
       0       0       0       0       0       0       0       0       0       0
       0       0       0       0       0       0       0       0       0       0
       0       0       0       0       0       0       0       0       0       0
       0       0       0       0       0       0       0       0       0       0
       0       0       0       0       0       0       0       0       0       0
       0       0       0       0       0       0       0       0       0       0
       0       0       0       0       0       0       0       0       0       0
       0       0       0       0       0       0       0       0       0       0
       0       0       0       0       0       0       0       0       0       0
       0       0       0       0       0       0       0       0       0       0
       0       0       0       0       0       0       0       0       0       0
       0       0       0       0       0       0       0       0       0       0
       0       0       0       0       0       0       0       0       0       0
       0       0       0       0       0       0       0       0       0       0
       0       0       0       0       0       0       0       0       0       0
       0       0       0       0       0       0       0       0       0       0
       0       0       0       0       0       0       0       0       0       0
       0       0       0       0       0       0       0       0       0       0
       0       0       0       0       0       0       0       0       0       0
       0       0       0       0       0       0       0       0       0       0
       0       0       0       0       0       0       0       0       0       0
       0       0       0       0       0       0       0       0       0       0
       0       0       0       0       0       0       0       0       0       0
       0       0       0       0       0       0       0       0       0       0
       0       0       0       0       0       0       0       0       0       0
       0       0       0       0       0       0       0       0       0       0
       0       0       0       0       0       0       0       0       0       0
       0       0       0       0       0       0       0       0       0       0
       0       0       0       0       0       0       0       0       0       0
       0       0       0       0       0       0       0       0       0       0
       0       0       0       0       0       0       0       0       0       0
       0       0       0       0       0       0       0       0       0       0
       0       0       0       0       0       0       0       0       0       0
       0       0       0       0       0       0       0       0       0       0
       0       0       0       0       0       0       0       0       0       0
       0       0       0       0       0       0       0       0       0       0
       0       0       0       0       0       0       0       0       0       0
       0       0       0       0       0       0       0       0       0       0
       0       0       0       0       0       0       0       0       0       0
       0       0       0       0       0       0       0       0       0       0
       0       0       0       0       0       0       0       0       0       0
       0       0       0       0       0       0       0       0       0       0
       0       0       0       0       0       0       0       0       0       0
       0       0       0       0       0       0       0       0       0       0
       0       0       0       0       0       0       0       0       0       0
       0       0       0       0       0       0       0       0       0       0
       0       0       0       0       0       0       0       0       0       0
       0       0       0       0       0       0       0       0       0       0
       0       0       0       0       0       0       0       0       0       0
       0       0       0       0       0       0       0       0       0       0
       0       0       0       0       0       0       0       0       0       0
       0       0       0       0       0       0       0       0       0       0
       0       0       0       0       0       0       0       0       0       0
       0       0       0       0       0       0       0       0       0       0
       0       0       0       0       0       0       0       0       0       0
       0       0       0       0       0       0       0       0       0       0
       0       0       0       0       0       0       0       0       0       0
       0       0       0       0       0       0       0       0       0       0
       0       0       0       0       0       0       0       0       0       0
       0       0       0       0       0       0       0       0       0       0
       0       0       0       0       0       0       0       0       0       0
       0       0       0       0       0       0       0       0       0       0
       0       0       0       0       0       0       0       0       0       0
       0       0       0       0       0       0       0       0       0       0
       0       0       0       0       0       0       0       0       0       0
       0       0       0       0       0       0       0       0       0       0
       0       0       0       0       0       0       0       0       0       0
       0       0       0       0       0       0       0       0       0       0
       0       0       0       0       0       0       0       0       0       0
       0       0       0       0       0       0       0       0       0       0
       0       0       0       0       0       0       0       0       0       0
       0       0       0       0       0       0       0       0       0       0
       0       0       0       0       0       0       0       0       0       0
       0       0       0       0       0       0       0       0       0       0
       0       0       0       0       0       0       0       0       0       0
       0       0       0       0       0       0       0       0       0       0
       0       0       0       0       0       0       0       0       0       0
       0       0       0       0       0       0       0       0       0       0
       0       0       0       0       0       0       0       0       0       0
       0       0       0       0       0       0       0       0       0       0
       0       0       0       0       0       0       0       0       0       0
       0       0       0       0       0       0       0       0       0       0
       0       0       0       0       0       0       0       0       0       0
       0       0       0       0       0       0       0       0       0       0
       0       0       0       0       0       0       0       0       0       0
       0       0       0       0       0       0       0       0       0       0
       0       0       0       0       0       0       0       0       0       0
       0       0       0       0       0       0       0       0       0       0
       0       0       0       0       0       0       0       0       0       0
       0       0       0       0       0       0       0       0       0       0
       0       0       0       0       0       0       0       0       0       0
       0       0       0       0       0       0       0       0       0       0
       0       0       0       0       0       0       0       0       0       0
       0       0       0       0       0       0       0       0       0       0
       0       0       0       0       0       0       0       0       0       0
       0       0       0       0       0       0       0       0       0       0
       0       0       0       0       0       0       0       0       0       0
       0       0       0       0       0       0       0       0       0       0
       0       0       0       0       0       0       0       0       0       0
       0       0       0       0       0       0       0       0       0       0
       0       0       0       0       0       0       0       0       0       0
       0       0       0       0       0       0       0       0       0       0
       0       0       0       0       0       0       0       0       0       0
       0       0       0       0       0       0       0       0       0       0
       0       0       0       0       0       0       0       0       0       0
       0       0       0       0       0       0       0       0       0       0
       0       0       0       0       0       0       0       0       0       0
       0       0       0       0       0       0       0       0       0       0
       0       0       0       0       0       0       0       0       0       0
       0       0       0       0       0       0       0       0       0       0
       0       0       0       0       0       0       0       0       0       0
       0       0       0       0       0       0       0       0       0       0
       0       0       0       0       0       0       0       0       0       0
       0       0       0       0       0       0       0       0       0       0
       0       0       0       0       0       0       0       0       0       0
       0       0       0       0       0       0       0       0       0       0
       0       0       0       0       0       0       0       0       0       0
       0       0       0       0       0       0       0       0       0       0
       0       0       0       0       0       0       0       0       0       0
       0       0       0       0       0       0       0       0       0       0
       0       0       0       0       0       0       0       0       0       0
       0       0       0       0       0       0       0       0       0       0
       0       0       0       0       0       0       0       0       0       0
       0       0       0       0       0       0       0       0       0       0
       0       0       0       0       0       0       0       0       0       0
       0       0       0       0       0       0       0       0       0       0
       0       0       0       0       0       0       0       0       0       0
       0       0       0       0       0       0       0       0       0       0
       0       0       0       0       0       0       0       0       0       0
       0       0       0       0       0       0       0       0       0       0
       0       0       0       0       0       0       0       0       0       0
       0       0       0       0       0       0       0       0       0       0
       0       0       0       0       0       0       0       0       0       0
       0       0       0       0       0       0       0       0       0       0
       0       0       0       0       0       0       0       0       0       0
       0       0       0       0       0       0       0       0       0       0
       0       0       0       0       0       0       0       0       0       0
       0       0       0       0       0       0       0       0       0       0
       0       0       0       0       0       0       0       0       0       0
       0       0       0       0       0       0       0       0       0       0
       0       0       0       0       0       0       0       0       0       0
       0       0       0       0       0       0       0       0       0       0
       0       0       0       0       0       0       0       0       0       0
       0       0       0       0       0       0       0       0       0       0
       0       0       0       0       0       0       0       0       0       0
       0       0       0       0       0       0       0       0       0       0
       0       0       0       0       0       0       0       0       0       0
       0       0       0       0       0       0       0       0       0       0
       0       0       0       0       0       0       0       0       0       0
       0       0       0       0       0       0       0       0       0       0
       0       0       0       0       0       0       0       0       0       0
       0       0       0       0       0       0       0       0       0       0
       0       0       0       0       0       0       0       0       0       0
       0       0       0       0       0       0       0       0       0       0
       0       0       0       0       0       0       0       0       0       0
       0       0       0       0       0       0       0       0       0       0
       0       0       0       0       0       0       0       0       0       0
       0       0       0       0       0       0       0       0       0       0
       0       0       0       0       0       0       0       0       0       0
       0       0       0       0       0       0       0       0       0       0
       0       0       0       0       0       0       0       0       0       0
       0       0       0       0       0       0       0       0       0       0
       0       0       0       0       0       0       0       0       0       0
       0       0       0       0       0       0       0       0       0       0
       0       0       0       0       0       0       0       0       0       0
       0       0       0       0       0       0       0       0       0       0
       0       0       0       0       0       0       0       0       0       0
       0       0       0       0       0       0       0       0       0       0
       0       0       0       0       0       0       0       0       0       0
       0       0       0       0       0       0       0       0       0       0
       0       0       0       0       0       0       0       0       0       0
       0       0       0       0       0       0       0       0       0       0
       0       0       0       0       0       0       0       0       0       0
       0       0       0       0       0       0       0       0       0       0
       0       0       0       0       0       0       0       0       0       0
       0       0       0       0       0       0       0       0       0       0
       0       0       0       0       0       0       0       0       0       0
       0       0       0       0       0       0       0       0       0       0
       0       0       0       0       0       0       0       0       0       0
       0       0       0       0       0       0       0       0       0       0
       0       0       0       0       0       0       0       0       0       0
       0       0       0       0       0       0       0       0       0       0
       0       0       0       0       0       0       0       0       0       0
       0       0       0       0       0       0       0       0       0       0
       0       0       0       0       0       0       0       0       0       0
       0       0       0       0       0       0       0       0       0       0
       0       0       0       0       0       0       0       0       0       0
       0       0       0       0       0       0       0       0       0       0
       0       0       0       0       0       0       0       0       0       0
       0       0       0       0       0       0       0       0       0       0
       0       0       0       0       0       0       0       0       0       0
       0       0       0       0       0       0       0       0       0       0
       0       0       0       0       0       0       0       0       0       0
       0       0       0       0       0       0       0       0       0       0
       0       0       0       0       0       0       0       0       0       0
       0       0       0       0       0       0       0       0       0       0
       0       0       0       0       0       0       0       0       0       0
       0       0       0       0       0       0       0       0       0       0
       0       0       0       0       0       0       0       0       0       0
       0       0       0       0       0       0       0       0       0       0
       0       0       0       0       0       0       0       0       0       0
       0       0       0       0       0       0       0       0       0       0
       0       0       0       0       0       0       0       0       0       0
       0       0       0       0       0       0       0       0       0       0
       0       0       0       0       0       0       0       0       0       0
       0       0       0       0       0       0       0       0       0       0
       0       0       0       0       0       0       0       0       0       0
       0       0       0       0       0       0       0       0       0       0
       0       0       0       0       0       0       0       0       0       0
       0       0       0       0       0       0       0       0       0       0
       0       0       0       0       0       0       0       0       0       0
       0       0       0       0       0       0       0       0       0       0
       0       0       0       0       0       0       0       0       0       0
       0       0       0       0       0       0       0       0       0       0
       0       0       0       0       0       0       0       0       0       0
       0       0       0       0       0       0       0       0       0       0
       0       0       0       0       0       0       0       0       0       0
       0       0       0       0       0       0       0       0       0       0
       0       0       0       0       0       0       0       0       0       0
       0       0       0       0       0       0       0       0       0       0
       0       0       0       0       0       0       0       0       0       0
       0       0       0       0       0       0       0       0       0       0
       0       0       0       0       0       0       0       0       0       0
       0       0       0       0       0       0       0       0       0       0
       0       0       0       0       0       0       0       0       0       0
       0       0       0       0       0       0       0       0       0       0
       0       0       0       0       0       0       0       0       0       0
       0       0       0       0       0       0       0       0       0       0
       0       0       0       0       0       0       0       0       0       0
       0       0       0       0       0       0       0       0       0       0
       0       0       0       0       0       0       0       0       0       0
       0       0       0       0       0       0       0       0       0       0
       0       0       0       0       0       0       0       0       0       0
       0       0       0       0       0       0       0       0       0       0
       0       0       0       0       0       0       0       0       0       0
       0       0       0       0       0       0       0       0       0       0
       0       0       0       0       0       0       0       0       0       0
       0       0       0       0       0       0       0       0       0       0
       0       0       0       0       0       0       0       0       0       0
       0       0       0       0       0       0       0       0       0       0
       0       0       0       0       0       0       0       0       0       0
       0       0       0       0       0       0       0       0       0       0
       0       0       0       0       0       0       0       0       0       0
       0       0       0       0       0       0       0       0       0       0
       0       0       0       0       0       0       0       0       0       0
       0       0       0       0       0       0       0       0       0       0
       0       0       0       0       0       0       0       0       0       0
       0       0       0       0       0       0       0       0       0       0
       0       0       0       0       0       0       0       0       0       0
       0       0       0       0       0       0       0       0       0       0
       0       0       0       0       0       0       0       0       0       0
       0       0       0       0       0       0       0       0       0       0
       0       0       0       0       0       0       0       0       0       0
       0       0       0       0       0       0       0       0       0       0
       0       0       0       0       0       0       0       0       0       0
       0       0       0       0       0       0       0       0       0       0
       0       0       0       0       0       0       0       0       0       0
       0       0       0       0       0       0       0       0       0       0
       0       0       0       0       0       0       0       0       0       0
       0       0       0       0       0       0       0       0       0       0
       0       0       0       0       0       0       0       0       0       0
       0       0       0       0       0       0       0       0       0       0
       0       0       0       0       0       0       0       0       0       0
       0       0       0       0       0       0       0       0       0       0
       0       0       0       0       0       0       0       0       0       0
       0       0       0       0       0       0       0       0       0       0
       0       0       0       0       0       0       0       0       0       0
       0       0       0       0       0       0       0       0       0       0
       0       0       0       0       0       0       0       0       0       0
       0       0       0       0       0       0       0       0       0       0
       0       0       0       0       0       0       0       0       0       0
       0       0       0       0       0       0       0       0       0       0
       0       0       0       0       0       0       0       0       0       0
       0       0       0       0       0       0       0       0       0       0
       0       0       0       0       0       0       0       0       0       0
       0       0       0       0       0       0       0       0       0       0
       0       0       0       0       0       0       0       0       0       0
       0       0       0       0       0       0       0       0       0       0
       0       0       0       0       0       0       0       0       0       0
       0       0       0       0       0       0       0       0       0       0
       0       0       0       0       0       0       0       0       0       0
       0       0       0       0       0       0       0       0       0       0
       0       0       0       0       0       0       0       0       0       0
       0       0       0       0       0       0       0       0       0       0
       0       0       0       0       0       0       0       0       0       0
       0       0       0       0       0       0       0       0       0       0
       0       0       0       0       0       0       0       0       0       0
       0       0       0       0       0       0       0       0       0       0
       0       0       0       0       0       0       0       0       0       0
       0       0       0       0       0       0       0       0       0       0
       0       0       0       0       0       0       0       0       0       0
       0       0       0       0       0       0       0       0       0       0
       0       0       0       0       0       0       0       0       0       0
       0       0       0       0       0       0       0       0       0       0
       0       0       0       0       0       0       0       0       0       0
       0       0       0       0       0       0       0       0       0       0
       0       0       0       0       0       0       0       0       0       0
       0       0       0       0       0       0       0       0       0       0
       0       0       0       0       0       0       0       0       0       0
       0       0       0       0       0       0       0       0       0       0
       0       0       0       0       0       0       0       0       0       0
       0       0       0       0       0       0       0       0       0       0
       0       0       0       0       0       0       0       0       0       0
       0       0       0       0       0       0       0       0       0       0
       0       0       0       0       0       0       0       0       0       0
       0       0       0       0       0       0       0       0       0       0
       0       0       0       0       0       0       0       0       0       0
       0       0       0       0       0       0       0       0       0       0
       0       0       0       0       0       0       0       0       0       0
       0       0       0       0       0       0       0       0       0       0
       0       0       0       0       0       0       0       0       0       0
       0       0       0       0       0       0       0       0       0       0
       0       0       0       0       0       0       0       0       0       0
       0       0       0       0       0       0       0       0       0       0
       0       0       0       0       0       0       0       0       0       0
       0       0       0       0       0       0       0       0       0       0
       0       0       0       0       0       0       0       0       0       0
       0       0       0       0       0       0       0       0       0       0
       0       0       0       0       0       0       0       0       0       0
       0       0       0       0       0       0       0       0       0       0
       0       0       0       0       0       0       0       0       0       0
       0       0       0       0       0       0       0       0       0       0
       0       0       0       0       0       0       0       0       0       0
       0       0       0       0       0       0       0       0       0       0
       0       0       0       0       0       0       0       0       0       0
       0       0       0       0       0       0       0       0       0       0
       0       0       0       0       0       0       0       0       0       0
       0       0       0       0       0       0       0       0       0       0
       0       0       0       0       0       0       0       0       0       0
       0       0       0       0       0       0       0       0       0       0
       0       0       0       0       0       0       0       0       0       0
       0       0       0       0       0       0       0       0       0       0
       0       0       0       0       0       0       0       0       0       0
       0       0       0       0       0       0       0       0       0       0
       0       0       0       0       0       0       0       0       0       0
       0       0       0       0       0       0       0       0       0       0
       0       0       0       0       0       0       0       0       0       0
       0       0       0       0       0       0       0       0       0       0
       0       0       0       0       0       0       0       0       0       0
       0       0       0       0       0       0       0       0       0       0
       0       0       0       0       0       0       0       0       0       0
       0       0       0       0       0       0       0       0       0       0
       0       0       0       0       0       0       0       0       0       0
       0       0       0       0       0       0       0       0       0       0
       0       0       0       0       0       0       0       0       0       0
       0       0       0       0       0       0       0       0       0       0
       0       0       0       0       0       0       0       0       0       0
       0       0       0       0       0       0       0       0       0       0
       0       0       0       0       0       0       0       0       0       0
       0       0       0       0       0       0       0       0       0       0
       0       0       0       0       0       0       0       0       0       0
       0       0       0       0       0       0       0       0       0       0
       0       0       0       0       0       0       0       0       0       0
       0       0       0       0       0       0       0       0       0       0
       0       0       0       0       0       0       0       0       0       0
       0       0       0       0       0       0       0       0       0       0
       0       0       0       0       0       0       0       0       0       0
       0       0       0       0       0       0       0       0       0       0
       0       0       0       0       0       0       0       0       0       0
       0       0       0       0       0       0       0       0       0       0
       0       0       0       0       0       0       0       0       0       0
       0       0       0       0       0       0       0       0       0       0
       0       0       0       0       0       0       0       0       0       0
       0       0       0       0       0       0       0       0       0       0
       0       0       0       0       0       0       0       0       0       0
       0       0       0       0       0       0       0       0       0       0
       0       0       0       0       0       0       0       0       0       0
       0       0       0       0       0       0       0       0       0       0
       0       0       0       0       0       0       0       0       0       0
       0       0       0       0       0       0       0       0       0       0
       0       0       0       0       0       0       0       0       0       0
       0       0       0       0       0       0       0       0       0       0
       0       0       0       0       0       0       0       0       0       0
       0       0       0       0       0       0       0       0       0       0
       0       0       0       0       0       0       0       0       0       0
       0       0       0       0       0       0       0       0       0       0
       0       0       0       0       0       0       0       0       0       0
       0       0       0       0       0       0       0       0       0       0
       0       0       0       0       0       0       0       0       0       0
       0       0       0       0       0       0       0       0       0       0
       0       0       0       0       0       0       0       0       0       0
       0       0       0       0       0       0       0       0       0       0
       0       0       0       0       0       0       0       0       0       0
       0       0       0       0       0       0       0       0       0       0
       0       0       0       0       0       0       0       0       0       0
       0       0       0       0       0       0       0       0       0       0
       0       0       0       0       0       0       0       0       0       0
       0       0       0       0       0       0       0       0       0       0
       0       0       0       0       0       0       0       0       0       0
       0       0       0       0       0       0       0       0       0       0
       0       0       0       0       0       0       0       0       0       0
       0       0       0       0       0       0       0       0       0       0
       0       0       0       0       0       0       0       0       0       0
       0       0       0       0       0       0       0       0       0       0
       0       0       0       0       0       0       0       0       0       0
       0       0       0       0       0       0       0       0       0       0
       0       0       0       0       0       0       0       0       0       0
       0       0       0       0       0       0       0       0       0       0
       0       0       0       0       0       0       0       0       0       0
       0       0       0       0       0       0       0       0       0       0
       0       0       0       0       0       0       0       0       0       0
       0       0       0       0       0       0       0       0       0       0
       0       0       0       0       0       0       0       0       0       0
       0       0       0       0       0       0       0       0       0       0
       0       0       0       0       0       0       0       0       0       0
       0       0       0       0       0       0       0       0       0       0
       0       0       0       0       0       0       0       0       0       0
       0       0       0       0       0       0       0       0       0       0
       0       0       0       0       0       0       0       0       0       0
       0       0       0       0       0       0       0       0       0       0
       0       0       0       0       0       0       0       0       0       0
       0       0       0       0       0       0       0       0       0       0
       0       0       0       0       0       0       0       0       0       0
       0       0       0       0       0       0       0       0       0       0
       0       0       0       0       0       0       0       0       0       0
       0       0       0       0       0       0       0       0       0       0
       0       0       0       0       0       0       0       0       0       0
       0       0       0       0       0       0       0       0       0       0
       0       0       0       0       0       0       0       0       0       0
       0       0       0       0       0       0       0       0       0       0
       0       0       0       0       0       0       0       0       0       0
       0       0       0       0       0       0       0       0       0       0
       0       0       0       0       0       0       0       0       0       0
       0       0       0       0       0       0       0       0       0       0
       0       0       0       0       0       0       0       0       0       0
       0       0       0       0       0       0       0       0       0       0
       0       0       0       0       0       0       0       0       0       0
       0       0       0       0       0       0       0       0       0       0
       0       0       0       0       0       0       0       0       0       0
       0       0       0       0       0       0       0       0       0       0
       0       0       0       0       0       0       0       0       0       0
       0       0       0       0       0       0       0       0       0       0
       0       0       0       0       0       0       0       0       0       0
       0       0       0       0       0       0       0       0       0       0
       0       0       0       0       0       0       0       0       0       0
       0       0       0       0       0       0       0       0       0       0
       0       0       0       0       0       0       0       0       0       0
       0       0       0       0       0       0       0       0       0       0
       0       0       0       0       0       0       0       0       0       0
       0       0       0       0       0       0       0       0       0       0
       0       0       0       0       0       0       0       0       0       0
       0       0       0       0       0       0       0       0       0       0
       0       0       0       0       0       0       0       0       0       0
       0       0       0       0       0       0       0       0       0       0
       0       0       0       0       0       0       0       0       0       0
       0       0       0       0       0       0       0       0       0       0
       0       0       0       0       0       0       0       0       0       0
       0       0       0       0       0       0       0       0       0       0
       0       0       0       0       0       0       0       0       0       0
       0       0       0       0       0       0       0       0       0       0
       0       0       0       0       0       0       0       0       0       0
       0       0       0       0       0       0       0       0       0       0
       0       0       0       0       0       0       0       0       0       0
       0       0       0       0       0       0       0       0       0       0
       0       0       0       0       0       0       0       0       0       0
       0       0       0       0       0       0       0       0       0       0
       0       0       0       0       0       0       0       0       0       0
       0       0       0       0       0       0       0       0       0       0
       0       0       0       0       0       0       0       0       0       0
       0       0       0       0       0       0       0       0       0       0
       0       0       0       0       0       0       0       0       0       0
       0       0       0       0       0       0       0       0       0       0
       0       0       0       0       0       0       0       0       0       0
       0       0       0       0       0       0       0       0       0       0
       0       0       0       0       0       0       0       0       0       0
       0       0       0       0       0       0       0       0       0       0
       0       0       0       0       0       0       0       0       0       0
       0       0       0       0       0       0       0       0       0       0
       0       0       0       0       0       0       0       0       0       0
       0       0       0       0       0       0       0       0       0       0
       0       0       0       0       0       0       0       0       0       0
       0       0       0       0       0       0       0       0       0       0
       0       0       0       0       0       0       0       0       0       0
       0       0       0       0       0       0       0       0       0       0
       0       0       0       0       0       0       0       0       0       0
       0       0       0       0       0       0       0       0       0       0
       0       0       0       0       0       0       0       0       0       0
       0       0       0       0       0       0       0       0       0       0
       0       0       0       0       0       0       0       0       0       0
       0       0       0       0       0       0       0       0       0       0
       0       0       0       0       0       0       0       0       0       0
       0       0       0       0       0       0       0       0       0       0
       0       0       0       0       0       0       0       0       0       0
       0       0       0       0       0       0       0       0       0       0
       0       0       0       0       0       0       0       0       0       0
       0       0       0       0       0       0       0       0       0       0
       0       0       0       0       0       0       0       0       0       0
       0       0       0       0       0       0       0       0       0       0
       0       0       0       0       0       0       0       0       0       0
       0       0       0       0       0       0       0       0       0       0
       0       0       0       0       0       0       0       0       0       0
       0       0       0       0       0       0       0       0       0       0
       0       0       0       0       0       0       0       0       0       0
       0       0       0       0       0       0       0       0       0       0
       0       0       0       0       0       0       0       0       0       0
       0       0       0       0       0       0       0       0       0       0
       0       0       0       0       0       0       0       0       0       0
       0       0       0       0       0       0       0       0       0       0
       0       0       0       0       0       0       0       0       0       0
       0       0       0       0       0       0       0       0       0       0
       0       0       0       0       0       0       0       0       0       0
       0       0       0       0       0       0       0       0       0       0
       0       0       0       0       0       0       0       0       0       0
       0       0       0       0       0       0       0       0       0       0
       0       0       0       0       0       0       0       0       0       0
       0       0       0       0       0       0       0       0       0       0
       0       0       0       0       0       0       0       0       0       0
       0       0       0       0       0       0       0       0       0       0
       0       0       0       0       0       0       0       0       0       0
       0       0       0       0       0       0       0       0       0       0
       0       0       0       0       0       0       0       0       0       0
       0       0       0       0       0       0       0       0       0       0
       0       0       0       0       0       0       0       0       0       0
       0       0       0       0       0       0       0       0       0       0
       0       0       0       0       0       0       0       0       0       0
       0       0       0       0       0       0       0       0       0       0
       0       0       0       0       0       0       0       0       0       0
       0       0       0       0       0       0       0       0       0       0
       0       0       0       0       0       0       0       0       0       0
       0       0       0       0       0       0       0       0       0       0
       0       0       0       0       0       0       0       0       0       0
       0       0       0       0       0       0       0       0       0       0
       0       0       0       0       0       0       0       0       0       0
       0       0       0       0       0       0       0       0       0       0
       0       0       0       0       0       0       0       0       0       0
       0       0       0       0       0       0       0       0       0       0
       0       0       0       0       0       0       0       0       0       0
       0       0       0       0       0       0       0       0       0       0
       0       0       0       0       0       0       0       0       0       0
       0       0       0       0       0       0       0       0       0       0
       0       0       0       0       0       0       0       0       0       0
       0       0       0       0       0       0       0       0       0       0
       0       0       0       0       0       0       0       0       0       0
       0       0       0       0       0       0       0       0       0       0
       0       0       0       0       0       0       0       0       0       0
       0       0       0       0       0       0       0       0       0       0
       0       0       0       0       0       0       0       0       0       0
       0       0       0       0       0       0       0       0       0       0
       0       0       0       0       0       0       0       0       0       0
       0       0       0       0       0       0       0       0       0       0
       0       0       0       0       0       0       0       0       0       0
       0       0       0       0       0       0       0       0       0       0
       0       0       0       0       0       0       0       0       0       0
       0       0       0       0       0       0       0       0       0       0
       0       0       0       0       0       0       0       0       0       0
       0       0       0       0       0       0       0       0       0       0
       0       0       0       0       0       0       0       0       0       0
       0       0       0       0       0       0       0       0       0       0
       0       0       0       0       0       0       0       0       0       0
       0       0       0       0       0       0       0       0       0       0
       0       0       0       0       0       0       0       0       0       0
       0       0       0       0       0       0       0       0       0       0
       0       0       0       0       0       0       0       0       0       0
       0       0       0       0       0       0       0       0       0       0
       0       0       0       0       0       0       0       0       0       0
       0       0       0       0       0       0       0       0       0       0
       0       0       0       0       0       0       0       0       0       0
       0       0       0       0       0       0       0       0       0       0
       0       0       0       0       0       0       0       0       0       0
       0       0       0       0       0       0       0       0       0       0
       0       0       0       0       0       0       0       0       0       0
       0       0       0       0       0       0       0       0       0       0
       0       0       0       0       0       0       0       0       0       0
       0       0       0       0       0       0       0       0       0       0
       0       0       0       0       0       0       0       0       0       0
       0       0       0       0       0       0       0       0       0       0
       0       0       0       0       0       0       0       0       0       0
       0       0       0       0       0       0       0       0       0       0
       0       0       0       0       0       0       0       0       0       0
       0       0       0       0       0       0       0       0       0       0
       0       0       0       0       0       0       0       0       0       0
       0       0       0       0       0       0       0       0       0       0
       0       0       0       0       0       0       0       0       0       0
       0       0       0       0       0       0       0       0       0       0
       0       0       0       0       0       0       0       0       0       0
       0       0       0       0       0       0       0       0       0       0
       0       0       0       0       0       0       0       0       0       0
       0       0       0       0       0       0       0       0       0       0
       0       0       0       0       0       0       0       0       0       0
       0       0       0       0       0       0       0       0       0       0
       0       0       0       0       0       0       0       0       0       0
       0       0       0       0       0       0       0       0       0       0
       0       0       0       0       0       0       0       0       0       0
       0       0       0       0       0       0       0       0       0       0
       0       0       0       0       0       0       0       0       0       0
       0       0       0       0       0       0       0       0       0       0
       0       0       0       0       0       0       0       0       0       0
       0       0       0       0       0       0       0       0       0       0
       0       0       0       0       0       0       0       0       0       0
       0       0       0       0       0       0       0       0       0       0
       0       0       0       0       0       0       0       0       0       0
       0       0       0       0       0       0       0       0       0       0
       0       0       0       0       0       0       0       0       0       0
       0       0       0       0       0       0       0       0       0       0
       0       0       0       0       0       0       0       0       0       0
       0       0       0       0       0       0       0       0       0       0
       0       0       0       0       0       0       0       0       0       0
       0       0       0       0       0       0       0       0       0       0
       0       0       0       0       0       0       0       0       0       0
       0       0       0       0       0       0       0       0       0       0
       0       0       0       0       0       0       0       0       0       0
       0       0       0       0       0       0       0       0       0       0
       0       0       0       0       0       0       0       0       0       0
       0       0       0       0       0       0       0       0       0       0
       0       0       0       0       0       0       0       0       0       0
       0       0       0       0       0       0       0       0       0       0
       0       0       0       0       0       0       0       0       0       0
       0       0       0       0       0       0       0       0       0       0
       0       0       0       0       0       0       0       0       0       0
       0       0       0       0       0       0       0       0       0       0
       0       0       0       0       0       0       0       0       0       0
       0       0       0       0       0       0       0       0       0       0
       0       0       0       0       0       0       0       0       0       0
       0       0       0       0       0       0       0       0       0       0
       0       0       0       0       0       0       0       0       0       0
       0       0       0       0       0       0       0       0       0       0
       0       0       0       0       0       0       0       0       0       0
       0       0       0       0       0       0       0       0       0       0
       0       0       0       0       0       0       0       0       0       0
       0       0       0       0       0       0       0       0       0       0
       0       0       0       0       0       0       0       0       0       0
       0       0       0       0       0       0       0       0       0       0
       0       0       0       0       0       0       0       0       0       0
       0       0       0       0       0       0       0       0       0       0
       0       0       0       0       0       0       0       0       0       0
       0       0       0       0       0       0       0       0       0       0
       0       0       0       0       0       0       0       0       0       0
       0       0       0       0       0       0       0       0       0       0
       0       0       0       0       0       0       0       0       0       0
       0       0       0       0       0       0       0       0       0       0
       0       0       0       0       0       0       0       0       0       0
       0       0       0       0       0       0       0       0       0       0
       0       0       0       0       0       0       0       0       0       0
       0       0       0       0       0       0       0       0       0       0
       0       0       0       0       0       0       0       0       0       0
       0       0       0       0       0       0       0       0       0       0
       0       0       0       0       0       0       0       0       0       0
       0       0       0       0       0       0       0       0       0       0
       0       0       0       0       0       0       0       0       0       0
       0       0       0       0       0       0       0       0       0       0
       0       0       0       0       0       0       0       0       0       0
       0       0       0       0       0       0       0       0       0       0
       0       0       0       0       0       0       0       0       0       0
       0       0       0       0       0       0       0       0       0       0
       0       0       0       0       0       0       0       0       0       0
       0       0       0       0       0       0       0       0       0       0
       0       0       0       0       0       0       0       0       0       0
       0       0       0       0       0       0       0       0       0       0
       0       0       0       0       0       0       0       0       0       0
       0       0       0       0       0       0       0       0       0       0
       0       0       0       0       0       0       0       0       0       0
       0       0       0       0       0       0       0       0       0       0
       0       0       0       0       0       0       0       0       0       0
       0       0       0       0       0       0       0       0       0       0
       0       0       0       0       0       0       0       0       0       0
       0       0       0       0       0       0       0       0       0       0
       0       0       0       0       0       0       0       0       0       0
       0       0       0       0       0       0       0       0       0       0
       0       0       0       0       0       0       0       0       0       0
       0       0       0       0       0       0       0       0       0       0
       0       0       0       0       0       0       0       0       0       0
       0       0       0       0       0       0       0       0       0       0
       0       0       0       0       0       0       0       0       0       0
       0       0       0       0       0       0       0       0       0       0
       0       0       0       0       0       0       0       0       0       0
       0       0       0       0       0       0       0       0       0       0
       0       0       0       0       0       0       0       0       0       0
       0       0       0       0       0       0       0       0       0       0
       0       0       0       0       0       0       0       0       0       0
       0       0       0       0       0       0       0       0       0       0
       0       0       0       0       0       0       0       0       0       0
       0       0       0       0       0       0       0       0       0       0
       0       0       0       0       0       0       0       0       0       0
       0       0       0       0       0       0       0       0       0       0
       0       0       0       0       0       0       0       0       0       0
       0       0       0       0       0       0       0       0       0       0
       0       0       0       0       0       0       0       0       0       0
       0       0       0       0       0       0       0       0       0       0
       0       0       0       0       0       0       0       0       0       0
       0       0       0       0       0       0       0       0       0       0
       0       0       0       0       0       0       0       0       0       0
       0       0       0       0       0       0       0       0       0       0
       0       0       0       0       0       0       0       0       0       0
       0       0       0       0       0       0       0       0       0       0
       0       0       0       0       0       0       0       0       0       0
       0       0       0       0       0       0       0       0       0       0
       0       0       0       0       0       0       0       0       0       0
       0       0       0       0       0       0       0       0       0       0
       0       0       0       0       0       0       0       0       0       0
       0       0       0       0       0       0       0       0       0       0
       0       0       0       0       0       0       0       0       0       0
       0       0       0       0       0       0       0       0       0       0
       0       0       0       0       0       0       0       0       0       0
       0       0       0       0       0       0       0       0       0       0
       0       0       0       0       0       0       0       0       0       0
       0       0       0       0       0       0       0       0       0       0
       0       0       0       0       0       0       0       0       0       0
       0       0       0       0       0       0       0       0       0       0
       0       0       0       0       0       0       0       0       0       0
       0       0       0       0       0       0       0       0       0       0
       0       0       0       0       0       0       0       0       0       0
       0       0       0       0       0       0       0       0       0       0
       0       0       0       0       0       0       0       0       0       0
       0       0       0       0       0       0       0       0       0       0
       0       0       0       0       0       0       0       0       0       0
       0       0       0       0       0       0       0       0       0       0
       0       0       0       0       0       0       0       0       0       0
       0       0       0       0       0       0       0       0       0       0
       0       0       0       0       0       0       0       0       0       0
       0       0       0       0       0       0       0       0       0       0
       0       0       0       0       0       0       0       0       0       0
       0       0       0       0       0       0       0       0       0       0
       0       0       0       0       0       0       0       0       0       0
       0       0       0       0       0       0       0       0       0       0
       0       0       0       0       0       0       0       0       0       0
       0       0       0       0       0       0       0       0       0       0
       0       0       0       0       0       0       0       0       0       0
       0       0       0       0       0       0       0       0       0       0
       0       0       0       0       0       0       0       0       0       0
       0       0       0       0       0       0       0       0       0       0
       0       0       0       0       0       0       0       0       0       0
       0       0       0       0       0       0       0       0       0       0
       0       0       0       0       0       0       0       0       0       0
       0       0       0       0       0       0       0       0       0       0
       0       0       0       0       0       0       0       0       0       0
       0       0       0       0       0       0       0       0       0       0
       0       0       0       0       0       0       0       0       0       0
       0       0       0       0       0       0       0       0       0       0
       0       0       0       0       0       0       0       0       0       0
       0       0       0       0       0       0       0       0       0       0
       0       0       0       0       0       0       0       0       0       0
       0       0       0       0       0       0       0       0       0       0
       0       0       0       0       0       0       0       0       0       0
       0       0       0       0       0       0       0       0       0       0
       0       0       0       0       0       0       0       0       0       0
       0       0       0       0       0       0       0       0       0       0
       0       0       0       0       0       0       0       0       0       0
       0       0       0       0       0       0       0       0       0       0
       0       0       0       0       0       0       0       0       0       0
       0       0       0       0       0       0       0       0       0       0
       0       0       0       0       0       0       0       0       0       0
       0       0       0       0       0       0       0       0       0       0
       0       0       0       0       0       0       0       0       0       0
       0       0       0       0       0       0       0       0       0       0
       0       0       0       0       0       0       0       0       0       0
       0       0       0       0       0       0       0       0       0       0
       0       0       0       0       0       0       0       0       0       0
       0       0       0       0       0       0       0       0       0       0
       0       0       0       0       0       0       0       0       0       0
       0       0       0       0       0       0       0       0       0       0
       0       0       0       0       0       0       0       0       0       0
       0       0       0       0       0       0       0       0       0       0
       0       0       0       0       0       0       0       0       0       0
       0       0       0       0       0       0       0       0       0       0
       0       0       0       0       0       0       0       0       0       0
       0       0       0       0       0       0       0       0       0       0
       0       0       0       0       0       0       0       0       0       0
       0       0       0       0       0       0       0       0       0       0
       0       0       0       0       0       0       0       0       0       0
       0       0       0       0       0       0       0       0       0       0
       0       0       0       0       0       0       0       0       0       0
       0       0       0       0       0       0       0       0       0       0
       0       0       0       0       0       0       0       0       0       0
       0       0       0       0       0       0       0       0       0       0
       0       0       0       0       0       0       0       0       0       0
       0       0       0       0       0       0       0       0       0       0
       0       0       0       0       0       0       0       0       0       0
       0       0       0       0       0       0       0       0       0       0
       0       0       0       0       0       0       0       0       0       0
       0       0       0       0       0       0       0       0       0       0
       0       0       0       0       0       0       0       0       0       0
       0       0       0       0       0       0       0       0       0       0
       0       0       0       0       0       0       0       0       0       0
       0       0       0       0       0       0       0       0       0       0
       0       0       0       0       0       0       0       0       0       0
       0       0       0       0       0       0       0       0       0       0
       0       0       0       0       0       0       0       0       0       0
       0       0       0       0       0       0       0       0       0       0
       0       0       0       0       0       0       0       0       0       0
       0       0       0       0       0       0       0       0       0       0
       0       0       0       0       0       0       0       0       0       0
       0       0       0       0       0       0       0       0       0       0
       0       0       0       0       0       0       0       0       0       0
       0       0       0       0       0       0       0       0       0       0
       0       0       0       0       0       0       0       0       0       0
       0       0       0       0       0       0       0       0       0       0
       0       0       0       0       0       0       0       0       0       0
       0       0       0       0       0       0       0       0       0       0
       0       0       0       0       0       0       0       0       0       0
       0       0       0       0       0       0       0       0       0       0
       0       0       0       0       0       0       0       0       0       0
       0       0       0       0       0       0       0       0       0       0
       0       0       0       0       0       0       0       0       0       0
       0       0       0       0       0       0       0       0       0       0
       0       0       0       0       0       0       0       0       0       0
       0       0       0       0       0       0       0       0       0       0
       0       0       0       0       0       0       0       0       0       0
       0       0       0       0       0       0       0       0       0       0
       0       0       0       0       0       0       0       0       0       0
       0       0       0       0       0       0       0       0       0       0
       0       0       0       0       0       0       0       0       0       0
       0       0       0       0       0       0       0       0       0       0
       0       0       0       0       0       0       0       0       0       0
       0       0       0       0       0       0       0       0       0       0
       0       0       0       0       0       0       0       0       0       0
       0       0       0       0       0       0       0       0       0       0
       0       0       0       0       0       0       0       0       0       0
       0       0       0       0       0       0       0       0       0       0
       0       0       0       0       0       0       0       0       0       0
       0       0       0       0       0       0       0       0       0       0
       0       0       0       0       0       0       0       0       0       0
       0       0       0       0       0       0       0       0       0       0
       0       0       0       0       0       0       0       0       0       0
       0       0       0       0       0       0       0       0       0       0
       0       0       0       0       0       0       0       0       0       0
       0       0       0       0       0       0       0       0       0       0
       0       0       0       0       0       0       0       0       0       0
       0       0       0       0       0       0       0       0       0       0
       0       0       0       0       0       0       0       0       0       0
       0       0       0       0       0       0       0       0       0       0
       0       0       0       0       0       0       0       0       0       0
       0       0       0       0       0       0       0       0       0       0
       0       0       0       0       0       0       0       0       0       0
       0       0       0       0       0       0       0       0       0       0
       0       0       0       0       0       0       0       0       0       0
       0       0       0       0       0       0       0       0       0       0
       0       0       0       0       0       0       0       0       0       0
       0       0       0       0       0       0       0       0       0       0
       0       0       0       0       0       0       0       0       0       0
       0       0       0       0       0       0       0       0       0       0
       0       0       0       0       0       0       0       0       0       0
       0       0       0       0       0       0       0       0       0       0
       0       0       0       0       0       0       0       0       0       0
       0       0       0       0       0       0       0       0       0       0
       0       0       0       0       0       0       0       0       0       0
       0       0       0       0       0       0       0       0       0       0
       0       0       0       0       0       0       0       0       0       0
       0       0       0       0       0       0       0       0       0       0
       0       0       0       0       0       0       0       0       0       0
       0       0       0       0       0       0       0       0       0       0
       0       0       0       0       0       0       0       0       0       0
       0       0       0       0       0       0       0       0       0       0
       0       0       0       0       0       0       0       0       0       0
       0       0       0       0       0       0       0       0       0       0
       0       0       0       0       0       0       0       0       0       0
       0       0       0       0       0       0       0       0       0       0
       0       0       0       0       0       0       0       0       0       0
       0       0       0       0       0       0       0       0       0       0
       0       0       0       0       0       0       0       0       0       0
       0       0       0       0       0       0       0       0       0       0
       0       0       0       0       0       0       0       0       0       0
       0       0       0       0       0       0       0       0       0       0
       0       0       0       0       0       0       0       0       0       0
       0       0       0       0       0       0       0       0       0       0
       0       0       0       0       0       0       0       0       0       0
       0       0       0       0       0       0       0       0       0       0
       0       0       0       0       0       0       0       0       0       0
       0       0       0       0       0       0       0       0       0       0
       0       0       0       0       0       0       0       0       0       0
       0       0       0       0       0       0       0       0       0       0
       0       0       0       0       0       0       0       0       0       0
       0       0       0       0       0       0       0       0       0       0
       0       0       0       0       0       0       0       0       0       0
       0       0       0       0       0       0       0       0       0       0
       0       0       0       0       0       0       0       0       0       0
       0       0       0       0       0       0       0       0       0       0
       0       0       0       0       0       0       0       0       0       0
       0       0       0       0       0       0       0       0       0       0
       0       0       0       0       0       0       0       0       0       0
       0       0       0       0       0       0       0       0       0       0
       0       0       0       0       0       0       0       0       0       0
       0       0       0       0       0       0       0       0       0       0
       0       0       0       0       0       0       0       0       0       0
       0       0       0       0       0       0       0       0       0       0
       0       0       0       0       0       0       0       0       0       0
       0       0       0       0       0       0       0       0       0       0
       0       0       0       0       0       0       0       0       0       0
       0       0       0       0       0       0       0       0       0       0
       0       0       0       0       0       0       0       0       0       0
       0       0       0       0       0       0       0       0       0       0
       0       0       0       0       0       0       0       0       0       0
       0       0       0       0       0       0       0       0       0       0
       0       0       0       0       0       0       0       0       0       0
       0       0       0       0       0       0       0       0       0       0
       0       0       0       0       0       0       0       0       0       0
       0       0       0       0       0       0       0       0       0       0
       0       0       0       0       0       0       0       0       0       0
       0       0       0       0       0       0       0       0       0       0
       0       0       0       0       0       0       0       0       0       0
       0       0       0       0       0       0       0       0       0       0
       0       0       0       0       0       0       0       0       0       0
       0       0       0       0       0       0       0       0       0       0
       0       0       0       0       0       0       0       0       0       0
       0       0       0       0       0       0       0       0       0       0
       0       0       0       0       0       0       0       0       0       0
       0       0       0       0       0       0       0       0       0       0
       0       0       0       0       0       0       0       0       0       0
       0       0       0       0       0       0       0       0       0       0
       0       0       0       0       0       0       0       0       0       0
       0       0       0       0       0       0       0       0       0       0
       0       0       0       0       0       0       0       0       0       0
       0       0       0       0       0       0       0       0       0       0
       0       0       0       0       0       0       0       0       0       0
       0       0       0       0       0       0       0       0       0       0
       0       0       0       0       0       0       0       0       0       0
       0       0       0       0       0       0       0       0       0       0
       0       0       0       0       0       0       0       0       0       0
       0       0       0       0       0       0       0       0       0       0
       0       0       0       0       0       0       0       0       0       0
       0       0       0       0       0       0       0       0       0       0
       0       0       0       0       0       0       0       0       0       0
       0       0       0       0       0       0       0       0       0       0
       0       0       0       0       0       0       0       0       0       0
       0       0       0       0       0       0       0       0       0       0
       0       0       0       0       0       0       0       0       0       0
       0       0       0       0       0       0       0       0       0       0
       0       0       0       0       0       0       0       0       0       0
       0       0       0       0       0       0       0       0       0       0
       0       0       0       0       0       0       0       0       0       0
       0       0       0       0       0       0       0       0       0       0
       0       0       0       0       0       0       0       0       0       0
       0       0       0       0       0       0       0       0       0       0
       0       0       0       0       0       0       0       0       0       0
       0       0       0       0       0       0       0       0       0       0
       0       0       0       0       0       0       0       0       0       0
       0       0       0       0       0       0       0       0       0       0
       0       0       0       0       0       0       0       0       0       0
       0       0       0       0       0       0       0       0       0       0
       0       0       0       0       0       0       0       0       0       0
       0       0       0       0       0       0       0       0       0       0
       0       0       0       0       0       0       0       0       0       0
       0       0       0       0       0       0       0       0       0       0
       0       0       0       0       0       0       0       0       0       0
       0       0       0       0       0       0       0       0       0       0
       0       0       0       0       0       0       0       0       0       0
       0       0       0       0       0       0       0       0       0       0
       0       0       0       0       0       0       0       0       0       0
       0       0       0       0       0       0       0       0       0       0
       0       0       0       0       0       0       0       0       0       0
       0       0       0       0       0       0       0       0       0       0
       0       0       0       0       0       0       0       0       0       0
       0       0       0       0       0       0       0       0       0       0
       0       0       0       0       0       0       0       0       0       0
       0       0       0       0       0       0       0       0       0       0
       0       0       0       0       0       0       0       0       0       0
       0       0       0       0       0       0       0       0       0       0
       0       0       0       0       0       0       0       0       0       0
       0       0       0       0       0       0       0       0       0       0
       0       0       0       0       0       0       0       0       0       0
       0       0       0       0       0       0       0       0       0       0
       0       0       0       0       0       0       0       0       0       0
       0       0       0       0       0       0       0       0       0       0
       0       0       0       0       0       0       0       0       0       0
       0       0       0       0       0       0       0       0       0       0
       0       0       0       0       0       0       0       0       0       0
       0       0       0       0       0       0       0       0       0       0
       0       0       0       0       0       0       0       0       0       0
       0       0       0       0       0       0       0       0       0       0
       0       0       0       0       0       0       0       0       0       0
       0       0       0       0       0       0       0       0       0       0
       0       0       0       0       0       0       0       0       0       0
       0       0       0       0       0       0       0       0       0       0
       0       0       0       0       0       0       0       0       0       0
       0       0       0       0       0       0       0       0       0       0
       0       0       0       0       0       0       0       0       0       0
       0       0       0       0       0       0       0       0       0       0
       0       0       0       0       0       0       0       0       0       0
       0       0       0       0       0       0       0       0       0       0
       0       0       0       0       0       0       0       0       0       0
       0       0       0       0       0       0       0       0       0       0
       0       0       0       0       0       0       0       0       0       0
       0       0       0       0       0       0       0       0       0       0
       0       0       0       0       0       0       0       0       0       0
       0       0       0       0       0       0       0       0       0       0
       0       0       0       0       0       0       0       0       0       0
       0       0       0       0       0       0       0       0       0       0
       0       0       0       0       0       0       0       0       0       0
       0       0       0       0       0       0       0       0       0       0
       0       0       0       0       0       0       0       0       0       0
       0       0       0       0       0       0       0       0       0       0
       0       0       0       0       0       0       0       0       0       0
       0       0       0       0       0       0       0       0       0       0
       0       0       0       0       0       0       0       0       0       0
       0       0       0       0       0       0       0       0       0       0
       0       0       0       0       0       0       0       0       0       0
       0       0       0       0       0       0       0       0       0       0
       0       0       0       0       0       0       0       0       0       0
       0       0       0       0       0       0       0       0       0       0
       0       0       0       0       0       0       0       0       0       0
       0       0       0       0       0       0       0       0       0       0
       0       0       0       0       0       0       0       0       0       0
       0       0       0       0       0       0       0       0       0       0
       0       0       0       0       0       0       0       0       0       0
       0       0       0       0       0       0       0       0       0       0
       0       0       0       0       0       0       0       0       0       0
       0       0       0       0       0       0       0       0       0       0
       0       0       0       0       0       0       0       0       0       0
       0       0       0       0       0       0       0       0       0       0
       0       0       0       0       0       0       0       0       0       0
       0       0       0       0       0       0       0       0       0       0
       0       0       0       0       0       0       0       0       0       0
       0       0       0       0       0       0       0       0       0       0
       0       0       0       0       0       0       0       0       0       0
       0       0       0       0       0       0       0       0       0       0
       0       0       0       0       0       0       0       0       0       0
       0       0       0       0       0       0       0       0       0       0
       0       0       0       0       0       0       0       0       0       0
       0       0       0       0       0       0       0       0       0       0
       0       0       0       0       0       0       0       0       0       0
       0       0       0       0       0       0       0       0       0       0
       0       0       0       0       0       0       0       0       0       0
       0       0       0       0       0       0       0       0       0       0
       0       0       0       0       0       0       0       0       0       0
       0       0       0       0       0       0       0       0       0       0
       0       0       0       0       0       0       0       0       0       0
       0       0       0       0       0       0       0       0       0       0
       0       0       0       0       0       0       0       0       0       0
       0       0       0       0       0       0       0       0       0       0
       0       0       0       0       0       0       0       0       0       0
       0       0       0       0       0       0       0       0       0       0
       0       0       0       0       0       0       0       0       0       0
       0       0       0       0       0       0       0       0       0       0
       0       0       0       0       0       0       0       0       0       0
       0       0       0       0       0       0       0       0       0       0
       0       0       0       0       0       0       0       0       0       0
       0       0       0       0       0       0       0       0       0       0
       0       0       0       0       0       0       0       0       0       0
       0       0       0       0       0       0       0       0       0       0
       0       0       0       0       0       0       0       0       0       0
       0       0       0       0       0       0       0       0       0       0
       0       0       0       0       0       0       0       0       0       0
       0       0       0       0       0       0       0       0       0       0
       0       0       0       0       0       0       0       0       0       0
       0       0       0       0       0       0       0       0       0       0
       0       0       0       0       0       0       0       0       0       0
       0       0       0       0       0       0       0       0       0       0
       0       0       0       0       0       0       0       0       0       0
       0       0       0       0       0       0       0       0       0       0
       0       0       0       0       0       0       0       0       0       0
       0       0       0       0       0       0       0       0       0       0
       0       0       0       0       0       0       0       0       0       0
       0       0       0       0       0       0       0       0       0       0
       0       0       0       0       0       0       0       0       0       0
       0       0       0       0       0       0       0       0       0       0
       0       0       0       0       0       0       0       0       0       0
       0       0       0       0       0       0       0       0       0       0
       0       0       0       0       0       0       0       0       0       0
       0       0       0       0       0       0       0       0       0       0
       0       0       0       0       0       0       0       0       0       0
       0       0       0       0       0       0       0       0       0       0
       0       0       0       0       0       0       0       0       0       0
       0       0       0       0       0       0       0       0       0       0
       0       0       0       0       0       0       0       0       0       0
       0       0       0       0       0       0       0       0       0       0
       0       0       0       0       0       0       0       0       0       0
       0       0       0       0       0       0       0       0       0       0
       0       0       0       0       0       0       0       0       0       0
       0       0       0       0       0       0       0       0       0       0
       0       0       0       0       0       0       0       0       0       0
       0       0       0       0       0       0       0       0       0       0
       0       0       0       0       0       0       0       0       0       0
       0       0       0       0       0       0       0       0       0       0
       0       0       0       0       0       0       0       0       0       0
       0       0       0       0       0       0       0       0       0       0
       0       0       0       0       0       0       0       0       0       0
       0       0       0       0       0       0       0       0       0       0
       0       0       0       0       0       0       0       0       0       0
       0       0       0       0       0       0       0       0       0       0
       0       0       0       0       0       0       0       0       0       0
       0       0       0       0       0       0       0       0       0       0
       0       0       0       0       0       0       0       0       0       0
       0       0       0       0       0       0       0       0       0       0
       0       0       0       0       0       0       0       0       0       0
       0       0       0       0       0       0       0       0       0       0
       0       0       0       0       0       0       0       0       0       0
       0       0       0       0       0       0       0       0       0       0
       0       0       0       0       0       0       0       0       0       0
       0       0       0       0       0       0       0       0       0       0
       0       0       0       0       0       0       0       0       0       0
       0       0       0       0       0       0       0       0       0       0
       0       0       0       0       0       0       0       0       0       0
       0       0       0       0       0       0       0       0       0       0
       0       0       0       0       0       0       0       0       0       0
       0       0       0       0       0       0       0       0       0       0
       0       0       0       0       0       0       0       0       0       0
       0       0       0       0       0       0       0       0       0       0
       0       0       0       0       0       0       0       0       0       0
       0       0       0       0       0       0       0       0       0       0
       0       0       0       0       0       0       0       0       0       0
       0       0       0       0       0       0       0       0       0       0
       0       0       0       0       0       0       0       0       0       0
       0       0       0       0       0       0       0       0       0       0
       0       0       0       0       0       0       0       0       0       0
       0       0       0       0       0       0       0       0       0       0
       0       0       0       0       0       0       0       0       0       0
       0       0       0       0       0       0       0       0       0       0
       0       0       0       0       0       0       0       0       0       0
       0       0       0       0       0       0       0       0       0       0
       0       0       0       0       0       0       0       0       0       0
       0       0       0       0       0       0       0       0       0       0
       0       0       0       0       0       0       0       0       0       0
       0       0       0       0       0       0       0       0       0       0
       0       0       0       0       0       0       0       0       0       0
       0       0       0       0       0       0       0       0       0       0
       0       0       0       0       0       0       0       0       0       0
       0       0       0       0       0       0       0       0       0       0
       0       0       0       0       0       0       0       0       0       0
       0       0       0       0       0       0       0       0       0       0
       0       0       0       0       0       0       0       0       0       0
       0       0       0       0       0       0       0       0       0       0
       0       0       0       0       0       0       0       0       0       0
       0       0       0       0       0       0       0       0       0       0
       0       0       0       0       0       0       0       0       0       0
       0       0       0       0       0       0       0       0       0       0
       0       0       0       0       0       0       0       0       0       0
       0       0       0       0       0       0       0       0       0       0
       0       0       0       0       0       0       0       0       0       0
       0       0       0       0       0       0       0       0       0       0
       0       0       0       0       0       0       0       0       0       0
       0       0       0       0       0       0       0       0       0       0
       0       0       0       0       0       0       0       0       0       0
       0       0       0       0       0       0       0       0       0       0
       0       0       0       0       0       0       0       0       0       0
       0       0       0       0       0       0       0       0       0       0
       0       0       0       0       0       0       0       0       0       0
       0       0       0       0       0       0       0       0       0       0
       0       0       0       0       0       0       0       0       0       0
       0       0       0       0       0       0       0       0       0       0
       0       0       0       0       0       0       0       0       0       0
       0       0       0       0       0       0       0       0       0       0
       0       0       0       0       0       0       0       0       0       0
       0       0       0       0       0       0       0       0       0       0
       0       0       0       0       0       0       0       0       0       0
       0       0       0       0       0       0       0       0       0       0
       0       0       0       0       0       0       0       0       0       0
       0       0       0       0       0       0       0       0       0       0
       0       0       0       0       0       0       0       0       0       0
       0       0       0       0       0       0       0       0       0       0
       0       0       0       0       0       0       0       0       0       0
       0       0       0       0       0       0       0       0       0       0
       0       0       0       0       0       0       0       0       0       0
       0       0       0       0       0       0       0       0       0       0
       0       0       0       0       0       0       0       0       0       0
       0       0       0       0       0       0       0       0       0       0
       0       0       0       0       0       0       0       0       0       0
       0       0       0       0       0       0       0       0       0       0
       0       0       0       0       0       0       0       0       0       0
       0       0       0       0       0       0       0       0       0       0
       0       0       0       0       0       0       0       0       0       0
       0       0       0       0       0       0       0       0       0       0
       0       0       0       0       0       0       0       0       0       0
       0       0       0       0       0       0       0       0       0       0
       0       0       0       0       0       0       0       0       0       0
       0       0       0       0       0       0       0       0       0       0
       0       0       0       0       0       0       0       0       0       0
       0       0       0       0       0       0       0       0       0       0
       0       0       0       0       0       0       0       0       0       0
       0       0       0       0       0       0       0       0       0       0
       0       0       0       0       0       0       0       0       0       0
       0       0       0       0       0       0       0       0       0       0
       0       0       0       0       0       0       0       0       0       0
       0       0       0       0       0       0       0       0       0       0
       0       0       0       0       0       0       0       0       0       0
       0       0       0       0       0       0       0       0       0       0
       0       0       0       0       0       0       0       0       0       0
       0       0       0       0       0       0       0       0       0       0
       0       0       0       0       0       0       0       0       0       0
       0       0       0       0       0       0       0       0       0       0
       0       0       0       0       0       0       0       0       0       0
       0       0       0       0       0       0       0       0       0       0
       0       0       0       0       0       0       0       0       0       0
       0       0       0       0       0       0       0       0       0       0
       0       0       0       0       0       0       0       0       0       0
       0       0       0       0       0       0       0       0       0       0
       0       0       0       0       0       0       0       0       0       0
       0       0       0       0       0       0       0       0       0       0
       0       0       0       0       0       0       0       0       0       0
       0       0       0       0       0       0       0       0       0       0
       0       0       0       0       0       0       0       0       0       0
       0       0       0       0       0       0       0       0       0       0
       0       0       0       0       0       0       0       0       0       0
       0       0       0       0       0       0       0       0       0       0
       0       0       0       0       0       0       0       0       0       0
       0       0       0       0       0       0       0       0       0       0
       0       0       0       0       0       0       0       0       0       0
       0       0       0       0       0       0       0       0       0       0
       0       0       0       0       0       0       0       0       0       0
       0       0       0       0       0       0       0       0       0       0
       0       0       0       0       0       0       0       0       0       0
       0       0       0       0       0       0       0       0       0       0
       0       0       0       0       0       0       0       0       0       0
       0       0       0       0       0       0       0       0       0       0
       0       0       0       0       0       0       0       0       0       0
       0       0       0       0       0       0       0       0       0       0
       0       0       0       0       0       0       0       0       0       0
       0       0       0       0       0       0       0       0       0       0
       0       0       0       0       0       0       0       0       0       0
       0       0       0       0       0       0       0       0       0       0
       0       0       0       0       0       0       0       0       0       0
       0       0       0       0       0       0       0       0       0       0
       0       0       0       0       0       0       0       0       0       0
       0       0       0       0       0       0       0       0       0       0
       0       0       0       0       0       0       0       0       0       0
       0       0       0       0       0       0       0       0       0       0
       0       0       0       0       0       0       0       0       0       0
       0       0       0       0       0       0       0       0       0       0
       0       0       0       0       0       0       0       0       0       0
       0       0       0       0       0       0       0       0       0       0
       0       0       0       0       0       0       0       0       0       0
       0       0       0       0       0       0       0       0       0       0
       0       0       0       0       0       0       0       0       0       0
       0       0       0       0       0       0       0       0       0       0
       0       0       0       0       0       0       0       0       0       0
       0       0       0       0       0       0       0       0       0       0
       0       0       0       0       0       0       0       0       0       0
       0       0       0       0       0       0       0       0       0       0
       0       0       0       0       0       0       0       0       0       0
       0       0       0       0       0       0       0       0       0       0
       0       0       0       0       0       0       0       0       0       0
       0       0       0       0       0       0       0       0       0       0
       0       0       0       0       0       0       0       0       0       0
       0       0       0       0       0       0       0       0       0       0
       0       0       0       0       0       0       0       0       0       0
       0       0       0       0       0       0       0       0       0       0
       0       0       0       0       0       0       0       0       0       0
       0       0       0       0       0       0       0       0       0       0
       0       0       0       0       0       0       0       0       0       0
       0       0       0       0       0       0       0       0       0       0
       0       0       0       0       0       0       0       0       0       0
       0       0       0       0       0       0       0       0       0       0
       0       0       0       0       0       0       0       0       0       0
       0       0       0       0       0       0       0       0       0       0
       0       0       0       0       0       0       0       0       0       0
       0       0       0       0       0       0       0       0       0       0
       0       0       0       0       0       0       0       0       0       0
       0       0       0       0       0       0       0       0       0       0
       0       0       0       0       0       0       0       0       0       0
       0       0       0       0       0       0       0       0       0       0
       0       0       0       0       0       0       0       0       0       0
       0       0       0       0       0       0       0       0       0       0
       0       0       0       0       0       0       0       0       0       0
       0       0       0       0       0       0       0       0       0       0
       0       0       0       0       0       0       0       0       0       0
       0       0       0       0       0       0       0       0       0       0
       0       0       0       0       0       0       0       0       0       0
       0       0       0       0       0       0       0       0       0       0
       0       0       0       0       0       0       0       0       0       0
       0       0       0       0       0       0       0       0       0       0
       0       0       0       0       0       0       0       0       0       0
       0       0       0       0       0       0       0       0       0       0
       0       0       0       0       0       0       0       0       0       0
       0       0       0       0       0       0       0       0       0       0
       0       0       0       0       0       0       0       0       0       0
       0       0       0       0       0       0       0       0       0       0
       0       0       0       0       0       0       0       0       0       0
       0       0       0       0       0       0       0       0       0       0
       0       0       0       0       0       0       0       0       0       0
       0       0       0       0       0       0       0       0       0       0
       0       0       0       0       0       0       0       0       0       0
       0       0       0       0       0       0       0       0       0       0
       0       0       0       0       0       0       0       0       0       0
       0       0       0       0       0       0       0       0       0       0
       0       0       0       0       0       0       0       0       0       0
       0       0       0       0       0       0       0       0       0       0
       0       0       0       0       0       0       0       0       0       0
       0       0       0       0       0       0       0       0       0       0
       0       0       0       0       0       0       0       0       0       0
       0       0       0       0       0       0       0       0       0       0
       0       0       0       0       0       0       0       0       0       0
       0       0       0       0       0       0       0       0       0       0
       0       0       0       0       0       0       0       0       0       0
       0       0       0       0       0       0       0       0       0       0
       0       0       0       0       0       0       0       0       0       0
       0       0       0       0       0       0       0       0       0       0
       0       0       0       0       0       0       0       0       0       0
       0       0       0       0       0       0       0       0       0       0
       0       0       0       0       0       0       0       0       0       0
       0       0       0       0       0       0       0       0       0       0
       0       0       0       0       0       0       0       0       0       0
       0       0       0       0       0       0       0       0       0       0
       0       0       0       0       0       0       0       0       0       0
       0       0       0       0       0       0       0       0       0       0
       0       0       0       0       0       0       0       0       0       0
       0       0       0       0       0       0       0       0       0       0
       0       0       0       0       0       0       0       0       0       0
       0       0       0       0       0       0       0       0       0       0
       0       0       0       0       0       0       0       0       0       0
       0       0       0       0       0       0       0       0       0       0
       0       0       0       0       0       0       0       0       0       0
       0       0       0       0       0       0       0       0       0       0
       0       0       0       0       0       0       0       0       0       0
       0       0       0       0       0       0       0       0       0       0
       0       0       0       0       0       0       0       0       0       0
       0       0       0       0       0       0       0       0       0       0
       0       0       0       0       0       0       0       0       0       0
       0       0       0       0       0       0       0       0       0       0
       0       0       0       0       0       0       0       0       0       0
       0       0       0       0       0       0       0       0       0       0
       0       0       0       0       0       0       0       0       0       0
       0       0       0       0       0       0       0       0       0       0
       0       0       0       0       0       0       0       0       0       0
       0       0       0       0       0       0       0       0       0       0
       0       0       0       0       0       0       0       0       0       0
       0       0       0       0       0       0       0       0       0       0
       0       0       0       0       0       0       0       0       0       0
       0       0       0       0       0       0       0       0       0       0
       0       0       0       0       0       0       0       0       0       0
       0       0       0       0       0       0       0       0       0       0
       0       0       0       0       0       0       0       0       0       0
       0       0       0       0       0       0       0       0       0       0
       0       0       0       0       0       0       0       0       0       0
       0       0       0       0       0       0       0       0       0       0
       0       0       0       0       0       0       0       0       0       0
       0       0       0       0       0       0       0       0       0       0
       0       0       0       0       0       0       0       0       0       0
       0       0       0       0       0       0       0       0       0       0
       0       0       0       0       0       0       0       0       0       0
       0       0       0       0       0       0       0       0       0       0
       0       0       0       0       0       0       0       0       0       0
       0       0       0       0       0       0       0       0       0       0
       0       0       0       0       0       0       0       0       0       0
       0       0       0       0       0       0       0       0       0       0
       0       0       0       0       0       0       0       0       0       0
       0       0       0       0       0       0       0       0       0       0
       0       0       0       0       0       0       0       0       0       0
       0       0       0       0       0       0       0       0       0       0
       0       0       0       0       0       0       0       0       0       0
       0       0       0       0       0       0       0       0       0       0
       0       0       0       0       0       0       0       0       0       0
       0       0       0       0       0       0       0       0       0       0
       0       0       0       0       0       0       0       0       0       0
       0       0       0       0       0       0       0       0       0       0
       0       0       0       0       0       0       0       0       0       0
       0       0       0       0       0       0       0       0       0       0
       0       0       0       0       0       0       0       0       0       0
       0       0       0       0       0       0       0       0       0       0
       0       0       0       0       0       0       0       0       0       0
       0       0       0       0       0       0       0       0       0       0
       0       0       0       0       0       0       0       0       0       0
       0       0       0       0       0       0       0       0       0       0
       0       0       0       0       0       0       0       0       0       0
       0       0       0       0       0       0       0       0       0       0
       0       0       0       0       0       0       0       0       0       0
       0       0       0       0       0       0       0       0       0       0
       0       0       0       0       0       0       0       0       0       0
       0       0       0       0       0       0       0       0       0       0
       0       0       0       0       0       0       0       0       0       0
       0       0       0       0       0       0       0       0       0       0
       0       0       0       0       0       0       0       0       0       0
       0       0       0       0       0       0       0       0       0       0
       0       0       0       0       0       0       0       0       0       0
       0       0       0       0       0       0       0       0       0       0
       0       0       0       0       0       0       0       0       0       0
       0       0       0       0       0       0       0       0       0       0
       0       0       0       0       0       0       0       0       0       0
       0       0       0       0       0       0       0       0       0       0
       0       0       0       0       0       0       0       0       0       0
       0       0       0       0       0       0       0       0       0       0
       0       0       0       0       0       0       0       0       0       0
       0       0       0       0       0       0       0       0       0       0
       0       0       0       0       0       0       0       0       0       0
       0       0       0       0       0       0       0       0       0       0
       0       0       0       0       0       0       0       0       0       0
       0       0       0       0       0       0       0       0       0       0
       0       0       0       0       0       0       0       0       0       0
       0       0       0       0       0       0       0       0       0       0
       0       0       0       0       0       0       0       0       0       0
       0       0       0       0       0       0       0       0       0       0
       0       0       0       0       0       0       0       0       0       0
       0       0       0       0       0       0       0       0       0       0
       0       0       0       0       0       0       0       0       0       0
       0       0       0       0       0       0       0       0       0       0
       0       0       0       0       0       0       0       0       0       0
       0       0       0       0       0       0       0       0       0       0
       0       0       0       0       0       0       0       0       0       0
       0       0       0       0       0       0       0       0       0       0
       0       0       0       0       0       0       0       0       0       0
       0       0       0       0       0       0       0       0       0       0
       0       0       0       0       0       0       0       0       0       0
       0       0       0       0       0       0       0       0       0       0
       0       0       0       0       0       0       0       0       0       0
       0       0       0       0       0       0       0       0       0       0
       0       0       0       0       0       0       0       0       0       0
       0       0       0       0       0       0       0       0       0       0
       0       0       0       0       0       0       0       0       0       0
       0       0       0       0       0       0       0       0       0       0
       0       0       0       0       0       0       0       0       0       0
       0       0       0       0       0       0       0       0       0       0
       0       0       0       0       0       0       0       0       0       0
       0       0       0       0       0       0       0       0       0       0
       0       0       0       0       0       0       0       0       0       0
       0       0       0       0       0       0       0       0       0       0
       0       0       0       0       0       0       0       0       0       0
       0       0       0       0       0       0       0       0       0       0
       0       0       0       0       0       0       0       0       0       0
       0       0       0       0       0       0       0       0       0       0
       0       0       0       0       0       0       0       0       0       0
       0       0       0       0       0       0       0       0       0       0
       0       0       0       0       0       0       0       0       0       0
       0       0       0       0       0       0       0       0       0       0
       0       0       0       0       0       0       0       0       0       0
       0       0       0       0       0       0       0       0       0       0
       0       0       0       0       0       0       0       0       0       0
       0       0       0       0       0       0       0       0       0       0
       0       0       0       0       0       0       0       0       0       0
       0       0       0       0       0       0       0       0       0       0
       0       0       0       0       0       0       0       0       0       0
       0       0       0       0       0       0       0       0       0       0
       0       0       0       0       0       0       0       0       0       0
       0       0       0       0       0       0       0       0       0       0
       0       0       0       0       0       0       0       0       0       0
       0       0       0       0       0       0       0       0       0       0
       0       0       0       0       0       0       0       0       0       0
       0       0       0       0       0       0       0       0       0       0
       0       0       0       0       0       0       0       0       0       0
       0       0       0       0       0       0       0       0       0       0
       0       0       0       0       0       0       0       0       0       0
       0       0       0       0       0       0       0       0       0       0
       0       0       0       0       0       0       0       0       0       0
       0       0       0       0       0       0       0       0       0       0
       0       0       0       0       0       0       0       0       0       0
       0       0       0       0       0       0       0       0       0       0
       0       0       0       0       0       0       0       0       0       0
       0       0       0       0       0       0       0       0       0       0
       0       0       0       0       0       0       0       0       0       0
       0       0       0       0       0       0       0       0       0       0
       0       0       0       0       0       0       0       0       0       0
       0       0       0       0       0       0       0       0       0       0
       0       0       0       0       0       0       0       0       0       0
       0       0       0       0       0       0       0       0       0       0
       0       0       0       0       0       0       0       0       0       0
       0       0       0       0       0       0       0       0       0       0
       0       0       0       0       0       0       0       0       0       0
       0       0       0       0       0       0       0       0       0       0
       0       0       0       0       0       0       0       0       0       0
       0       0       0       0       0       0       0       0       0       0
       0       0       0       0       0       0       0       0       0       0
       0       0       0       0       0       0       0       0       0       0
       0       0       0       0       0       0       0       0       0       0
       0       0       0       0       0       0       0       0       0       0
       0       0       0       0       0       0       0       0       0       0
       0       0       0       0       0       0       0       0       0       0
       0       0       0       0       0       0       0       0       0       0
       0       0       0       0       0       0       0       0       0       0
       0       0       0       0       0       0       0       0       0       0
       0       0       0       0       0       0       0       0       0       0
       0       0       0       0       0       0       0       0       0       0
       0       0       0       0       0       0       0       0       0       0
       0       0       0       0       0       0       0       0       0       0
       0       0       0       0       0       0       0       0       0       0
       0       0       0       0       0       0       0       0       0       0
       0       0       0       0       0       0       0       0       0       0
       0       0       0       0       0       0       0       0       0       0
       0       0       0       0       0       0       0       0       0       0
       0       0       0       0       0       0       0       0       0       0
       0       0       0       0       0       0       0       0       0       0
       0       0       0       0       0       0       0       0       0       0
       0       0       0       0       0       0       0       0       0       0
       0       0       0       0       0       0       0       0       0       0
       0       0       0       0       0       0       0       0       0       0
       0       0       0       0       0       0       0       0       0       0
       0       0       0       0       0       0       0       0       0       0
       0       0       0       0       0       0       0       0       0       0
       0       0       0       0       0       0       0       0       0       0
       0       0       0       0       0       0       0       0       0       0
       0       0       0       0       0       0       0       0       0       0
       0       0       0       0       0       0       0       0       0       0
       0       0       0       0       0       0       0       0       0       0
       0       0       0       0       0       0       0       0       0       0
       0       0       0       0       0       0       0       0       0       0
       0       0       0       0       0       0       0       0       0       0
       0       0       0       0       0       0       0       0       0       0
       0       0       0       0       0       0       0       0       0       0
       0       0       0       0       0       0       0       0       0       0
       0       0       0       0       0       0       0       0       0       0
       0       0       0       0       0       0       0       0       0       0
       0       0       0       0       0       0       0       0       0       0
       0       0       0       0       0       0       0       0       0       0
       0       0       0       0       0       0       0       0       0       0
       0       0       0       0       0       0       0       0       0       0
       0       0       0       0       0       0       0       0       0       0
       0       0       0       0       0       0       0       0       0       0
       0       0       0       0       0       0       0       0       0       0
       0       0       0       0       0       0       0       0       0       0
       0       0       0       0       0       0       0       0       0       0
       0       0       0       0       0       0       0       0       0       0
       0       0       0       0       0       0       0       0       0       0
       0       0       0       0       0       0       0       0       0       0
       0       0       0       0       0       0       0       0       0       0
       0       0       0       0       0       0       0       0       0       0
       0       0       0       0       0       0       0       0       0       0
       0       0       0       0       0       0       0       0       0       0
       0       0       0       0       0       0       0       0       0       0
       0       0       0       0       0       0       0       0       0       0
       0       0       0       0       0       0       0       0       0       0
       0       0       0       0       0       0       0       0       0       0
       0       0       0       0       0       0       0       0       0       0
       0       0       0       0       0       0       0       0       0       0
       0       0       0       0       0       0       0       0       0       0
       0       0       0       0       0       0       0       0       0       0
       0       0       0       0       0       0       0       0       0       0
       0       0       0       0       0       0       0       0       0       0
       0       0       0       0       0       0       0       0       0       0
       0       0       0       0       0       0       0       0       0       0
       0       0       0       0       0       0       0       0       0       0
       0       0       0       0       0       0       0       0       0       0
       0       0       0       0       0       0       0       0       0       0
       0       0       0       0       0       0       0       0       0       0
       0       0       0       0       0       0       0       0       0       0
       0       0       0       0       0       0       0       0       0       0
       0       0       0       0       0       0       0       0       0       0
       0       0       0       0       0       0       0       0       0       0
       0       0       0       0       0       0       0       0       0       0
       0       0       0       0       0       0       0       0       0       0
       0       0       0       0       0       0       0       0       0       0
       0       0       0       0       0       0       0       0       0       0
       0       0       0       0       0       0       0       0       0       0
       0       0       0       0       0       0       0       0       0       0
       0       0       0       0       0       0       0       0       0       0
       0       0       0       0       0       0       0       0       0       0
       0       0       0       0       0       0       0       0       0       0
       0       0       0       0       0       0       0       0       0       0
       0       0       0       0       0       0       0       0       0       0
       0       0       0       0       0       0       0       0       0       0
       0       0       0       0       0       0       0       0       0       0
       0       0       0       0       0       0       0       0       0       0
       0       0       0       0       0       0       0       0       0       0
       0       0       0       0       0       0       0       0       0       0
       0       0       0       0       0       0       0       0       0       0
       0       0       0       0       0       0       0       0       0       0
       0       0       0       0       0       0       0       0       0       0
       0       0       0       0       0       0       0       0       0       0
       0       0       0       0       0       0       0       0       0       0
       0       0       0       0       0       0       0       0       0       0
       0       0       0       0       0       0       0       0       0       0
       0       0       0       0       0       0       0       0       0       0
       0       0       0       0       0       0       0       0       0       0
       0       0       0       0       0       0       0       0       0       0
       0       0       0       0       0       0       0       0       0       0
       0       0       0       0       0       0       0       0       0       0
       0       0       0       0       0       0       0       0       0       0
       0       0       0       0       0       0       0       0       0       0
       0       0       0       0       0       0       0       0       0       0
       0       0       0       0       0       0       0       0       0       0
       0       0       0       0       0       0       0       0       0       0
       0       0       0       0       0       0       0       0       0       0
       0       0       0       0       0       0       0       0       0       0
       0       0       0       0       0       0       0       0       0       0
       0       0       0       0       0       0       0       0       0       0
       0       0       0       0       0       0       0       0       0       0
       0       0       0       0       0       0       0       0       0       0
       0       0       0       0       0       0       0       0       0       0
       0       0       0       0       0       0       0       0       0       0
       0       0       0       0       0       0       0       0       0       0
       0       0       0       0       0       0       0       0       0       0
       0       0       0       0       0       0       0       0       0       0
       0       0       0       0       0       0       0       0       0       0
       0       0       0       0       0       0       0       0       0       0
       0       0       0       0       0       0       0       0       0       0
       0       0       0       0       0       0       0       0       0       0
       0       0       0       0       0       0       0       0       0       0
       0       0       0       0       0       0       0       0       0       0
       0       0       0       0       0       0       0       0       0       0
       0       0       0       0       0       0       0       0       0       0
       0       0       0       0       0       0       0       0       0       0
       0       0       0       0       0       0       0       0       0       0
       0       0       0       0       0       0       0       0       0       0
       0       0       0       0       0       0       0       0       0       0
       0       0       0       0       0       0       0       0       0       0
       0       0       0       0       0       0       0       0       0       0
       0       0       0       0       0       0       0       0       0       0
       0       0       0       0       0       0       0       0       0       0
       0       0       0       0       0       0       0       0       0       0
       0       0       0       0       0       0       0       0       0       0
       0       0       0       0       0       0       0       0       0       0
       0       0       0       0       0       0       0       0       0       0
       0       0       0       0       0       0       0       0       0       0
       0       0       0       0       0       0       0       0       0       0
       0       0       0       0       0       0       0       0       0       0
       0       0       0       0       0       0       0       0       0       0
       0       0       0       0       0       0       0       0       0       0
       0       0       0       0       0       0       0       0       0       0
       0       0       0       0       0       0       0       0       0       0
       0       0       0       0       0       0       0       0       0       0
       0       0       0       0       0       0       0       0       0       0
       0       0       0       0       0       0       0       0       0       0
       0       0       0       0       0       0       0       0       0       0
       0       0       0       0       0       0       0       0       0       0
       0       0       0       0       0       0       0       0       0       0
       0       0       0       0       0       0       0       0       0       0
       0       0       0       0       0       0       0       0       0       0
       0       0       0       0       0       0       0       0       0       0
       0       0       0       0       0       0       0       0       0       0
       0       0       0       0       0       0       0       0       0       0
       0       0       0       0       0       0       0       0       0       0
       0       0       0       0       0       0       0       0       0       0
       0       0       0       0       0       0       0       0       0       0
       0       0       0       0       0       0       0       0       0       0
       0       0       0       0       0       0       0       0       0       0
       0       0       0       0       0       0       0       0       0       0
       0       0       0       0       0       0       0       0       0       0
       0       0       0       0       0       0       0       0       0       0
       0       0       0       0       0       0       0       0       0       0
       0       0       0       0       0       0       0       0       0       0
       0       0       0       0       0       0       0       0       0       0
       0       0       0       0       0       0       0       0       0       0
       0       0       0       0       0       0       0       0       0       0
       0       0       0       0       0       0       0       0       0       0
       0       0       0       0       0       0       0       0       0       0
       0       0       0       0       0       0       0       0       0       0
       0       0       0       0       0       0       0       0       0       0
       0       0       0       0       0       0       0       0       0       0
       0       0       0       0       0       0       0       0       0       0
       0       0       0       0       0       0       0       0       0       0
       0       0       0       0       0       0       0       0       0       0
       0       0       0       0       0       0       0       0       0       0
       0       0       0       0       0       0       0       0       0       0
       0       0       0       0       0       0       0       0       0       0
       0       0       0       0       0       0       0       0       0       0
       0       0       0       0       0       0       0       0       0       0
       0       0       0       0       0       0       0       0       0       0
       0       0       0       0       0       0       0       0       0       0
       0       0       0       0       0       0       0       0       0       0
       0       0       0       0       0       0       0       0       0       0
       0       0       0       0       0       0       0       0       0       0
       0       0       0       0       0       0       0       0       0       0
       0       0       0       0       0       0       0       0       0       0
       0       0       0       0       0       0       0       0       0       0
       0       0       0       0       0       0       0       0       0       0
       0       0       0       0       0       0       0       0       0       0
       0       0       0       0       0       0       0       0       0       0
       0       0       0       0       0       0       0       0       0       0
       0       0       0       0       0       0       0       0       0       0
       0       0       0       0       0       0       0       0       0       0
       0       0       0       0       0       0       0       0       0       0
       0       0       0       0       0       0       0       0       0       0
       0       0       0       0       0       0       0       0       0       0
       0       0       0       0       0       0       0       0       0       0
       0       0       0       0       0       0       0       0       0       0
       0       0       0       0       0       0       0       0       0       0
       0       0       0       0       0       0       0       0       0       0
       0       0       0       0       0       0       0       0       0       0
       0       0       0       0       0       0       0       0       0       0
       0       0       0       0       0       0       0       0       0       0
       0       0       0       0       0       0       0       0       0       0
       0       0       0       0       0       0       0       0       0       0
       0       0       0       0       0       0       0       0       0       0
       0       0       0       0       0       0       0       0       0       0
       0       0       0       0       0       0       0       0       0       0
       0       0       0       0       0       0       0       0       0       0
       0       0       0       0       0       0       0       0       0       0
       0       0       0       0       0       0       0       0       0       0
       0       0       0       0       0       0       0       0       0       0
       0       0       0       0       0       0       0       0       0       0
       0       0       0       0       0       0       0       0       0       0
       0       0       0       0       0       0       0       0       0       0
       0       0       0       0       0       0       0       0       0       0
       0       0       0       0       0       0       0       0       0       0
       0       0       0       0       0       0       0       0       0       0
       0       0       0       0       0       0       0       0       0       0
       0       0       0       0       0       0       0       0       0       0
       0       0       0       0       0       0       0       0       0       0
       0       0       0       0       0       0       0       0       0       0
       0       0       0       0       0       0       0       0       0       0
       0       0       0       0       0       0       0       0       0       0
       0       0       0       0       0       0       0       0       0       0
       0       0       0       0       0       0       0       0       0       0
       0       0       0       0       0       0       0       0       0       0
       0       0       0       0       0       0       0       0       0       0
       0       0       0       0       0       0       0       0       0       0
       0       0       0       0       0       0       0       0       0       0
       0       0       0       0       0       0       0       0       0       0
       0       0       0       0       0       0       0       0       0       0
       0       0       0       0       0       0       0       0       0       0
       0       0       0       0       0       0       0       0       0       0
       0       0       0       0       0       0       0       0       0       0
       0       0       0       0       0       0       0       0       0       0
       0       0       0       0       0       0       0       0       0       0
       0       0       0       0       0       0       0       0       0       0
       0       0       0       0       0       0       0       0       0       0
       0       0       0       0       0       0       0       0       0       0
       0       0       0       0       0       0       0       0       0       0
       0       0       0       0       0       0       0       0       0       0
       0       0       0       0       0       0       0       0       0       0
       0       0       0       0       0       0       0       0       0       0
       0       0       0       0       0       0       0       0       0       0
       0       0       0       0       0       0       0       0       0       0
       0       0       0       0       0       0       0       0       0       0
       0       0       0       0       0       0       0       0       0       0
       0       0       0       0       0       0       0       0       0       0
       0       0       0       0       0       0       0       0       0       0
       0       0       0       0       0       0       0       0       0       0
       0       0       0       0       0       0       0       0       0       0
       0       0       0       0       0       0       0       0       0       0
       0       0       0       0       0       0       0       0       0       0
       0       0       0       0       0       0       0       0       0       0
       0       0       0       0       0       0       0       0       0       0
       0       0       0       0       0       0       0       0       0       0
       0       0       0       0       0       0       0       0       0       0
       0       0       0       0       0       0       0       0       0       0
       0       0       0       0       0       0       0       0       0       0
       0       0       0       0       0       0       0       0       0       0
       0       0       0       0       0       0       0       0       0       0
       0       0       0       0       0       0       0       0       0       0
       0       0       0       0       0       0       0       0       0       0
       0       0       0       0       0       0       0       0       0       0
       0       0       0       0       0       0       0       0       0       0
       0       0       0       0       0       0       0       0       0       0
       0       0       0       0       0       0       0       0       0       0
       0       0       0       0       0       0       0       0       0       0
       0       0       0       0       0       0       0       0       0       0
       0       0       0       0       0       0       0       0       0       0
       0       0       0       0       0       0       0       0       0       0
       0       0       0       0       0       0       0       0       0       0
       0       0       0       0       0       0       0       0       0       0
       0       0       0       0       0       0       0       0       0       0
       0       0       0       0       0       0       0       0       0       0
       0       0       0       0       0       0       0       0       0       0
       0       0       0       0       0       0       0       0       0       0
       0       0       0       0       0       0       0       0       0       0
       0       0       0       0       0       0       0       0       0       0
       0       0       0       0       0       0       0       0       0       0
       0       0       0       0       0       0       0       0       0       0
       0       0       0       0       0       0       0       0       0       0
       0       0       0       0       0       0       0       0       0       0
       0       0       0       0       0       0       0       0       0       0
       0       0       0       0       0       0       0       0       0       0
       0       0       0       0       0       0       0       0       0       0
       0       0       0       0       0       0       0       0       0       0
       0       0       0       0       0       0       0       0       0       0
       0       0       0       0       0       0       0       0       0       0
       0       0       0       0       0       0       0       0       0       0
       0       0       0       0       0       0       0       0       0       0
       0       0       0       0       0       0       0       0       0       0
       0       0       0       0       0       0       0       0       0       0
       0       0       0       0       0       0       0       0       0       0
       0       0       0       0       0       0       0       0       0       0
       0       0       0       0       0       0       0       0       0       0
       0       0       0       0       0       0       0       0       0       0
       0       0       0       0       0       0       0       0       0       0
       0       0       0       0       0       0       0       0       0       0
       0       0       0       0       0       0       0       0       0       0
       0       0       0       0       0       0       0       0       0       0
       0       0       0       0       0       0       0       0       0       0
       0       0       0       0       0       0       0       0       0       0
       0       0       0       0       0       0       0       0       0       0
       0       0       0       0       0       0       0       0       0       0
       0       0       0       0       0       0       0       0       0       0
       0       0       0       0       0       0       0       0       0       0
       0       0       0       0       0       0       0       0       0       0
       0       0       0       0       0       0       0       0       0       0
       0       0       0       0       0       0       0       0       0       0
       0       0       0       0       0       0       0       0       0       0
       0       0       0       0       0       0       0       0       0       0
       0       0       0       0       0       0       0       0       0       0
       0       0       0       0       0       0       0       0       0       0
       0       0       0       0       0       0       0       0       0       0
       0       0       0       0       0       0       0       0       0       0
       0       0       0       0       0       0       0       0       0       0
       0       0       0       0       0       0       0       0       0       0
       0       0       0       0       0       0       0       0       0       0
       0       0       0       0       0       0       0       0       0       0
       0       0       0       0       0       0       0       0       0       0
       0       0       0       0       0       0       0       0       0       0
       0       0       0       0       0       0       0       0       0       0
       0       0       0       0       0       0       0       0       0       0
       0       0       0       0       0       0       0       0       0       0
       0       0       0       0       0       0       0       0       0       0
       0       0       0       0       0       0       0       0       0       0
       0       0       0       0       0       0       0       0       0       0
       0       0       0       0       0       0       0       0       0       0
       0       0       0       0       0       0       0       0       0       0
       0       0       0       0       0       0       0       0       0       0
       0       0       0       0       0       0       0       0       0       0
       0       0       0       0       0       0       0       0       0       0
       0       0       0       0       0       0       0       0       0       0
       0       0       0       0       0       0       0       0       0       0
       0       0       0       0       0       0       0       0       0       0
       0       0       0       0       0       0       0       0       0       0
       0       0       0       0       0       0       0       0       0       0
       0       0       0       0       0       0       0       0       0       0
       0       0       0       0       0       0       0       0       0       0
       0       0       0       0       0       0       0       0       0       0
       0       0       0       0       0       0       0       0       0       0
       0       0       0       0       0       0       0       0       0       0
       0       0       0       0       0       0       0       0       0       0
       0       0       0       0       0       0       0       0       0       0
       0       0       0       0       0       0       0       0       0       0
       0       0       0       0       0       0       0       0       0       0
       0       0       0       0       0       0       0       0       0       0
       0       0       0       0       0       0       0       0       0       0
       0       0       0       0       0       0       0       0       0       0
       0       0       0       0       0       0       0       0       0       0
       0       0       0       0       0       0       0       0       0       0
       0       0       0       0       0       0       0       0       0       0
       0       0       0       0       0       0       0       0       0       0
       0       0       0       0       0       0       0       0       0       0
       0       0       0       0       0       0       0       0       0       0
       0       0       0       0       0       0       0       0       0       0
       0       0       0       0       0       0       0       0       0       0
       0       0       0       0       0       0       0       0       0       0
       0       0       0       0       0       0       0       0       0       0
       0       0       0       0       0       0       0       0       0       0
       0       0       0       0       0       0       0       0       0       0
       0       0       0       0       0       0       0       0       0       0
       0       0       0       0       0       0       0       0       0       0
       0       0       0       0       0       0       0       0       0       0
       0       0       0       0       0       0       0       0       0       0
       0       0       0       0       0       0       0       0       0       0
       0       0       0       0       0       0       0       0       0       0
       0       0       0       0       0       0       0       0       0       0
       0       0       0       0       0       0       0       0       0       0
       0       0       0       0       0       0       0       0       0       0
       0       0       0       0       0       0       0       0       0       0
       0       0       0       0       0       0       0       0       0       0
       0       0       0       0       0       0       0       0       0       0
       0       0       0       0       0       0       0       0       0       0
       0       0       0       0       0       0       0       0       0       0
       0       0       0       0       0       0       0       0       0       0
       0       0       0       0       0       0       0       0       0       0
       0       0       0       0       0       0       0       0       0       0
       0       0       0       0       0       0       0       0       0       0
       0       0       0       0       0       0       0       0       0       0
       0       0       0       0       0       0       0       0       0       0
       0       0       0       0       0       0       0       0       0       0
       0       0       0       0       0       0       0       0       0       0
       0       0       0       0       0       0       0       0       0       0
       0       0       0       0       0       0       0       0       0       0
       0       0       0       0       0       0       0       0       0       0
       0       0       0       0       0       0       0       0       0       0
       0       0       0       0       0       0       0       0       0       0
       0       0       0       0       0       0       0       0       0       0
       0       0       0       0       0       0       0       0       0       0
       0       0       0       0       0       0       0       0       0       0
       0       0       0       0       0       0       0       0       0       0
       0       0       0       0       0       0       0       0       0       0
       0       0       0       0       0       0       0       0       0       0
       0       0       0       0       0       0       0       0       0       0
       0       0       0       0       0       0       0       0       0       0
       0       0       0       0       0       0       0       0       0       0
       0       0       0       0       0       0       0       0       0       0
       0       0       0       0       0       0       0       0       0       0
       0       0       0       0       0       0       0       0       0       0
       0       0       0       0       0       0       0       0       0       0
       0       0       0       0       0       0       0       0       0       0
       0       0       0       0       0       0       0       0       0       0
       0       0       0       0       0       0       0       0       0       0
       0       0       0       0       0       0       0       0       0       0
       0       0       0       0       0       0       0       0       0       0
       0       0       0       0       0       0       0       0       0       0
       0       0       0       0       0       0       0       0       0       0
       0       0       0       0       0       0       0       0       0       0
       0       0       0       0       0       0       0       0       0       0
       0       0       0       0       0       0       0       0       0       0
       0       0       0       0       0       0       0       0       0       0
       0       0       0       0       0       0       0       0       0       0
       0       0       0       0       0       0       0       0       0       0
       0       0       0       0       0       0       0       0       0       0
       0       0       0       0       0       0       0       0       0       0
       0       0       0       0       0       0       0       0       0       0
       0       0       0       0       0       0       0       0       0       0
       0       0       0       0       0       0       0       0       0       0
       0       0       0       0       0       0       0       0       0       0
       0       0       0       0       0       0       0       0       0       0
       0       0       0       0       0       0       0       0       0       0
       0       0       0       0       0       0       0       0       0       0
       0       0       0       0       0       0       0       0       0       0
       0       0       0       0       0       0       0       0       0       0
       0       0       0       0       0       0       0       0       0       0
       0       0       0       0       0       0       0       0       0       0
       0       0       0       0       0       0       0       0       0       0
       0       0       0       0       0       0       0       0       0       0
       0       0       0       0       0       0       0       0       0       0
       0       0       0       0       0       0       0       0       0       0
       0       0       0       0       0       0       0       0       0       0
       0       0       0       0       0       0       0       0       0       0
       0       0       0       0       0       0       0       0       0       0
       0       0       0       0       0       0       0       0       0       0
       0       0       0       0       0       0       0       0       0       0
       0       0       0       0       0       0       0       0       0       0
       0       0       0       0       0       0       0       0       0       0
       0       0       0       0       0       0       0       0       0       0
       0       0       0       0       0       0       0       0       0       0
       0       0       0       0       0       0       0       0       0       0
       0       0       0       0       0       0       0       0       0       0
       0       0       0       0       0       0       0       0       0       0
       0       0       0       0       0       0       0       0       0       0
       0       0       0       0       0       0       0       0       0       0
       0       0       0       0       0       0       0       0       0       0
       0       0       0       0       0       0       0       0       0       0
       0       0       0       0       0       0       0       0       0       0
       0       0       0       0       0       0       0       0       0       0
       0       0       0       0       0       0       0       0       0       0
       0       0       0       0       0       0       0       0       0       0
       0       0       0       0       0       0       0       0       0       0
       0       0       0       0       0       0       0       0       0       0
       0       0       0       0       0       0       0       0       0       0
       0       0       0       0       0       0       0       0       0       0
       0       0       0       0       0       0       0       0       0       0
       0       0       0       0       0       0       0       0       0       0
       0       0       0       0       0       0       0       0       0       0
       0       0       0       0       0       0       0       0       0       0
       0       0       0       0       0       0       0       0       0       0
       0       0       0       0       0       0       0       0       0       0
       0       0       0       0       0       0       0       0       0       0
       0       0       0       0       0       0       0       0       0       0
       0       0       0       0       0       0       0       0       0       0
       0       0       0       0       0       0       0       0       0       0
       0       0       0       0       0       0       0       0       0       0
       0       0       0       0       0       0       0       0       0       0
       0       0       0       0       0       0       0       0       0       0
       0       0       0       0       0       0       0       0       0       0
       0       0       0       0       0       0       0       0       0       0
       0       0       0       0       0       0       0       0       0       0
       0       0       0       0       0       0       0       0       0       0
       0       0       0       0       0       0       0       0       0       0
       0       0       0       0       0       0       0       0       0       0
       0       0       0       0       0       0       0       0       0       0
       0       0       0       0       0       0       0       0       0       0
       0       0       0       0       0       0       0       0       0       0
       0       0       0       0       0       0       0       0       0       0
       0       0       0       0       0       0       0       0       0       0
       0       0       0       0       0       0       0       0       0       0
       0       0       0       0       0       0       0       0       0       0
       0       0       0       0       0       0       0       0       0       0
       0       0       0       0       0       0       0       0       0       0
       0       0       0       0       0       0       0       0       0       0
       0       0       0       0       0       0       0       0       0       0
       0       0       0       0       0       0       0       0       0       0
       0       0       0       0       0       0       0       0       0       0
       0       0       0       0       0       0       0       0       0       0
       0       0       0       0       0       0       0       0       0       0
       0       0       0       0       0       0       0       0       0       0
       0       0       0       0       0       0       0       0       0       0
       0       0       0       0       0       0       0       0       0       0
       0       0       0       0       0       0       0       0       0       0
       0       0       0       0       0       0       0       0       0       0
       0       0       0       0       0       0       0       0       0       0
       0       0       0       0       0       0       0       0       0       0
       0       0       0       0       0       0       0       0       0       0
       0       0       0       0       0       0       0       0       0       0
       0       0       0       0       0       0       0       0       0       0
       0       0       0       0       0       0       0       0       0       0
       0       0       0       0       0       0       0       0       0       0
       0       0       0       0       0       0       0       0       0       0
       0       0       0       0       0       0       0       0       0       0
       0       0       0       0       0       0       0       0       0       0
       0       0       0       0       0       0       0       0       0       0
       0       0       0       0       0       0       0       0       0       0
       0       0       0       0       0       0       0       0       0       0
       0       0       0       0       0       0       0       0       0       0
       0       0       0       0       0       0       0       0       0       0
       0       0       0       0       0       0       0       0       0       0
       0       0       0       0       0       0       0       0       0       0
       0       0       0       0       0       0       0       0       0       0
       0       0       0       0       0       0       0       0       0       0
       0       0       0       0       0       0       0       0       0       0
       0       0       0       0       0       0       0       0       0       0
       0       0       0       0       0       0       0       0       0       0
       0       0       0       0       0       0       0       0       0       0
       0       0       0       0       0       0       0       0       0       0
       0       0       0       0       0       0       0       0       0       0
       0       0       0       0       0       0       0       0       0       0
       0       0       0       0       0       0       0       0       0       0
       0       0       0       0       0       0       0       0       0       0
       0       0       0       0       0       0       0       0       0       0
       0       0       0       0       0       0       0       0       0       0
       0       0       0       0       0       0       0       0       0       0
       0       0       0       0       0       0       0       0       0       0
       0       0       0       0       0       0       0       0       0       0
       0       0       0       0       0       0       0       0       0       0
       0       0       0       0       0       0       0       0       0       0
       0       0       0       0       0       0       0       0       0       0
       0       0       0       0       0       0       0       0       0       0
       0       0       0       0       0       0       0       0       0       0
       0       0       0       0       0       0       0       0       0
%FLAG SOLVENT_POINTERS                                                          
%FORMAT(3I8)                                                                    
      77   12855      46
%FLAG ATOMS_PER_MOLECULE                                                        
%FORMAT(10I8)                                                                   
     485       1       1       1       1       1       1       1       1       1
       1       1       1       1       1       1       1       1       1       1
       1       1       1       1       1       1       1       1       1       1
       1       1       1       1       1       1       1       1       1       1
       1       1       1       1       1       4       4       4       4       4
       4       4       4       4       4       4       4       4       4       4
       4       4       4       4       4       4       4       4       4       4
       4       4       4       4       4       4       4       4       4       4
       4       4       4       4       4       4       4       4       4       4
       4       4       4       4       4       4       4       4       4       4
       4       4       4       4       4       4       4       4       4       4
       4       4       4       4       4       4       4       4       4       4
       4       4       4       4       4       4       4       4       4       4
       4       4       4       4       4       4       4       4       4       4
       4       4       4       4       4       4       4       4       4       4
       4       4       4       4       4       4       4       4       4       4
       4       4       4       4       4       4       4       4       4       4
       4       4       4       4       4       4       4       4       4       4
       4       4       4       4       4       4       4       4       4       4
       4       4       4       4       4       4       4       4       4       4
       4       4       4       4       4       4       4       4       4       4
       4       4       4       4       4       4       4       4       4       4
       4       4       4       4       4       4       4       4       4       4
       4       4       4       4       4       4       4       4       4       4
       4       4       4       4       4       4       4       4       4       4
       4       4       4       4       4       4       4       4       4       4
       4       4       4       4       4       4       4       4       4       4
       4       4       4       4       4       4       4       4       4       4
       4       4       4       4       4       4       4       4       4       4
       4       4       4       4       4       4       4       4       4       4
       4       4       4       4       4       4       4       4       4       4
       4       4       4       4       4       4       4       4       4       4
       4       4       4       4       4       4       4       4       4       4
       4       4       4       4       4       4       4       4       4       4
       4       4       4       4       4       4       4       4       4       4
       4       4       4       4       4       4       4       4       4       4
       4       4       4       4       4       4       4       4       4       4
       4       4       4       4       4       4       4       4       4       4
       4       4       4       4       4       4       4       4       4       4
       4       4       4       4       4       4       4       4       4       4
       4       4       4       4       4       4       4       4       4       4
       4       4       4       4       4       4       4       4       4       4
       4       4       4       4       4       4       4       4       4       4
       4       4       4       4       4       4       4       4       4       4
       4       4       4       4       4       4       4       4       4       4
       4       4       4       4       4       4       4       4       4       4
       4       4       4       4       4       4       4       4       4       4
       4       4       4       4       4       4       4       4       4       4
       4       4       4       4       4       4       4       4       4       4
       4       4       4       4       4       4       4       4       4       4
       4       4       4       4       4       4       4       4       4       4
       4       4       4       4       4       4       4       4       4       4
       4       4       4       4       4       4       4       4       4       4
       4       4       4       4       4       4       4       4       4       4
       4       4       4       4       4       4       4       4       4       4
       4       4       4       4       4       4       4       4       4       4
       4       4       4       4       4       4       4       4       4       4
       4       4       4       4       4       4       4       4       4       4
       4       4       4       4       4       4       4       4       4       4
       4       4       4       4       4       4       4       4       4       4
       4       4       4       4       4       4       4       4       4       4
       4       4       4       4       4       4       4       4       4       4
       4       4       4       4       4       4       4       4       4       4
       4       4       4       4       4       4       4       4       4       4
       4       4       4       4       4       4       4       4       4       4
       4       4       4       4       4       4       4       4       4       4
       4       4       4       4       4       4       4       4       4       4
       4       4       4       4       4       4       4       4       4       4
       4       4       4       4       4       4       4       4       4       4
       4       4       4       4       4       4       4       4       4       4
       4       4       4       4       4       4       4       4       4       4
       4       4       4       4       4       4       4       4       4       4
       4       4       4       4       4       4       4       4       4       4
       4       4       4       4       4       4       4       4       4       4
       4       4       4       4       4       4       4       4       4       4
       4       4       4       4       4       4       4       4       4       4
       4       4       4       4       4       4       4       4       4       4
       4       4       4       4       4       4       4       4       4       4
       4       4       4       4       4       4       4       4       4       4
       4       4       4       4       4       4       4       4       4       4
       4       4       4       4       4       4       4       4       4       4
       4       4       4       4       4       4       4       4       4       4
       4       4       4       4       4       4       4       4       4       4
       4       4       4       4       4       4       4       4       4       4
       4       4       4       4       4       4       4       4       4       4
       4       4       4       4       4       4       4       4       4       4
       4       4       4       4       4       4       4       4       4       4
       4       4       4       4       4       4       4       4       4       4
       4       4       4       4       4       4       4       4       4       4
       4       4       4       4       4       4       4       4       4       4
       4       4       4       4       4       4       4       4       4       4
       4       4       4       4       4       4       4       4       4       4
       4       4       4       4       4       4       4       4       4       4
       4       4       4       4       4       4       4       4       4       4
       4       4       4       4       4       4       4       4       4       4
       4       4       4       4       4       4       4       4       4       4
       4       4       4       4       4       4       4       4       4       4
       4       4       4       4       4       4       4       4       4       4
       4       4       4       4       4       4       4       4       4       4
       4       4       4       4       4       4       4       4       4       4
       4       4       4       4       4       4       4       4       4       4
       4       4       4       4       4       4       4       4       4       4
       4       4       4       4       4       4       4       4       4       4
       4       4       4       4       4       4       4       4       4       4
       4       4       4       4       4       4       4       4       4       4
       4       4       4       4       4       4       4       4       4       4
       4       4       4       4       4       4       4       4       4       4
       4       4       4       4       4       4       4       4       4       4
       4       4       4       4       4       4       4       4       4       4
       4       4       4       4       4       4       4       4       4       4
       4       4       4       4       4       4       4       4       4       4
       4       4       4       4       4       4       4       4       4       4
       4       4       4       4       4       4       4       4       4       4
       4       4       4       4       4       4       4       4       4       4
       4       4       4       4       4       4       4       4       4       4
       4       4       4       4       4       4       4       4       4       4
       4       4       4       4       4       4       4       4       4       4
       4       4       4       4       4       4       4       4       4       4
       4       4       4       4       4       4       4       4       4       4
       4       4       4       4       4       4       4       4       4       4
       4       4       4       4       4       4       4       4       4       4
       4       4       4       4       4       4       4       4       4       4
       4       4       4       4       4       4       4       4       4       4
       4       4       4       4       4       4       4       4       4       4
       4       4       4       4       4       4       4       4       4       4
       4       4       4       4       4       4       4       4       4       4
       4       4       4       4       4       4       4       4       4       4
       4       4       4       4       4       4       4       4       4       4
       4       4       4       4       4       4       4       4       4       4
       4       4       4       4       4       4       4       4       4       4
       4       4       4       4       4       4       4       4       4       4
       4       4       4       4       4       4       4       4       4       4
       4       4       4       4       4       4       4       4       4       4
       4       4       4       4       4       4       4       4       4       4
       4       4       4       4       4       4       4       4       4       4
       4       4       4       4       4       4       4       4       4       4
       4       4       4       4       4       4       4       4       4       4
       4       4       4       4       4       4       4       4       4       4
       4       4       4       4       4       4       4       4       4       4
       4       4       4       4       4       4       4       4       4       4
       4       4       4       4       4       4       4       4       4       4
       4       4       4       4       4       4       4       4       4       4
       4       4       4       4       4       4       4       4       4       4
       4       4       4       4       4       4       4       4       4       4
       4       4       4       4       4       4       4       4       4       4
       4       4       4       4       4       4       4       4       4       4
       4       4       4       4       4       4       4       4       4       4
       4       4       4       4       4       4       4       4       4       4
       4       4       4       4       4       4       4       4       4       4
       4       4       4       4       4       4       4       4       4       4
       4       4       4       4       4       4       4       4       4       4
       4       4       4       4       4       4       4       4       4       4
       4       4       4       4       4       4       4       4       4       4
       4       4       4       4       4       4       4       4       4       4
       4       4       4       4       4       4       4       4       4       4
       4       4       4       4       4       4       4       4       4       4
       4       4       4       4       4       4       4       4       4       4
       4       4       4       4       4       4       4       4       4       4
       4       4       4       4       4       4       4       4       4       4
       4       4       4       4       4       4       4       4       4       4
       4       4       4       4       4       4       4       4       4       4
       4       4       4       4       4       4       4       4       4       4
       4       4       4       4       4       4       4       4       4       4
       4       4       4       4       4       4       4       4       4       4
       4       4       4       4       4       4       4       4       4       4
       4       4       4       4       4       4       4       4       4       4
       4       4       4       4       4       4       4       4       4       4
       4       4       4       4       4       4       4       4       4       4
       4       4       4       4       4       4       4       4       4       4
       4       4       4       4       4       4       4       4       4       4
       4       4       4       4       4       4       4       4       4       4
       4       4       4       4       4       4       4       4       4       4
       4       4       4       4       4       4       4       4       4       4
       4       4       4       4       4       4       4       4       4       4
       4       4       4       4       4       4       4       4       4       4
       4       4       4       4       4       4       4       4       4       4
       4       4       4       4       4       4       4       4       4       4
       4       4       4       4       4       4       4       4       4       4
       4       4       4       4       4       4       4       4       4       4
       4       4       4       4       4       4       4       4       4       4
       4       4       4       4       4       4       4       4       4       4
       4       4       4       4       4       4       4       4       4       4
       4       4       4       4       4       4       4       4       4       4
       4       4       4       4       4       4       4       4       4       4
       4       4       4       4       4       4       4       4       4       4
       4       4       4       4       4       4       4       4       4       4
       4       4       4       4       4       4       4       4       4       4
       4       4       4       4       4       4       4       4       4       4
       4       4       4       4       4       4       4       4       4       4
       4       4       4       4       4       4       4       4       4       4
       4       4       4       4       4       4       4       4       4       4
       4       4       4       4       4       4       4       4       4       4
       4       4       4       4       4       4       4       4       4       4
       4       4       4       4       4       4       4       4       4       4
       4       4       4       4       4       4       4       4       4       4
       4       4       4       4       4       4       4       4       4       4
       4       4       4       4       4       4       4       4       4       4
       4       4       4       4       4       4       4       4       4       4
       4       4       4       4       4       4       4       4       4       4
       4       4       4       4       4       4       4       4       4       4
       4       4       4       4       4       4       4       4       4       4
       4       4       4       4       4       4       4       4       4       4
       4       4       4       4       4       4       4       4       4       4
       4       4       4       4       4       4       4       4       4       4
       4       4       4       4       4       4       4       4       4       4
       4       4       4       4       4       4       4       4       4       4
       4       4       4       4       4       4       4       4       4       4
       4       4       4       4       4       4       4       4       4       4
       4       4       4       4       4       4       4       4       4       4
       4       4       4       4       4       4       4       4       4       4
       4       4       4       4       4       4       4       4       4       4
       4       4       4       4       4       4       4       4       4       4
       4       4       4       4       4       4       4       4       4       4
       4       4       4       4       4       4       4       4       4       4
       4       4       4       4       4       4       4       4       4       4
       4       4       4       4       4       4       4       4       4       4
       4       4       4       4       4       4       4       4       4       4
       4       4       4       4       4       4       4       4       4       4
       4       4       4       4       4       4       4       4       4       4
       4       4       4       4       4       4       4       4       4       4
       4       4       4       4       4       4       4       4       4       4
       4       4       4       4       4       4       4       4       4       4
       4       4       4       4       4       4       4       4       4       4
       4       4       4       4       4       4       4       4       4       4
       4       4       4       4       4       4       4       4       4       4
       4       4       4       4       4       4       4       4       4       4
       4       4       4       4       4       4       4       4       4       4
       4       4       4       4       4       4       4       4       4       4
       4       4       4       4       4       4       4       4       4       4
       4       4       4       4       4       4       4       4       4       4
       4       4       4       4       4       4       4       4       4       4
       4       4       4       4       4       4       4       4       4       4
       4       4       4       4       4       4       4       4       4       4
       4       4       4       4       4       4       4       4       4       4
       4       4       4       4       4       4       4       4       4       4
       4       4       4       4       4       4       4       4       4       4
       4       4       4       4       4       4       4       4       4       4
       4       4       4       4       4       4       4       4       4       4
       4       4       4       4       4       4       4       4       4       4
       4       4       4       4       4       4       4       4       4       4
       4       4       4       4       4       4       4       4       4       4
       4       4       4       4       4       4       4       4       4       4
       4       4       4       4       4       4       4       4       4       4
       4       4       4       4       4       4       4       4       4       4
       4       4       4       4       4       4       4       4       4       4
       4       4       4       4       4       4       4       4       4       4
       4       4       4       4       4       4       4       4       4       4
       4       4       4       4       4       4       4       4       4       4
       4       4       4       4       4       4       4       4       4       4
       4       4       4       4       4       4       4       4       4       4
       4       4       4       4       4       4       4       4       4       4
       4       4       4       4       4       4       4       4       4       4
       4       4       4       4       4       4       4       4       4       4
       4       4       4       4       4       4       4       4       4       4
       4       4       4       4       4       4       4       4       4       4
       4       4       4       4       4       4       4       4       4       4
       4       4       4       4       4       4       4       4       4       4
       4       4       4       4       4       4       4       4       4       4
       4       4       4       4       4       4       4       4       4       4
       4       4       4       4       4       4       4       4       4       4
       4       4       4       4       4       4       4       4       4       4
       4       4       4       4       4       4       4       4       4       4
       4       4       4       4       4       4       4       4       4       4
       4       4       4       4       4       4       4       4       4       4
       4       4       4       4       4       4       4       4       4       4
       4       4       4       4       4       4       4       4       4       4
       4       4       4       4       4       4       4       4       4       4
       4       4       4       4       4       4       4       4       4       4
       4       4       4       4       4       4       4       4       4       4
       4       4       4       4       4       4       4       4       4       4
       4       4       4       4       4       4       4       4       4       4
       4       4       4       4       4       4       4       4       4       4
       4       4       4       4       4       4       4       4       4       4
       4       4       4       4       4       4       4       4       4       4
       4       4       4       4       4       4       4       4       4       4
       4       4       4       4       4       4       4       4       4       4
       4       4       4       4       4       4       4       4       4       4
       4       4       4       4       4       4       4       4       4       4
       4       4       4       4       4       4       4       4       4       4
       4       4       4       4       4       4       4       4       4       4
       4       4       4       4       4       4       4       4       4       4
       4       4       4       4       4       4       4       4       4       4
       4       4       4       4       4       4       4       4       4       4
       4       4       4       4       4       4       4       4       4       4
       4       4       4       4       4       4       4       4       4       4
       4       4       4       4       4       4       4       4       4       4
       4       4       4       4       4       4       4       4       4       4
       4       4       4       4       4       4       4       4       4       4
       4       4       4       4       4       4       4       4       4       4
       4       4       4       4       4       4       4       4       4       4
       4       4       4       4       4       4       4       4       4       4
       4       4       4       4       4       4       4       4       4       4
       4       4       4       4       4       4       4       4       4       4
       4       4       4       4       4       4       4       4       4       4
       4       4       4       4       4       4       4       4       4       4
       4       4       4       4       4       4       4       4       4       4
       4       4       4       4       4       4       4       4       4       4
       4       4       4       4       4       4       4       4       4       4
       4       4       4       4       4       4       4       4       4       4
       4       4       4       4       4       4       4       4       4       4
       4       4       4       4       4       4       4       4       4       4
       4       4       4       4       4       4       4       4       4       4
       4       4       4       4       4       4       4       4       4       4
       4       4       4       4       4       4       4       4       4       4
       4       4       4       4       4       4       4       4       4       4
       4       4       4       4       4       4       4       4       4       4
       4       4       4       4       4       4       4       4       4       4
       4       4       4       4       4       4       4       4       4       4
       4       4       4       4       4       4       4       4       4       4
       4       4       4       4       4       4       4       4       4       4
       4       4       4       4       4       4       4       4       4       4
       4       4       4       4       4       4       4       4       4       4
       4       4       4       4       4       4       4       4       4       4
       4       4       4       4       4       4       4       4       4       4
       4       4       4       4       4       4       4       4       4       4
       4       4       4       4       4       4       4       4       4       4
       4       4       4       4       4       4       4       4       4       4
       4       4       4       4       4       4       4       4       4       4
       4       4       4       4       4       4       4       4       4       4
       4       4       4       4       4       4       4       4       4       4
       4       4       4       4       4       4       4       4       4       4
       4       4       4       4       4       4       4       4       4       4
       4       4       4       4       4       4       4       4       4       4
       4       4       4       4       4       4       4       4       4       4
       4       4       4       4       4       4       4       4       4       4
       4       4       4       4       4       4       4       4       4       4
       4       4       4       4       4       4       4       4       4       4
       4       4       4       4       4       4       4       4       4       4
       4       4       4       4       4       4       4       4       4       4
       4       4       4       4       4       4       4       4       4       4
       4       4       4       4       4       4       4       4       4       4
       4       4       4       4       4       4       4       4       4       4
       4       4       4       4       4       4       4       4       4       4
       4       4       4       4       4       4       4       4       4       4
       4       4       4       4       4       4       4       4       4       4
       4       4       4       4       4       4       4       4       4       4
       4       4       4       4       4       4       4       4       4       4
       4       4       4       4       4       4       4       4       4       4
       4       4       4       4       4       4       4       4       4       4
       4       4       4       4       4       4       4       4       4       4
       4       4       4       4       4       4       4       4       4       4
       4       4       4       4       4       4       4       4       4       4
       4       4       4       4       4       4       4       4       4       4
       4       4       4       4       4       4       4       4       4       4
       4       4       4       4       4       4       4       4       4       4
       4       4       4       4       4       4       4       4       4       4
       4       4       4       4       4       4       4       4       4       4
       4       4       4       4       4       4       4       4       4       4
       4       4       4       4       4       4       4       4       4       4
       4       4       4       4       4       4       4       4       4       4
       4       4       4       4       4       4       4       4       4       4
       4       4       4       4       4       4       4       4       4       4
       4       4       4       4       4       4       4       4       4       4
       4       4       4       4       4       4       4       4       4       4
       4       4       4       4       4       4       4       4       4       4
       4       4       4       4       4       4       4       4       4       4
       4       4       4       4       4       4       4       4       4       4
       4       4       4       4       4       4       4       4       4       4
       4       4       4       4       4       4       4       4       4       4
       4       4       4       4       4       4       4       4       4       4
       4       4       4       4       4       4       4       4       4       4
       4       4       4       4       4       4       4       4       4       4
       4       4       4       4       4       4       4       4       4       4
       4       4       4       4       4       4       4       4       4       4
       4       4       4       4       4       4       4       4       4       4
       4       4       4       4       4       4       4       4       4       4
       4       4       4       4       4       4       4       4       4       4
       4       4       4       4       4       4       4       4       4       4
       4       4       4       4       4       4       4       4       4       4
       4       4       4       4       4       4       4       4       4       4
       4       4       4       4       4       4       4       4       4       4
       4       4       4       4       4       4       4       4       4       4
       4       4       4       4       4       4       4       4       4       4
       4       4       4       4       4       4       4       4       4       4
       4       4       4       4       4       4       4       4       4       4
       4       4       4       4       4       4       4       4       4       4
       4       4       4       4       4       4       4       4       4       4
       4       4       4       4       4       4       4       4       4       4
       4       4       4       4       4       4       4       4       4       4
       4       4       4       4       4       4       4       4       4       4
       4       4       4       4       4       4       4       4       4       4
       4       4       4       4       4       4       4       4       4       4
       4       4       4       4       4       4       4       4       4       4
       4       4       4       4       4       4       4       4       4       4
       4       4       4       4       4       4       4       4       4       4
       4       4       4       4       4       4       4       4       4       4
       4       4       4       4       4       4       4       4       4       4
       4       4       4       4       4       4       4       4       4       4
       4       4       4       4       4       4       4       4       4       4
       4       4       4       4       4       4       4       4       4       4
       4       4       4       4       4       4       4       4       4       4
       4       4       4       4       4       4       4       4       4       4
       4       4       4       4       4       4       4       4       4       4
       4       4       4       4       4       4       4       4       4       4
       4       4       4       4       4       4       4       4       4       4
       4       4       4       4       4       4       4       4       4       4
       4       4       4       4       4       4       4       4       4       4
       4       4       4       4       4       4       4       4       4       4
       4       4       4       4       4       4       4       4       4       4
       4       4       4       4       4       4       4       4       4       4
       4       4       4       4       4       4       4       4       4       4
       4       4       4       4       4       4       4       4       4       4
       4       4       4       4       4       4       4       4       4       4
       4       4       4       4       4       4       4       4       4       4
       4       4       4       4       4       4       4       4       4       4
       4       4       4       4       4       4       4       4       4       4
       4       4       4       4       4       4       4       4       4       4
       4       4       4       4       4       4       4       4       4       4
       4       4       4       4       4       4       4       4       4       4
       4       4       4       4       4       4       4       4       4       4
       4       4       4       4       4       4       4       4       4       4
       4       4       4       4       4       4       4       4       4       4
       4       4       4       4       4       4       4       4       4       4
       4       4       4       4       4       4       4       4       4       4
       4       4       4       4       4       4       4       4       4       4
       4       4       4       4       4       4       4       4       4       4
       4       4       4       4       4       4       4       4       4       4
       4       4       4       4       4       4       4       4       4       4
       4       4       4       4       4       4       4       4       4       4
       4       4       4       4       4       4       4       4       4       4
       4       4       4       4       4       4       4       4       4       4
       4       4       4       4       4       4       4       4       4       4
       4       4       4       4       4       4       4       4       4       4
       4       4       4       4       4       4       4       4       4       4
       4       4       4       4       4       4       4       4       4       4
       4       4       4       4       4       4       4       4       4       4
       4       4       4       4       4       4       4       4       4       4
       4       4       4       4       4       4       4       4       4       4
       4       4       4       4       4       4       4       4       4       4
       4       4       4       4       4       4       4       4       4       4
       4       4       4       4       4       4       4       4       4       4
       4       4       4       4       4       4       4       4       4       4
       4       4       4       4       4       4       4       4       4       4
       4       4       4       4       4       4       4       4       4       4
       4       4       4       4       4       4       4       4       4       4
       4       4       4       4       4       4       4       4       4       4
       4       4       4       4       4       4       4       4       4       4
       4       4       4       4       4       4       4       4       4       4
       4       4       4       4       4       4       4       4       4       4
       4       4       4       4       4       4       4       4       4       4
       4       4       4       4       4       4       4       4       4       4
       4       4       4       4       4       4       4       4       4       4
       4       4       4       4       4       4       4       4       4       4
       4       4       4       4       4       4       4       4       4       4
       4       4       4       4       4       4       4       4       4       4
       4       4       4       4       4       4       4       4       4       4
       4       4       4       4       4       4       4       4       4       4
       4       4       4       4       4       4       4       4       4       4
       4       4       4       4       4       4       4       4       4       4
       4       4       4       4       4       4       4       4       4       4
       4       4       4       4       4       4       4       4       4       4
       4       4       4       4       4       4       4       4       4       4
       4       4       4       4       4       4       4       4       4       4
       4       4       4       4       4       4       4       4       4       4
       4       4       4       4       4       4       4       4       4       4
       4       4       4       4       4       4       4       4       4       4
       4       4       4       4       4       4       4       4       4       4
       4       4       4       4       4       4       4       4       4       4
       4       4       4       4       4       4       4       4       4       4
       4       4       4       4       4       4       4       4       4       4
       4       4       4       4       4       4       4       4       4       4
       4       4       4       4       4       4       4       4       4       4
       4       4       4       4       4       4       4       4       4       4
       4       4       4       4       4       4       4       4       4       4
       4       4       4       4       4       4       4       4       4       4
       4       4       4       4       4       4       4       4       4       4
       4       4       4       4       4       4       4       4       4       4
       4       4       4       4       4       4       4       4       4       4
       4       4       4       4       4       4       4       4       4       4
       4       4       4       4       4       4       4       4       4       4
       4       4       4       4       4       4       4       4       4       4
       4       4       4       4       4       4       4       4       4       4
       4       4       4       4       4       4       4       4       4       4
       4       4       4       4       4       4       4       4       4       4
       4       4       4       4       4       4       4       4       4       4
       4       4       4       4       4       4       4       4       4       4
       4       4       4       4       4       4       4       4       4       4
       4       4       4       4       4       4       4       4       4       4
       4       4       4       4       4       4       4       4       4       4
       4       4       4       4       4       4       4       4       4       4
       4       4       4       4       4       4       4       4       4       4
       4       4       4       4       4       4       4       4       4       4
       4       4       4       4       4       4       4       4       4       4
       4       4       4       4       4       4       4       4       4       4
       4       4       4       4       4       4       4       4       4       4
       4       4       4       4       4       4       4       4       4       4
       4       4       4       4       4       4       4       4       4       4
       4       4       4       4       4       4       4       4       4       4
       4       4       4       4       4       4       4       4       4       4
       4       4       4       4       4       4       4       4       4       4
       4       4       4       4       4       4       4       4       4       4
       4       4       4       4       4       4       4       4       4       4
       4       4       4       4       4       4       4       4       4       4
       4       4       4       4       4       4       4       4       4       4
       4       4       4       4       4       4       4       4       4       4
       4       4       4       4       4       4       4       4       4       4
       4       4       4       4       4       4       4       4       4       4
       4       4       4       4       4       4       4       4       4       4
       4       4       4       4       4       4       4       4       4       4
       4       4       4       4       4       4       4       4       4       4
       4       4       4       4       4       4       4       4       4       4
       4       4       4       4       4       4       4       4       4       4
       4       4       4       4       4       4       4       4       4       4
       4       4       4       4       4       4       4       4       4       4
       4       4       4       4       4       4       4       4       4       4
       4       4       4       4       4       4       4       4       4       4
       4       4       4       4       4       4       4       4       4       4
       4       4       4       4       4       4       4       4       4       4
       4       4       4       4       4       4       4       4       4       4
       4       4       4       4       4       4       4       4       4       4
       4       4       4       4       4       4       4       4       4       4
       4       4       4       4       4       4       4       4       4       4
       4       4       4       4       4       4       4       4       4       4
       4       4       4       4       4       4       4       4       4       4
       4       4       4       4       4       4       4       4       4       4
       4       4       4       4       4       4       4       4       4       4
       4       4       4       4       4       4       4       4       4       4
       4       4       4       4       4       4       4       4       4       4
       4       4       4       4       4       4       4       4       4       4
       4       4       4       4       4       4       4       4       4       4
       4       4       4       4       4       4       4       4       4       4
       4       4       4       4       4       4       4       4       4       4
       4       4       4       4       4       4       4       4       4       4
       4       4       4       4       4       4       4       4       4       4
       4       4       4       4       4       4       4       4       4       4
       4       4       4       4       4       4       4       4       4       4
       4       4       4       4       4       4       4       4       4       4
       4       4       4       4       4       4       4       4       4       4
       4       4       4       4       4       4       4       4       4       4
       4       4       4       4       4       4       4       4       4       4
       4       4       4       4       4       4       4       4       4       4
       4       4       4       4       4       4       4       4       4       4
       4       4       4       4       4       4       4       4       4       4
       4       4       4       4       4       4       4       4       4       4
       4       4       4       4       4       4       4       4       4       4
       4       4       4       4       4       4       4       4       4       4
       4       4       4       4       4       4       4       4       4       4
       4       4       4       4       4       4       4       4       4       4
       4       4       4       4       4       4       4       4       4       4
       4       4       4       4       4       4       4       4       4       4
       4       4       4       4       4       4       4       4       4       4
       4       4       4       4       4       4       4       4       4       4
       4       4       4       4       4       4       4       4       4       4
       4       4       4       4       4       4       4       4       4       4
       4       4       4       4       4       4       4       4       4       4
       4       4       4       4       4       4       4       4       4       4
       4       4       4       4       4       4       4       4       4       4
       4       4       4       4       4       4       4       4       4       4
       4       4       4       4       4       4       4       4       4       4
       4       4       4       4       4       4       4       4       4       4
       4       4       4       4       4       4       4       4       4       4
       4       4       4       4       4       4       4       4       4       4
       4       4       4       4       4       4       4       4       4       4
       4       4       4       4       4       4       4       4       4       4
       4       4       4       4       4       4       4       4       4       4
       4       4       4       4       4       4       4       4       4       4
       4       4       4       4       4       4       4       4       4       4
       4       4       4       4       4       4       4       4       4       4
       4       4       4       4       4       4       4       4       4       4
       4       4       4       4       4       4       4       4       4       4
       4       4       4       4       4       4       4       4       4       4
       4       4       4       4       4       4       4       4       4       4
       4       4       4       4       4       4       4       4       4       4
       4       4       4       4       4       4       4       4       4       4
       4       4       4       4       4       4       4       4       4       4
       4       4       4       4       4       4       4       4       4       4
       4       4       4       4       4       4       4       4       4       4
       4       4       4       4       4       4       4       4       4       4
       4       4       4       4       4       4       4       4       4       4
       4       4       4       4       4       4       4       4       4       4
       4       4       4       4       4       4       4       4       4       4
       4       4       4       4       4       4       4       4       4       4
       4       4       4       4       4       4       4       4       4       4
       4       4       4       4       4       4       4       4       4       4
       4       4       4       4       4       4       4       4       4       4
       4       4       4       4       4       4       4       4       4       4
       4       4       4       4       4       4       4       4       4       4
       4       4       4       4       4       4       4       4       4       4
       4       4       4       4       4       4       4       4       4       4
       4       4       4       4       4       4       4       4       4       4
       4       4       4       4       4       4       4       4       4       4
       4       4       4       4       4       4       4       4       4       4
       4       4       4       4       4       4       4       4       4       4
       4       4       4       4       4       4       4       4       4       4
       4       4       4       4       4       4       4       4       4       4
       4       4       4       4       4       4       4       4       4       4
       4       4       4       4       4       4       4       4       4       4
       4       4       4       4       4       4       4       4       4       4
       4       4       4       4       4       4       4       4       4       4
       4       4       4       4       4       4       4       4       4       4
       4       4       4       4       4       4       4       4       4       4
       4       4       4       4       4       4       4       4       4       4
       4       4       4       4       4       4       4       4       4       4
       4       4       4       4       4       4       4       4       4       4
       4       4       4       4       4       4       4       4       4       4
       4       4       4       4       4       4       4       4       4       4
       4       4       4       4       4       4       4       4       4       4
       4       4       4       4       4       4       4       4       4       4
       4       4       4       4       4       4       4       4       4       4
       4       4       4       4       4       4       4       4       4       4
       4       4       4       4       4       4       4       4       4       4
       4       4       4       4       4       4       4       4       4       4
       4       4       4       4       4       4       4       4       4       4
       4       4       4       4       4       4       4       4       4       4
       4       4       4       4       4       4       4       4       4       4
       4       4       4       4       4       4       4       4       4       4
       4       4       4       4       4       4       4       4       4       4
       4       4       4       4       4       4       4       4       4       4
       4       4       4       4       4       4       4       4       4       4
       4       4       4       4       4       4       4       4       4       4
       4       4       4       4       4       4       4       4       4       4
       4       4       4       4       4       4       4       4       4       4
       4       4       4       4       4       4       4       4       4       4
       4       4       4       4       4       4       4       4       4       4
       4       4       4       4       4       4       4       4       4       4
       4       4       4       4       4       4       4       4       4       4
       4       4       4       4       4       4       4       4       4       4
       4       4       4       4       4       4       4       4       4       4
       4       4       4       4       4       4       4       4       4       4
       4       4       4       4       4       4       4       4       4       4
       4       4       4       4       4       4       4       4       4       4
       4       4       4       4       4       4       4       4       4       4
       4       4       4       4       4       4       4       4       4       4
       4       4       4       4       4       4       4       4       4       4
       4       4       4       4       4       4       4       4       4       4
       4       4       4       4       4       4       4       4       4       4
       4       4       4       4       4       4       4       4       4       4
       4       4       4       4       4       4       4       4       4       4
       4       4       4       4       4       4       4       4       4       4
       4       4       4       4       4       4       4       4       4       4
       4       4       4       4       4       4       4       4       4       4
       4       4       4       4       4       4       4       4       4       4
       4       4       4       4       4       4       4       4       4       4
       4       4       4       4       4       4       4       4       4       4
       4       4       4       4       4       4       4       4       4       4
       4       4       4       4       4       4       4       4       4       4
       4       4       4       4       4       4       4       4       4       4
       4       4       4       4       4       4       4       4       4       4
       4       4       4       4       4       4       4       4       4       4
       4       4       4       4       4       4       4       4       4       4
       4       4       4       4       4       4       4       4       4       4
       4       4       4       4       4       4       4       4       4       4
       4       4       4       4       4       4       4       4       4       4
       4       4       4       4       4       4       4       4       4       4
       4       4       4       4       4       4       4       4       4       4
       4       4       4       4       4       4       4       4       4       4
       4       4       4       4       4       4       4       4       4       4
       4       4       4       4       4       4       4       4       4       4
       4       4       4       4       4       4       4       4       4       4
       4       4       4       4       4       4       4       4       4       4
       4       4       4       4       4       4       4       4       4       4
       4       4       4       4       4       4       4       4       4       4
       4       4       4       4       4       4       4       4       4       4
       4       4       4       4       4       4       4       4       4       4
       4       4       4       4       4       4       4       4       4       4
       4       4       4       4       4       4       4       4       4       4
       4       4       4       4       4       4       4       4       4       4
       4       4       4       4       4       4       4       4       4       4
       4       4       4       4       4       4       4       4       4       4
       4       4       4       4       4       4       4       4       4       4
       4       4       4       4       4       4       4       4       4       4
       4       4       4       4       4       4       4       4       4       4
       4       4       4       4       4       4       4       4       4       4
       4       4       4       4       4       4       4       4       4       4
       4       4       4       4       4       4       4       4       4       4
       4       4       4       4       4       4       4       4       4       4
       4       4       4       4       4       4       4       4       4       4
       4       4       4       4       4       4       4       4       4       4
       4       4       4       4       4       4       4       4       4       4
       4       4       4       4       4       4       4       4       4       4
       4       4       4       4       4       4       4       4       4       4
       4       4       4       4       4       4       4       4       4       4
       4       4       4       4       4       4       4       4       4       4
       4       4       4       4       4       4       4       4       4       4
       4       4       4       4       4       4       4       4       4       4
       4       4       4       4       4       4       4       4       4       4
       4       4       4       4       4       4       4       4       4       4
       4       4       4       4       4       4       4       4       4       4
       4       4       4       4       4       4       4       4       4       4
       4       4       4       4       4       4       4       4       4       4
       4       4       4       4       4       4       4       4       4       4
       4       4       4       4       4       4       4       4       4       4
       4       4       4       4       4       4       4       4       4       4
       4       4       4       4       4       4       4       4       4       4
       4       4       4       4       4       4       4       4       4       4
       4       4       4       4       4       4       4       4       4       4
       4       4       4       4       4       4       4       4       4       4
       4       4       4       4       4       4       4       4       4       4
       4       4       4       4       4       4       4       4       4       4
       4       4       4       4       4       4       4       4       4       4
       4       4       4       4       4       4       4       4       4       4
       4       4       4       4       4       4       4       4       4       4
       4       4       4       4       4       4       4       4       4       4
       4       4       4       4       4       4       4       4       4       4
       4       4       4       4       4       4       4       4       4       4
       4       4       4       4       4       4       4       4       4       4
       4       4       4       4       4       4       4       4       4       4
       4       4       4       4       4       4       4       4       4       4
       4       4       4       4       4       4       4       4       4       4
       4       4       4       4       4       4       4       4       4       4
       4       4       4       4       4       4       4       4       4       4
       4       4       4       4       4       4       4       4       4       4
       4       4       4       4       4       4       4       4       4       4
       4       4       4       4       4       4       4       4       4       4
       4       4       4       4       4       4       4       4       4       4
       4       4       4       4       4       4       4       4       4       4
       4       4       4       4       4       4       4       4       4       4
       4       4       4       4       4       4       4       4       4       4
       4       4       4       4       4       4       4       4       4       4
       4       4       4       4       4       4       4       4       4       4
       4       4       4       4       4       4       4       4       4       4
       4       4       4       4       4       4       4       4       4       4
       4       4       4       4       4       4       4       4       4       4
       4       4       4       4       4       4       4       4       4       4
       4       4       4       4       4       4       4       4       4       4
       4       4       4       4       4       4       4       4       4       4
       4       4       4       4       4       4       4       4       4       4
       4       4       4       4       4       4       4       4       4       4
       4       4       4       4       4       4       4       4       4       4
       4       4       4       4       4       4       4       4       4       4
       4       4       4       4       4       4       4       4       4       4
       4       4       4       4       4       4       4       4       4       4
       4       4       4       4       4       4       4       4       4       4
       4       4       4       4       4       4       4       4       4       4
       4       4       4       4       4       4       4       4       4       4
       4       4       4       4       4       4       4       4       4       4
       4       4       4       4       4       4       4       4       4       4
       4       4       4       4       4       4       4       4       4       4
       4       4       4       4       4       4       4       4       4       4
       4       4       4       4       4       4       4       4       4       4
       4       4       4       4       4       4       4       4       4       4
       4       4       4       4       4       4       4       4       4       4
       4       4       4       4       4       4       4       4       4       4
       4       4       4       4       4       4       4       4       4       4
       4       4       4       4       4       4       4       4       4       4
       4       4       4       4       4       4       4       4       4       4
       4       4       4       4       4       4       4       4       4       4
       4       4       4       4       4       4       4       4       4       4
       4       4       4       4       4       4       4       4       4       4
       4       4       4       4       4       4       4       4       4       4
       4       4       4       4       4       4       4       4       4       4
       4       4       4       4       4       4       4       4       4       4
       4       4       4       4       4       4       4       4       4       4
       4       4       4       4       4       4       4       4       4       4
       4       4       4       4       4       4       4       4       4       4
       4       4       4       4       4       4       4       4       4       4
       4       4       4       4       4       4       4       4       4       4
       4       4       4       4       4       4       4       4       4       4
       4       4       4       4       4       4       4       4       4       4
       4       4       4       4       4       4       4       4       4       4
       4       4       4       4       4       4       4       4       4       4
       4       4       4       4       4       4       4       4       4       4
       4       4       4       4       4       4       4       4       4       4
       4       4       4       4       4       4       4       4       4       4
       4       4       4       4       4       4       4       4       4       4
       4       4       4       4       4       4       4       4       4       4
       4       4       4       4       4       4       4       4       4       4
       4       4       4       4       4       4       4       4       4       4
       4       4       4       4       4       4       4       4       4       4
       4       4       4       4       4       4       4       4       4       4
       4       4       4       4       4       4       4       4       4       4
       4       4       4       4       4       4       4       4       4       4
       4       4       4       4       4       4       4       4       4       4
       4       4       4       4       4       4       4       4       4       4
       4       4       4       4       4       4       4       4       4       4
       4       4       4       4       4       4       4       4       4       4
       4       4       4       4       4       4       4       4       4       4
       4       4       4       4       4       4       4       4       4       4
       4       4       4       4       4       4       4       4       4       4
       4       4       4       4       4       4       4       4       4       4
       4       4       4       4       4       4       4       4       4       4
       4       4       4       4       4       4       4       4       4       4
       4       4       4       4       4       4       4       4       4       4
       4       4       4       4       4       4       4       4       4       4
       4       4       4       4       4       4       4       4       4       4
       4       4       4       4       4       4       4       4       4       4
       4       4       4       4       4       4       4       4       4       4
       4       4       4       4       4       4       4       4       4       4
       4       4       4       4       4       4       4       4       4       4
       4       4       4       4       4       4       4       4       4       4
       4       4       4       4       4       4       4       4       4       4
       4       4       4       4       4       4       4       4       4       4
       4       4       4       4       4       4       4       4       4       4
       4       4       4       4       4       4       4       4       4       4
       4       4       4       4       4       4       4       4       4       4
       4       4       4       4       4       4       4       4       4       4
       4       4       4       4       4       4       4       4       4       4
       4       4       4       4       4       4       4       4       4       4
       4       4       4       4       4       4       4       4       4       4
       4       4       4       4       4       4       4       4       4       4
       4       4       4       4       4       4       4       4       4       4
       4       4       4       4       4       4       4       4       4       4
       4       4       4       4       4       4       4       4       4       4
       4       4       4       4       4       4       4       4       4       4
       4       4       4       4       4       4       4       4       4       4
       4       4       4       4       4       4       4       4       4       4
       4       4       4       4       4       4       4       4       4       4
       4       4       4       4       4       4       4       4       4       4
       4       4       4       4       4       4       4       4       4       4
       4       4       4       4       4       4       4       4       4       4
       4       4       4       4       4       4       4       4       4       4
       4       4       4       4       4       4       4       4       4       4
       4       4       4       4       4       4       4       4       4       4
       4       4       4       4       4       4       4       4       4       4
       4       4       4       4       4       4       4       4       4       4
       4       4       4       4       4       4       4       4       4       4
       4       4       4       4       4       4       4       4       4       4
       4       4       4       4       4       4       4       4       4       4
       4       4       4       4       4       4       4       4       4       4
       4       4       4       4       4       4       4       4       4       4
       4       4       4       4       4       4       4       4       4       4
       4       4       4       4       4       4       4       4       4       4
       4       4       4       4       4       4       4       4       4       4
       4       4       4       4       4       4       4       4       4       4
       4       4       4       4       4       4       4       4       4       4
       4       4       4       4       4       4       4       4       4       4
       4       4       4       4       4       4       4       4       4       4
       4       4       4       4       4       4       4       4       4       4
       4       4       4       4       4       4       4       4       4       4
       4       4       4       4       4       4       4       4       4       4
       4       4       4       4       4       4       4       4       4       4
       4       4       4       4       4       4       4       4       4       4
       4       4       4       4       4       4       4       4       4       4
       4       4       4       4       4       4       4       4       4       4
       4       4       4       4       4       4       4       4       4       4
       4       4       4       4       4       4       4       4       4       4
       4       4       4       4       4       4       4       4       4       4
       4       4       4       4       4       4       4       4       4       4
       4       4       4       4       4       4       4       4       4       4
       4       4       4       4       4       4       4       4       4       4
       4       4       4       4       4       4       4       4       4       4
       4       4       4       4       4       4       4       4       4       4
       4       4       4       4       4       4       4       4       4       4
       4       4       4       4       4       4       4       4       4       4
       4       4       4       4       4       4       4       4       4       4
       4       4       4       4       4       4       4       4       4       4
       4       4       4       4       4       4       4       4       4       4
       4       4       4       4       4       4       4       4       4       4
       4       4       4       4       4       4       4       4       4       4
       4       4       4       4       4       4       4       4       4       4
       4       4       4       4       4       4       4       4       4       4
       4       4       4       4       4       4       4       4       4       4
       4       4       4       4       4       4       4       4       4       4
       4       4       4       4       4       4       4       4       4       4
       4       4       4       4       4       4       4       4       4       4
       4       4       4       4       4       4       4       4       4       4
       4       4       4       4       4       4       4       4       4       4
       4       4       4       4       4       4       4       4       4       4
       4       4       4       4       4       4       4       4       4       4
       4       4       4       4       4       4       4       4       4       4
       4       4       4       4       4       4       4       4       4       4
       4       4       4       4       4       4       4       4       4       4
       4       4       4       4       4       4       4       4       4       4
       4       4       4       4       4       4       4       4       4       4
       4       4       4       4       4       4       4       4       4       4
       4       4       4       4       4       4       4       4       4       4
       4       4       4       4       4       4       4       4       4       4
       4       4       4       4       4       4       4       4       4       4
       4       4       4       4       4       4       4       4       4       4
       4       4       4       4       4       4       4       4       4       4
       4       4       4       4       4       4       4       4       4       4
       4       4       4       4       4       4       4       4       4       4
       4       4       4       4       4       4       4       4       4       4
       4       4       4       4       4       4       4       4       4       4
       4       4       4       4       4       4       4       4       4       4
       4       4       4       4       4       4       4       4       4       4
       4       4       4       4       4       4       4       4       4       4
       4       4       4       4       4       4       4       4       4       4
       4       4       4       4       4       4       4       4       4       4
       4       4       4       4       4       4       4       4       4       4
       4       4       4       4       4       4       4       4       4       4
       4       4       4       4       4       4       4       4       4       4
       4       4       4       4       4       4       4       4       4       4
       4       4       4       4       4       4       4       4       4       4
       4       4       4       4       4       4       4       4       4       4
       4       4       4       4       4       4       4       4       4       4
       4       4       4       4       4       4       4       4       4       4
       4       4       4       4       4       4       4       4       4       4
       4       4       4       4       4       4       4       4       4       4
       4       4       4       4       4       4       4       4       4       4
       4       4       4       4       4       4       4       4       4       4
       4       4       4       4       4       4       4       4       4       4
       4       4       4       4       4       4       4       4       4       4
       4       4       4       4       4       4       4       4       4       4
       4       4       4       4       4       4       4       4       4       4
       4       4       4       4       4       4       4       4       4       4
       4       4       4       4       4       4       4       4       4       4
       4       4       4       4       4       4       4       4       4       4
       4       4       4       4       4       4       4       4       4       4
       4       4       4       4       4       4       4       4       4       4
       4       4       4       4       4       4       4       4       4       4
       4       4       4       4       4       4       4       4       4       4
       4       4       4       4       4       4       4       4       4       4
       4       4       4       4       4       4       4       4       4       4
       4       4       4       4       4       4       4       4       4       4
       4       4       4       4       4       4       4       4       4       4
       4       4       4       4       4       4       4       4       4       4
       4       4       4       4       4       4       4       4       4       4
       4       4       4       4       4       4       4       4       4       4
       4       4       4       4       4       4       4       4       4       4
       4       4       4       4       4       4       4       4       4       4
       4       4       4       4       4       4       4       4       4       4
       4       4       4       4       4       4       4       4       4       4
       4       4       4       4       4       4       4       4       4       4
       4       4       4       4       4       4       4       4       4       4
       4       4       4       4       4       4       4       4       4       4
       4       4       4       4       4       4       4       4       4       4
       4       4       4       4       4       4       4       4       4       4
       4       4       4       4       4       4       4       4       4       4
       4       4       4       4       4       4       4       4       4       4
       4       4       4       4       4       4       4       4       4       4
       4       4       4       4       4       4       4       4       4       4
       4       4       4       4       4       4       4       4       4       4
       4       4       4       4       4       4       4       4       4       4
       4       4       4       4       4       4       4       4       4       4
       4       4       4       4       4       4       4       4       4       4
       4       4       4       4       4       4       4       4       4       4
       4       4       4       4       4       4       4       4       4       4
       4       4       4       4       4       4       4       4       4       4
       4       4       4       4       4       4       4       4       4       4
       4       4       4       4       4       4       4       4       4       4
       4       4       4       4       4       4       4       4       4       4
       4       4       4       4       4       4       4       4       4       4
       4       4       4       4       4       4       4       4       4       4
       4       4       4       4       4       4       4       4       4       4
       4       4       4       4       4       4       4       4       4       4
       4       4       4       4       4       4       4       4       4       4
       4       4       4       4       4       4       4       4       4       4
       4       4       4       4       4       4       4       4       4       4
       4       4       4       4       4       4       4       4       4       4
       4       4       4       4       4       4       4       4       4       4
       4       4       4       4       4       4       4       4       4       4
       4       4       4       4       4       4       4       4       4       4
       4       4       4       4       4       4       4       4       4       4
       4       4       4       4       4       4       4       4       4       4
       4       4       4       4       4       4       4       4       4       4
       4       4       4       4       4       4       4       4       4       4
       4       4       4       4       4       4       4       4       4       4
       4       4       4       4       4       4       4       4       4       4
       4       4       4       4       4       4       4       4       4       4
       4       4       4       4       4       4       4       4       4       4
       4       4       4       4       4       4       4       4       4       4
       4       4       4       4       4       4       4       4       4       4
       4       4       4       4       4       4       4       4       4       4
       4       4       4       4       4       4       4       4       4       4
       4       4       4       4       4       4       4       4       4       4
       4       4       4       4       4       4       4       4       4       4
       4       4       4       4       4       4       4       4       4       4
       4       4       4       4       4       4       4       4       4       4
       4       4       4       4       4       4       4       4       4       4
       4       4       4       4       4       4       4       4       4       4
       4       4       4       4       4       4       4       4       4       4
       4       4       4       4       4       4       4       4       4       4
       4       4       4       4       4       4       4       4       4       4
       4       4       4       4       4       4       4       4       4       4
       4       4       4       4       4       4       4       4       4       4
       4       4       4       4       4       4       4       4       4       4
       4       4       4       4       4       4       4       4       4       4
       4       4       4       4       4       4       4       4       4       4
       4       4       4       4       4       4       4       4       4       4
       4       4       4       4       4       4       4       4       4       4
       4       4       4       4       4       4       4       4       4       4
       4       4       4       4       4       4       4       4       4       4
       4       4       4       4       4       4       4       4       4       4
       4       4       4       4       4       4       4       4       4       4
       4       4       4       4       4       4       4       4       4       4
       4       4       4       4       4       4       4       4       4       4
       4       4       4       4       4       4       4       4       4       4
       4       4       4       4       4       4       4       4       4       4
       4       4       4       4       4       4       4       4       4       4
       4       4       4       4       4       4       4       4       4       4
       4       4       4       4       4       4       4       4       4       4
       4       4       4       4       4       4       4       4       4       4
       4       4       4       4       4       4       4       4       4       4
       4       4       4       4       4       4       4       4       4       4
       4       4       4       4       4       4       4       4       4       4
       4       4       4       4       4       4       4       4       4       4
       4       4       4       4       4       4       4       4       4       4
       4       4       4       4       4       4       4       4       4       4
       4       4       4       4       4       4       4       4       4       4
       4       4       4       4       4       4       4       4       4       4
       4       4       4       4       4       4       4       4       4       4
       4       4       4       4       4       4       4       4       4       4
       4       4       4       4       4       4       4       4       4       4
       4       4       4       4       4       4       4       4       4       4
       4       4       4       4       4       4       4       4       4       4
       4       4       4       4       4       4       4       4       4       4
       4       4       4       4       4       4       4       4       4       4
       4       4       4       4       4       4       4       4       4       4
       4       4       4       4       4       4       4       4       4       4
       4       4       4       4       4       4       4       4       4       4
       4       4       4       4       4       4       4       4       4       4
       4       4       4       4       4       4       4       4       4       4
       4       4       4       4       4       4       4       4       4       4
       4       4       4       4       4       4       4       4       4       4
       4       4       4       4       4       4       4       4       4       4
       4       4       4       4       4       4       4       4       4       4
       4       4       4       4       4       4       4       4       4       4
       4       4       4       4       4       4       4       4       4       4
       4       4       4       4       4       4       4       4       4       4
       4       4       4       4       4       4       4       4       4       4
       4       4       4       4       4       4       4       4       4       4
       4       4       4       4       4       4       4       4       4       4
       4       4       4       4       4       4       4       4       4       4
       4       4       4       4       4       4       4       4       4       4
       4       4       4       4       4       4       4       4       4       4
       4       4       4       4       4       4       4       4       4       4
       4       4       4       4       4       4       4       4       4       4
       4       4       4       4       4       4       4       4       4       4
       4       4       4       4       4       4       4       4       4       4
       4       4       4       4       4       4       4       4       4       4
       4       4       4       4       4       4       4       4       4       4
       4       4       4       4       4       4       4       4       4       4
       4       4       4       4       4       4       4       4       4       4
       4       4       4       4       4       4       4       4       4       4
       4       4       4       4       4       4       4       4       4       4
       4       4       4       4       4       4       4       4       4       4
       4       4       4       4       4       4       4       4       4       4
       4       4       4       4       4       4       4       4       4       4
       4       4       4       4       4       4       4       4       4       4
       4       4       4       4       4       4       4       4       4       4
       4       4       4       4       4       4       4       4       4       4
       4       4       4       4       4       4       4       4       4       4
       4       4       4       4       4       4       4       4       4       4
       4       4       4       4       4       4       4       4       4       4
       4       4       4       4       4       4       4       4       4       4
       4       4       4       4       4       4       4       4       4       4
       4       4       4       4       4       4       4       4       4       4
       4       4       4       4       4       4       4       4       4       4
       4       4       4       4       4       4       4       4       4       4
       4       4       4       4       4       4       4       4       4       4
       4       4       4       4       4       4       4       4       4       4
       4       4       4       4       4       4       4       4       4       4
       4       4       4       4       4       4       4       4       4       4
       4       4       4       4       4       4       4       4       4       4
       4       4       4       4       4       4       4       4       4       4
       4       4       4       4       4       4       4       4       4       4
       4       4       4       4       4       4       4       4       4       4
       4       4       4       4       4       4       4       4       4       4
       4       4       4       4       4       4       4       4       4       4
       4       4       4       4       4       4       4       4       4       4
       4       4       4       4       4       4       4       4       4       4
       4       4       4       4       4       4       4       4       4       4
       4       4       4       4       4       4       4       4       4       4
       4       4       4       4       4       4       4       4       4       4
       4       4       4       4       4       4       4       4       4       4
       4       4       4       4       4       4       4       4       4       4
       4       4       4       4       4       4       4       4       4       4
       4       4       4       4       4       4       4       4       4       4
       4       4       4       4       4       4       4       4       4       4
       4       4       4       4       4       4       4       4       4       4
       4       4       4       4       4       4       4       4       4       4
       4       4       4       4       4       4       4       4       4       4
       4       4       4       4       4       4       4       4       4       4
       4       4       4       4       4       4       4       4       4       4
       4       4       4       4       4       4       4       4       4       4
       4       4       4       4       4       4       4       4       4       4
       4       4       4       4       4       4       4       4       4       4
       4       4       4       4       4       4       4       4       4       4
       4       4       4       4       4       4       4       4       4       4
       4       4       4       4       4       4       4       4       4       4
       4       4       4       4       4       4       4       4       4       4
       4       4       4       4       4       4       4       4       4       4
       4       4       4       4       4       4       4       4       4       4
       4       4       4       4       4       4       4       4       4       4
       4       4       4       4       4       4       4       4       4       4
       4       4       4       4       4       4       4       4       4       4
       4       4       4       4       4       4       4       4       4       4
       4       4       4       4       4       4       4       4       4       4
       4       4       4       4       4       4       4       4       4       4
       4       4       4       4       4       4       4       4       4       4
       4       4       4       4       4       4       4       4       4       4
       4       4       4       4       4       4       4       4       4       4
       4       4       4       4       4       4       4       4       4       4
       4       4       4       4       4       4       4       4       4       4
       4       4       4       4       4       4       4       4       4       4
       4       4       4       4       4       4       4       4       4       4
       4       4       4       4       4       4       4       4       4       4
       4       4       4       4       4       4       4       4       4       4
       4       4       4       4       4       4       4       4       4       4
       4       4       4       4       4       4       4       4       4       4
       4       4       4       4       4       4       4       4       4       4
       4       4       4       4       4       4       4       4       4       4
       4       4       4       4       4       4       4       4       4       4
       4       4       4       4       4       4       4       4       4       4
       4       4       4       4       4       4       4       4       4       4
       4       4       4       4       4       4       4       4       4       4
       4       4       4       4       4       4       4       4       4       4
       4       4       4       4       4       4       4       4       4       4
       4       4       4       4       4       4       4       4       4       4
       4       4       4       4       4       4       4       4       4       4
       4       4       4       4       4       4       4       4       4       4
       4       4       4       4       4       4       4       4       4       4
       4       4       4       4       4       4       4       4       4       4
       4       4       4       4       4       4       4       4       4       4
       4       4       4       4       4       4       4       4       4       4
       4       4       4       4       4       4       4       4       4       4
       4       4       4       4       4       4       4       4       4       4
       4       4       4       4       4       4       4       4       4       4
       4       4       4       4       4       4       4       4       4       4
       4       4       4       4       4       4       4       4       4       4
       4       4       4       4       4       4       4       4       4       4
       4       4       4       4       4       4       4       4       4       4
       4       4       4       4       4       4       4       4       4       4
       4       4       4       4       4       4       4       4       4       4
       4       4       4       4       4       4       4       4       4       4
       4       4       4       4       4       4       4       4       4       4
       4       4       4       4       4       4       4       4       4       4
       4       4       4       4       4       4       4       4       4       4
       4       4       4       4       4       4       4       4       4       4
       4       4       4       4       4       4       4       4       4       4
       4       4       4       4       4       4       4       4       4       4
       4       4       4       4       4       4       4       4       4       4
       4       4       4       4       4       4       4       4       4       4
       4       4       4       4       4       4       4       4       4       4
       4       4       4       4       4       4       4       4       4       4
       4       4       4       4       4       4       4       4       4       4
       4       4       4       4       4       4       4       4       4       4
       4       4       4       4       4       4       4       4       4       4
       4       4       4       4       4       4       4       4       4       4
       4       4       4       4       4       4       4       4       4       4
       4       4       4       4       4       4       4       4       4       4
       4       4       4       4       4       4       4       4       4       4
       4       4       4       4       4       4       4       4       4       4
       4       4       4       4       4       4       4       4       4       4
       4       4       4       4       4       4       4       4       4       4
       4       4       4       4       4       4       4       4       4       4
       4       4       4       4       4       4       4       4       4       4
       4       4       4       4       4       4       4       4       4       4
       4       4       4       4       4       4       4       4       4       4
       4       4       4       4       4       4       4       4       4       4
       4       4       4       4       4       4       4       4       4       4
       4       4       4       4       4       4       4       4       4       4
       4       4       4       4       4       4       4       4       4       4
       4       4       4       4       4       4       4       4       4       4
       4       4       4       4       4       4       4       4       4       4
       4       4       4       4       4       4       4       4       4       4
       4       4       4       4       4       4       4       4       4       4
       4       4       4       4       4       4       4       4       4       4
       4       4       4       4       4       4       4       4       4       4
       4       4       4       4       4       4       4       4       4       4
       4       4       4       4       4       4       4       4       4       4
       4       4       4       4       4       4       4       4       4       4
       4       4       4       4       4       4       4       4       4       4
       4       4       4       4       4       4       4       4       4       4
       4       4       4       4       4       4       4       4       4       4
       4       4       4       4       4       4       4       4       4       4
       4       4       4       4       4       4       4       4       4       4
       4       4       4       4       4       4       4       4       4       4
       4       4       4       4       4       4       4       4       4       4
       4       4       4       4       4       4       4       4       4       4
       4       4       4       4       4       4       4       4       4       4
       4       4       4       4       4       4       4       4       4       4
       4       4       4       4       4       4       4       4       4       4
       4       4       4       4       4       4       4       4       4       4
       4       4       4       4       4       4       4       4       4       4
       4       4       4       4       4       4       4       4       4       4
       4       4       4       4       4       4       4       4       4       4
       4       4       4       4       4       4       4       4       4       4
       4       4       4       4       4       4       4       4       4       4
       4       4       4       4       4       4       4       4       4       4
       4       4       4       4       4       4       4       4       4       4
       4       4       4       4       4       4       4       4       4       4
       4       4       4       4       4       4       4       4       4       4
       4       4       4       4       4       4       4       4       4       4
       4       4       4       4       4       4       4       4       4       4
       4       4       4       4       4       4       4       4       4       4
       4       4       4       4       4       4       4       4       4       4
       4       4       4       4       4       4       4       4       4       4
       4       4       4       4       4       4       4       4       4       4
       4       4       4       4       4       4       4       4       4       4
       4       4       4       4       4       4       4       4       4       4
       4       4       4       4       4       4       4       4       4       4
       4       4       4       4       4       4       4       4       4       4
       4       4       4       4       4       4       4       4       4       4
       4       4       4       4       4       4       4       4       4       4
       4       4       4       4       4       4       4       4       4       4
       4       4       4       4       4       4       4       4       4       4
       4       4       4       4       4       4       4       4       4       4
       4       4       4       4       4       4       4       4       4       4
       4       4       4       4       4       4       4       4       4       4
       4       4       4       4       4       4       4       4       4       4
       4       4       4       4       4       4       4       4       4       4
       4       4       4       4       4       4       4       4       4       4
       4       4       4       4       4       4       4       4       4       4
       4       4       4       4       4       4       4       4       4       4
       4       4       4       4       4       4       4       4       4       4
       4       4       4       4       4       4       4       4       4       4
       4       4       4       4       4       4       4       4       4       4
       4       4       4       4       4       4       4       4       4       4
       4       4       4       4       4       4       4       4       4       4
       4       4       4       4       4       4       4       4       4       4
       4       4       4       4       4       4       4       4       4       4
       4       4       4       4       4       4       4       4       4       4
       4       4       4       4       4       4       4       4       4       4
       4       4       4       4       4       4       4       4       4       4
       4       4       4       4       4       4       4       4       4       4
       4       4       4       4       4       4       4       4       4       4
       4       4       4       4       4       4       4       4       4       4
       4       4       4       4       4       4       4       4       4       4
       4       4       4       4       4       4       4       4       4       4
       4       4       4       4       4       4       4       4       4       4
       4       4       4       4       4       4       4       4       4       4
       4       4       4       4       4       4       4       4       4       4
       4       4       4       4       4       4       4       4       4       4
       4       4       4       4       4       4       4       4       4       4
       4       4       4       4       4       4       4       4       4       4
       4       4       4       4       4       4       4       4       4       4
       4       4       4       4       4       4       4       4       4       4
       4       4       4       4       4       4       4       4       4       4
       4       4       4       4       4       4       4       4       4       4
       4       4       4       4       4       4       4       4       4       4
       4       4       4       4       4       4       4       4       4       4
       4       4       4       4       4       4       4       4       4       4
       4       4       4       4       4       4       4       4       4       4
       4       4       4       4       4       4       4       4       4       4
       4       4       4       4       4       4       4       4       4       4
       4       4       4       4       4       4       4       4       4       4
       4       4       4       4       4       4       4       4       4       4
       4       4       4       4       4       4       4       4       4       4
       4       4       4       4       4       4       4       4       4       4
       4       4       4       4       4       4       4       4       4       4
       4       4       4       4       4       4       4       4       4       4
       4       4       4       4       4       4       4       4       4       4
       4       4       4       4       4       4       4       4       4       4
       4       4       4       4       4       4       4       4       4       4
       4       4       4       4       4       4       4       4       4       4
       4       4       4       4       4       4       4       4       4       4
       4       4       4       4       4       4       4       4       4       4
       4       4       4       4       4       4       4       4       4       4
       4       4       4       4       4       4       4       4       4       4
       4       4       4       4       4       4       4       4       4       4
       4       4       4       4       4       4       4       4       4       4
       4       4       4       4       4       4       4       4       4       4
       4       4       4       4       4       4       4       4       4       4
       4       4       4       4       4       4       4       4       4       4
       4       4       4       4       4       4       4       4       4       4
       4       4       4       4       4       4       4       4       4       4
       4       4       4       4       4       4       4       4       4       4
       4       4       4       4       4       4       4       4       4       4
       4       4       4       4       4       4       4       4       4       4
       4       4       4       4       4       4       4       4       4       4
       4       4       4       4       4       4       4       4       4       4
       4       4       4       4       4       4       4       4       4       4
       4       4       4       4       4       4       4       4       4       4
       4       4       4       4       4       4       4       4       4       4
       4       4       4       4       4       4       4       4       4       4
       4       4       4       4       4       4       4       4       4       4
       4       4       4       4       4       4       4       4       4       4
       4       4       4       4       4       4       4       4       4       4
       4       4       4       4       4       4       4       4       4       4
       4       4       4       4       4       4       4       4       4       4
       4       4       4       4       4       4       4       4       4       4
       4       4       4       4       4       4       4       4       4       4
       4       4       4       4       4       4       4       4       4       4
       4       4       4       4       4       4       4       4       4       4
       4       4       4       4       4       4       4       4       4       4
       4       4       4       4       4       4       4       4       4       4
       4       4       4       4       4       4       4       4       4       4
       4       4       4       4       4       4       4       4       4       4
       4       4       4       4       4       4       4       4       4       4
       4       4       4       4       4       4       4       4       4       4
       4       4       4       4       4       4       4       4       4       4
       4       4       4       4       4       4       4       4       4       4
       4       4       4       4       4       4       4       4       4       4
       4       4       4       4       4       4       4       4       4       4
       4       4       4       4       4       4       4       4       4       4
       4       4       4       4       4       4       4       4       4       4
       4       4       4       4       4       4       4       4       4       4
       4       4       4       4       4       4       4       4       4       4
       4       4       4       4       4       4       4       4       4       4
       4       4       4       4       4       4       4       4       4       4
       4       4       4       4       4       4       4       4       4       4
       4       4       4       4       4       4       4       4       4       4
       4       4       4       4       4       4       4       4       4       4
       4       4       4       4       4       4       4       4       4       4
       4       4       4       4       4       4       4       4       4       4
       4       4       4       4       4       4       4       4       4       4
       4       4       4       4       4       4       4       4       4       4
       4       4       4       4       4       4       4       4       4       4
       4       4       4       4       4       4       4       4       4       4
       4       4       4       4       4       4       4       4       4       4
       4       4       4       4       4       4       4       4       4       4
       4       4       4       4       4       4       4       4       4       4
       4       4       4       4       4       4       4       4       4       4
       4       4       4       4       4
%FLAG BOX_DIMENSIONS                                                            
%FORMAT(5E16.8)                                                                 
  9.00000000E+01  7.27338665E+01  6.97116585E+01  9.28932985E+01
%FLAG RADIUS_SET                                                                
%FORMAT(1a80)                                                                   
modified Bondi radii (mbondi)                                                   
%FLAG RADII                                                                     
%FORMAT(5E16.8)                                                                 
  1.30000000E+00  1.70000000E+00  1.30000000E+00  1.30000000E+00  1.70000000E+00
  1.50000000E+00  1.55000000E+00  1.30000000E+00  1.70000000E+00  1.30000000E+00
  1.70000000E+00  1.30000000E+00  1.30000000E+00  1.70000000E+00  1.70000000E+00
  1.30000000E+00  1.55000000E+00  1.30000000E+00  1.70000000E+00  1.70000000E+00
  1.30000000E+00  1.70000000E+00  1.30000000E+00  1.70000000E+00  1.30000000E+00
  1.70000000E+00  1.30000000E+00  1.70000000E+00  1.70000000E+00  1.50000000E+00
  1.55000000E+00  1.30000000E+00  1.70000000E+00  1.30000000E+00  1.70000000E+00
  1.30000000E+00  1.70000000E+00  1.30000000E+00  1.30000000E+00  1.30000000E+00
  1.70000000E+00  1.30000000E+00  1.30000000E+00  1.30000000E+00  1.70000000E+00
  1.50000000E+00  1.55000000E+00  1.30000000E+00  1.70000000E+00  1.30000000E+00
  1.70000000E+00  1.30000000E+00  1.70000000E+00  1.30000000E+00  1.30000000E+00
  1.30000000E+00  1.50000000E+00  8.00000000E-01  1.70000000E+00  1.50000000E+00
  1.55000000E+00  1.30000000E+00  1.70000000E+00  1.30000000E+00  1.70000000E+00
  1.30000000E+00  1.30000000E+00  1.70000000E+00  1.55000000E+00  1.30000000E+00
  1.70000000E+00  1.30000000E+00  1.55000000E+00  1.70000000E+00  1.30000000E+00
  1.70000000E+00  1.50000000E+00  1.55000000E+00  1.30000000E+00  1.70000000E+00
  1.30000000E+00  1.70000000E+00  1.30000000E+00  1.30000000E+00  1.70000000E+00
  1.30000000E+00  1.30000000E+00  1.70000000E+00  1.30000000E+00  1.30000000E+00
  1.55000000E+00  1.30000000E+00  1.70000000E+00  1.55000000E+00  1.30000000E+00
  1.30000000E+00  1.55000000E+00  1.30000000E+00  1.30000000E+00  1.70000000E+00
  1.50000000E+00  1.70000000E+00  1.50000000E+00  1.70000000E+00  1.50000000E+00
  1.50000000E+00  1.50000000E+00  1.50000000E+00  1.70000000E+00  1.70000000E+00
  1.50000000E+00  1.55000000E+00  1.30000000E+00  1.30000000E+00  1.30000000E+00
  1.30000000E+00  1.30000000E+00  1.30000000E+00  1.30000000E+00  1.30000000E+00
  1.30000000E+00  1.30000000E+00  1.30000000E+00  1.30000000E+00  1.30000000E+00
  1.30000000E+00  1.55000000E+00  1.30000000E+00  1.70000000E+00  1.30000000E+00
  1.70000000E+00  1.30000000E+00  1.30000000E+00  1.30000000E+00  1.70000000E+00
  1.50000000E+00  1.55000000E+00  1.30000000E+00  1.70000000E+00  1.30000000E+00
  1.30000000E+00  1.70000000E+00  1.50000000E+00  1.55000000E+00  1.30000000E+00
  1.70000000E+00  1.30000000E+00  1.70000000E+00  1.30000000E+00  1.30000000E+00
  1.70000000E+00  1.30000000E+00  1.70000000E+00  1.30000000E+00  1.30000000E+00
  1.30000000E+00  1.70000000E+00  1.30000000E+00  1.30000000E+00  1.30000000E+00
  1.70000000E+00  1.50000000E+00  1.70000000E+00  1.50000000E+00  1.70000000E+00
  1.50000000E+00  1.50000000E+00  1.50000000E+00  1.55000000E+00  1.30000000E+00
  1.30000000E+00  1.30000000E+00  1.30000000E+00  1.30000000E+00  1.30000000E+00
  1.30000000E+00  1.30000000E+00  1.55000000E+00  1.30000000E+00  1.70000000E+00
  1.30000000E+00  1.70000000E+00  1.30000000E+00  1.30000000E+00  1.50000000E+00
  8.00000000E-01  1.70000000E+00  1.50000000E+00  1.55000000E+00  1.30000000E+00
  1.70000000E+00  1.30000000E+00  1.70000000E+00  1.30000000E+00  1.30000000E+00
  1.70000000E+00  1.30000000E+00  1.30000000E+00  1.70000000E+00  1.30000000E+00
  1.30000000E+00  1.55000000E+00  1.30000000E+00  1.70000000E+00  1.55000000E+00
  1.30000000E+00  1.30000000E+00  1.55000000E+00  1.30000000E+00  1.30000000E+00
  1.70000000E+00  1.50000000E+00  1.55000000E+00  1.30000000E+00  1.70000000E+00
  1.30000000E+00  1.70000000E+00  1.30000000E+00  1.30000000E+00  1.50000000E+00
  8.00000000E-01  1.70000000E+00  1.50000000E+00  1.55000000E+00  1.30000000E+00
  1.70000000E+00  1.30000000E+00  1.30000000E+00  1.70000000E+00  1.50000000E+00
  1.55000000E+00  1.30000000E+00  1.70000000E+00  1.30000000E+00  1.30000000E+00
  1.70000000E+00  1.50000000E+00  1.55000000E+00  1.30000000E+00  1.70000000E+00
  1.30000000E+00  1.70000000E+00  1.30000000E+00  1.70000000E+00  1.30000000E+00
  1.30000000E+00  1.30000000E+00  1.70000000E+00  1.30000000E+00  1.30000000E+00
  1.30000000E+00  1.70000000E+00  1.50000000E+00  1.55000000E+00  1.30000000E+00
  1.70000000E+00  1.30000000E+00  1.70000000E+00  1.30000000E+00  1.70000000E+00
  1.30000000E+00  1.30000000E+00  1.30000000E+00  1.70000000E+00  1.30000000E+00
  1.30000000E+00  1.30000000E+00  1.70000000E+00  1.50000000E+00  1.55000000E+00
  1.30000000E+00  1.70000000E+00  1.30000000E+00  1.70000000E+00  1.30000000E+00
  1.30000000E+00  1.70000000E+00  1.30000000E+00  1.30000000E+00  1.70000000E+00
  1.30000000E+00  1.30000000E+00  1.70000000E+00  1.30000000E+00  1.30000000E+00
  1.55000000E+00  1.30000000E+00  1.30000000E+00  1.30000000E+00  1.70000000E+00
  1.50000000E+00  1.55000000E+00  1.30000000E+00  1.70000000E+00  1.30000000E+00
  1.70000000E+00  1.30000000E+00  1.30000000E+00  1.70000000E+00  1.50000000E+00
  1.55000000E+00  1.30000000E+00  1.30000000E+00  1.70000000E+00  1.50000000E+00
  1.55000000E+00  1.30000000E+00  1.70000000E+00  1.30000000E+00  1.70000000E+00
  1.30000000E+00  1.30000000E+00  1.70000000E+00  1.50000000E+00  1.55000000E+00
  1.30000000E+00  1.30000000E+00  1.70000000E+00  1.50000000E+00  1.55000000E+00
  1.30000000E+00  1.70000000E+00  1.30000000E+00  1.70000000E+00  1.30000000E+00
  1.30000000E+00  1.70000000E+00  1.70000000E+00  1.30000000E+00  1.70000000E+00
  1.30000000E+00  1.70000000E+00  1.30000000E+00  1.70000000E+00  1.30000000E+00
  1.70000000E+00  1.30000000E+00  1.70000000E+00  1.50000000E+00  1.55000000E+00
  1.30000000E+00  1.70000000E+00  1.30000000E+00  1.70000000E+00  1.30000000E+00
  1.70000000E+00  1.30000000E+00  1.30000000E+00  1.30000000E+00  1.70000000E+00
  1.30000000E+00  1.30000000E+00  1.30000000E+00  1.70000000E+00  1.50000000E+00
  1.55000000E+00  1.70000000E+00  1.30000000E+00  1.30000000E+00  1.70000000E+00
  1.30000000E+00  1.30000000E+00  1.70000000E+00  1.30000000E+00  1.30000000E+00
  1.70000000E+00  1.30000000E+00  1.70000000E+00  1.50000000E+00  1.55000000E+00
  1.30000000E+00  1.70000000E+00  1.30000000E+00  1.70000000E+00  1.30000000E+00
  1.70000000E+00  1.30000000E+00  1.30000000E+00  1.30000000E+00  1.50000000E+00
  8.00000000E-01  1.70000000E+00  1.50000000E+00  1.55000000E+00  1.30000000E+00
  1.70000000E+00  1.30000000E+00  1.70000000E+00  1.30000000E+00  1.30000000E+00
  1.70000000E+00  1.50000000E+00  1.50000000E+00  1.70000000E+00  1.50000000E+00
  1.55000000E+00  1.30000000E+00  1.70000000E+00  1.30000000E+00  1.70000000E+00
  1.30000000E+00  1.70000000E+00  1.30000000E+00  1.30000000E+00  1.30000000E+00
  1.70000000E+00  1.30000000E+00  1.30000000E+00  1.30000000E+00  1.70000000E+00
  1.50000000E+00  1.55000000E+00  1.30000000E+00  1.70000000E+00  1.30000000E+00
  1.30000000E+00  1.70000000E+00  1.50000000E+00  1.55000000E+00  1.70000000E+00
  1.30000000E+00  1.30000000E+00  1.70000000E+00  1.30000000E+00  1.30000000E+00
  1.70000000E+00  1.30000000E+00  1.30000000E+00  1.70000000E+00  1.30000000E+00
  1.70000000E+00  1.50000000E+00  1.55000000E+00  1.30000000E+00  1.70000000E+00
  1.30000000E+00  1.70000000E+00  1.30000000E+00  1.30000000E+00  1.70000000E+00
  1.70000000E+00  1.30000000E+00  1.70000000E+00  1.30000000E+00  1.70000000E+00
  1.30000000E+00  1.70000000E+00  1.30000000E+00  1.70000000E+00  1.30000000E+00
  1.70000000E+00  1.50000000E+00  1.55000000E+00  1.30000000E+00  1.70000000E+00
  1.30000000E+00  1.70000000E+00  1.30000000E+00  1.30000000E+00  1.30000000E+00
  1.70000000E+00  1.50000000E+00  1.55000000E+00  1.30000000E+00  1.70000000E+00
  1.30000000E+00  1.70000000E+00  1.30000000E+00  1.30000000E+00  1.70000000E+00
  1.70000000E+00  1.30000000E+00  1.70000000E+00  1.30000000E+00  1.70000000E+00
  1.30000000E+00  1.70000000E+00  1.30000000E+00  1.70000000E+00  1.30000000E+00
  1.70000000E+00  1.50000000E+00  1.55000000E+00  1.30000000E+00  1.30000000E+00
  1.50000000E+00  1.50000000E+00  1.50000000E+00  1.50000000E+00  1.50000000E+00
  1.50000000E+00  1.50000000E+00  1.50000000E+00  1.50000000E+00  1.50000000E+00
  1.50000000E+00  1.50000000E+00  1.50000000E+00  1.50000000E+00  1.50000000E+00
  1.50000000E+00  1.50000000E+00  1.50000000E+00  1.50000000E+00  1.50000000E+00
  1.50000000E+00  1.70000000E+00  1.70000000E+00  1.70000000E+00  1.70000000E+00
  1.70000000E+00  1.70000000E+00  1.70000000E+00  1.70000000E+00  1.70000000E+00
  1.70000000E+00  1.70000000E+00  1.70000000E+00  1.70000000E+00  1.70000000E+00
  1.70000000E+00  1.70000000E+00  1.70000000E+00  1.70000000E+00  1.70000000E+00
  1.70000000E+00  1.70000000E+00  1.70000000E+00  1.70000000E+00  1.50000000E+00
  8.00000000E-01  8.00000000E-01  1.50000000E+00  1.50000000E+00  8.00000000E-01
  8.00000000E-01  1.50000000E+00  1.50000000E+00  8.00000000E-01  8.00000000E-01
  1.50000000E+00  1.50000000E+00  8.00000000E-01  8.00000000E-01  1.50000000E+00
  1.50000000E+00  8.00000000E-01  8.00000000E-01  1.50000000E+00  1.50000000E+00
  8.00000000E-01  8.00000000E-01  1.50000000E+00  1.50000000E+00  8.00000000E-01
  8.00000000E-01  1.50000000E+00  1.50000000E+00  8.00000000E-01  8.00000000E-01
  1.50000000E+00  1.50000000E+00  8.00000000E-01  8.00000000E-01  1.50000000E+00
  1.50000000E+00  8.00000000E-01  8.00000000E-01  1.50000000E+00  1.50000000E+00
  8.00000000E-01  8.00000000E-01  1.50000000E+00  1.50000000E+00  8.00000000E-01
  8.00000000E-01  1.50000000E+00  1.50000000E+00  8.00000000E-01  8.00000000E-01
  1.50000000E+00  1.50000000E+00  8.00000000E-01  8.00000000E-01  1.50000000E+00
  1.50000000E+00  8.00000000E-01  8.00000000E-01  1.50000000E+00  1.50000000E+00
  8.00000000E-01  8.00000000E-01  1.50000000E+00  1.50000000E+00  8.00000000E-01
  8.00000000E-01  1.50000000E+00  1.50000000E+00  8.00000000E-01  8.00000000E-01
  1.50000000E+00  1.50000000E+00  8.00000000E-01  8.00000000E-01  1.50000000E+00
  1.50000000E+00  8.00000000E-01  8.00000000E-01  1.50000000E+00  1.50000000E+00
  8.00000000E-01  8.00000000E-01  1.50000000E+00  1.50000000E+00  8.00000000E-01
  8.00000000E-01  1.50000000E+00  1.50000000E+00  8.00000000E-01  8.00000000E-01
  1.50000000E+00  1.50000000E+00  8.00000000E-01  8.00000000E-01  1.50000000E+00
  1.50000000E+00  8.00000000E-01  8.00000000E-01  1.50000000E+00  1.50000000E+00
  8.00000000E-01  8.00000000E-01  1.50000000E+00  1.50000000E+00  8.00000000E-01
  8.00000000E-01  1.50000000E+00  1.50000000E+00  8.00000000E-01  8.00000000E-01
  1.50000000E+00  1.50000000E+00  8.00000000E-01  8.00000000E-01  1.50000000E+00
  1.50000000E+00  8.00000000E-01  8.00000000E-01  1.50000000E+00  1.50000000E+00
  8.00000000E-01  8.00000000E-01  1.50000000E+00  1.50000000E+00  8.00000000E-01
  8.00000000E-01  1.50000000E+00  1.50000000E+00  8.00000000E-01  8.00000000E-01
  1.50000000E+00  1.50000000E+00  8.00000000E-01  8.00000000E-01  1.50000000E+00
  1.50000000E+00  8.00000000E-01  8.00000000E-01  1.50000000E+00  1.50000000E+00
  8.00000000E-01  8.00000000E-01  1.50000000E+00  1.50000000E+00  8.00000000E-01
  8.00000000E-01  1.50000000E+00  1.50000000E+00  8.00000000E-01  8.00000000E-01
  1.50000000E+00  1.50000000E+00  8.00000000E-01  8.00000000E-01  1.50000000E+00
  1.50000000E+00  8.00000000E-01  8.00000000E-01  1.50000000E+00  1.50000000E+00
  8.00000000E-01  8.00000000E-01  1.50000000E+00  1.50000000E+00  8.00000000E-01
  8.00000000E-01  1.50000000E+00  1.50000000E+00  8.00000000E-01  8.00000000E-01
  1.50000000E+00  1.50000000E+00  8.00000000E-01  8.00000000E-01  1.50000000E+00
  1.50000000E+00  8.00000000E-01  8.00000000E-01  1.50000000E+00  1.50000000E+00
  8.00000000E-01  8.00000000E-01  1.50000000E+00  1.50000000E+00  8.00000000E-01
  8.00000000E-01  1.50000000E+00  1.50000000E+00  8.00000000E-01  8.00000000E-01
  1.50000000E+00  1.50000000E+00  8.00000000E-01  8.00000000E-01  1.50000000E+00
  1.50000000E+00  8.00000000E-01  8.00000000E-01  1.50000000E+00  1.50000000E+00
  8.00000000E-01  8.00000000E-01  1.50000000E+00  1.50000000E+00  8.00000000E-01
  8.00000000E-01  1.50000000E+00  1.50000000E+00  8.00000000E-01  8.00000000E-01
  1.50000000E+00  1.50000000E+00  8.00000000E-01  8.00000000E-01  1.50000000E+00
  1.50000000E+00  8.00000000E-01  8.00000000E-01  1.50000000E+00  1.50000000E+00
  8.00000000E-01  8.00000000E-01  1.50000000E+00  1.50000000E+00  8.00000000E-01
  8.00000000E-01  1.50000000E+00  1.50000000E+00  8.00000000E-01  8.00000000E-01
  1.50000000E+00  1.50000000E+00  8.00000000E-01  8.00000000E-01  1.50000000E+00
  1.50000000E+00  8.00000000E-01  8.00000000E-01  1.50000000E+00  1.50000000E+00
  8.00000000E-01  8.00000000E-01  1.50000000E+00  1.50000000E+00  8.00000000E-01
  8.00000000E-01  1.50000000E+00  1.50000000E+00  8.00000000E-01  8.00000000E-01
  1.50000000E+00  1.50000000E+00  8.00000000E-01  8.00000000E-01  1.50000000E+00
  1.50000000E+00  8.00000000E-01  8.00000000E-01  1.50000000E+00  1.50000000E+00
  8.00000000E-01  8.00000000E-01  1.50000000E+00  1.50000000E+00  8.00000000E-01
  8.00000000E-01  1.50000000E+00  1.50000000E+00  8.00000000E-01  8.00000000E-01
  1.50000000E+00  1.50000000E+00  8.00000000E-01  8.00000000E-01  1.50000000E+00
  1.50000000E+00  8.00000000E-01  8.00000000E-01  1.50000000E+00  1.50000000E+00
  8.00000000E-01  8.00000000E-01  1.50000000E+00  1.50000000E+00  8.00000000E-01
  8.00000000E-01  1.50000000E+00  1.50000000E+00  8.00000000E-01  8.00000000E-01
  1.50000000E+00  1.50000000E+00  8.00000000E-01  8.00000000E-01  1.50000000E+00
  1.50000000E+00  8.00000000E-01  8.00000000E-01  1.50000000E+00  1.50000000E+00
  8.00000000E-01  8.00000000E-01  1.50000000E+00  1.50000000E+00  8.00000000E-01
  8.00000000E-01  1.50000000E+00  1.50000000E+00  8.00000000E-01  8.00000000E-01
  1.50000000E+00  1.50000000E+00  8.00000000E-01  8.00000000E-01  1.50000000E+00
  1.50000000E+00  8.00000000E-01  8.00000000E-01  1.50000000E+00  1.50000000E+00
  8.00000000E-01  8.00000000E-01  1.50000000E+00  1.50000000E+00  8.00000000E-01
  8.00000000E-01  1.50000000E+00  1.50000000E+00  8.00000000E-01  8.00000000E-01
  1.50000000E+00  1.50000000E+00  8.00000000E-01  8.00000000E-01  1.50000000E+00
  1.50000000E+00  8.00000000E-01  8.00000000E-01  1.50000000E+00  1.50000000E+00
  8.00000000E-01  8.00000000E-01  1.50000000E+00  1.50000000E+00  8.00000000E-01
  8.00000000E-01  1.50000000E+00  1.50000000E+00  8.00000000E-01  8.00000000E-01
  1.50000000E+00  1.50000000E+00  8.00000000E-01  8.00000000E-01  1.50000000E+00
  1.50000000E+00  8.00000000E-01  8.00000000E-01  1.50000000E+00  1.50000000E+00
  8.00000000E-01  8.00000000E-01  1.50000000E+00  1.50000000E+00  8.00000000E-01
  8.00000000E-01  1.50000000E+00  1.50000000E+00  8.00000000E-01  8.00000000E-01
  1.50000000E+00  1.50000000E+00  8.00000000E-01  8.00000000E-01  1.50000000E+00
  1.50000000E+00  8.00000000E-01  8.00000000E-01  1.50000000E+00  1.50000000E+00
  8.00000000E-01  8.00000000E-01  1.50000000E+00  1.50000000E+00  8.00000000E-01
  8.00000000E-01  1.50000000E+00  1.50000000E+00  8.00000000E-01  8.00000000E-01
  1.50000000E+00  1.50000000E+00  8.00000000E-01  8.00000000E-01  1.50000000E+00
  1.50000000E+00  8.00000000E-01  8.00000000E-01  1.50000000E+00  1.50000000E+00
  8.00000000E-01  8.00000000E-01  1.50000000E+00  1.50000000E+00  8.00000000E-01
  8.00000000E-01  1.50000000E+00  1.50000000E+00  8.00000000E-01  8.00000000E-01
  1.50000000E+00  1.50000000E+00  8.00000000E-01  8.00000000E-01  1.50000000E+00
  1.50000000E+00  8.00000000E-01  8.00000000E-01  1.50000000E+00  1.50000000E+00
  8.00000000E-01  8.00000000E-01  1.50000000E+00  1.50000000E+00  8.00000000E-01
  8.00000000E-01  1.50000000E+00  1.50000000E+00  8.00000000E-01  8.00000000E-01
  1.50000000E+00  1.50000000E+00  8.00000000E-01  8.00000000E-01  1.50000000E+00
  1.50000000E+00  8.00000000E-01  8.00000000E-01  1.50000000E+00  1.50000000E+00
  8.00000000E-01  8.00000000E-01  1.50000000E+00  1.50000000E+00  8.00000000E-01
  8.00000000E-01  1.50000000E+00  1.50000000E+00  8.00000000E-01  8.00000000E-01
  1.50000000E+00  1.50000000E+00  8.00000000E-01  8.00000000E-01  1.50000000E+00
  1.50000000E+00  8.00000000E-01  8.00000000E-01  1.50000000E+00  1.50000000E+00
  8.00000000E-01  8.00000000E-01  1.50000000E+00  1.50000000E+00  8.00000000E-01
  8.00000000E-01  1.50000000E+00  1.50000000E+00  8.00000000E-01  8.00000000E-01
  1.50000000E+00  1.50000000E+00  8.00000000E-01  8.00000000E-01  1.50000000E+00
  1.50000000E+00  8.00000000E-01  8.00000000E-01  1.50000000E+00  1.50000000E+00
  8.00000000E-01  8.00000000E-01  1.50000000E+00  1.50000000E+00  8.00000000E-01
  8.00000000E-01  1.50000000E+00  1.50000000E+00  8.00000000E-01  8.00000000E-01
  1.50000000E+00  1.50000000E+00  8.00000000E-01  8.00000000E-01  1.50000000E+00
  1.50000000E+00  8.00000000E-01  8.00000000E-01  1.50000000E+00  1.50000000E+00
  8.00000000E-01  8.00000000E-01  1.50000000E+00  1.50000000E+00  8.00000000E-01
  8.00000000E-01  1.50000000E+00  1.50000000E+00  8.00000000E-01  8.00000000E-01
  1.50000000E+00  1.50000000E+00  8.00000000E-01  8.00000000E-01  1.50000000E+00
  1.50000000E+00  8.00000000E-01  8.00000000E-01  1.50000000E+00  1.50000000E+00
  8.00000000E-01  8.00000000E-01  1.50000000E+00  1.50000000E+00  8.00000000E-01
  8.00000000E-01  1.50000000E+00  1.50000000E+00  8.00000000E-01  8.00000000E-01
  1.50000000E+00  1.50000000E+00  8.00000000E-01  8.00000000E-01  1.50000000E+00
  1.50000000E+00  8.00000000E-01  8.00000000E-01  1.50000000E+00  1.50000000E+00
  8.00000000E-01  8.00000000E-01  1.50000000E+00  1.50000000E+00  8.00000000E-01
  8.00000000E-01  1.50000000E+00  1.50000000E+00  8.00000000E-01  8.00000000E-01
  1.50000000E+00  1.50000000E+00  8.00000000E-01  8.00000000E-01  1.50000000E+00
  1.50000000E+00  8.00000000E-01  8.00000000E-01  1.50000000E+00  1.50000000E+00
  8.00000000E-01  8.00000000E-01  1.50000000E+00  1.50000000E+00  8.00000000E-01
  8.00000000E-01  1.50000000E+00  1.50000000E+00  8.00000000E-01  8.00000000E-01
  1.50000000E+00  1.50000000E+00  8.00000000E-01  8.00000000E-01  1.50000000E+00
  1.50000000E+00  8.00000000E-01  8.00000000E-01  1.50000000E+00  1.50000000E+00
  8.00000000E-01  8.00000000E-01  1.50000000E+00  1.50000000E+00  8.00000000E-01
  8.00000000E-01  1.50000000E+00  1.50000000E+00  8.00000000E-01  8.00000000E-01
  1.50000000E+00  1.50000000E+00  8.00000000E-01  8.00000000E-01  1.50000000E+00
  1.50000000E+00  8.00000000E-01  8.00000000E-01  1.50000000E+00  1.50000000E+00
  8.00000000E-01  8.00000000E-01  1.50000000E+00  1.50000000E+00  8.00000000E-01
  8.00000000E-01  1.50000000E+00  1.50000000E+00  8.00000000E-01  8.00000000E-01
  1.50000000E+00  1.50000000E+00  8.00000000E-01  8.00000000E-01  1.50000000E+00
  1.50000000E+00  8.00000000E-01  8.00000000E-01  1.50000000E+00  1.50000000E+00
  8.00000000E-01  8.00000000E-01  1.50000000E+00  1.50000000E+00  8.00000000E-01
  8.00000000E-01  1.50000000E+00  1.50000000E+00  8.00000000E-01  8.00000000E-01
  1.50000000E+00  1.50000000E+00  8.00000000E-01  8.00000000E-01  1.50000000E+00
  1.50000000E+00  8.00000000E-01  8.00000000E-01  1.50000000E+00  1.50000000E+00
  8.00000000E-01  8.00000000E-01  1.50000000E+00  1.50000000E+00  8.00000000E-01
  8.00000000E-01  1.50000000E+00  1.50000000E+00  8.00000000E-01  8.00000000E-01
  1.50000000E+00  1.50000000E+00  8.00000000E-01  8.00000000E-01  1.50000000E+00
  1.50000000E+00  8.00000000E-01  8.00000000E-01  1.50000000E+00  1.50000000E+00
  8.00000000E-01  8.00000000E-01  1.50000000E+00  1.50000000E+00  8.00000000E-01
  8.00000000E-01  1.50000000E+00  1.50000000E+00  8.00000000E-01  8.00000000E-01
  1.50000000E+00  1.50000000E+00  8.00000000E-01  8.00000000E-01  1.50000000E+00
  1.50000000E+00  8.00000000E-01  8.00000000E-01  1.50000000E+00  1.50000000E+00
  8.00000000E-01  8.00000000E-01  1.50000000E+00  1.50000000E+00  8.00000000E-01
  8.00000000E-01  1.50000000E+00  1.50000000E+00  8.00000000E-01  8.00000000E-01
  1.50000000E+00  1.50000000E+00  8.00000000E-01  8.00000000E-01  1.50000000E+00
  1.50000000E+00  8.00000000E-01  8.00000000E-01  1.50000000E+00  1.50000000E+00
  8.00000000E-01  8.00000000E-01  1.50000000E+00  1.50000000E+00  8.00000000E-01
  8.00000000E-01  1.50000000E+00  1.50000000E+00  8.00000000E-01  8.00000000E-01
  1.50000000E+00  1.50000000E+00  8.00000000E-01  8.00000000E-01  1.50000000E+00
  1.50000000E+00  8.00000000E-01  8.00000000E-01  1.50000000E+00  1.50000000E+00
  8.00000000E-01  8.00000000E-01  1.50000000E+00  1.50000000E+00  8.00000000E-01
  8.00000000E-01  1.50000000E+00  1.50000000E+00  8.00000000E-01  8.00000000E-01
  1.50000000E+00  1.50000000E+00  8.00000000E-01  8.00000000E-01  1.50000000E+00
  1.50000000E+00  8.00000000E-01  8.00000000E-01  1.50000000E+00  1.50000000E+00
  8.00000000E-01  8.00000000E-01  1.50000000E+00  1.50000000E+00  8.00000000E-01
  8.00000000E-01  1.50000000E+00  1.50000000E+00  8.00000000E-01  8.00000000E-01
  1.50000000E+00  1.50000000E+00  8.00000000E-01  8.00000000E-01  1.50000000E+00
  1.50000000E+00  8.00000000E-01  8.00000000E-01  1.50000000E+00  1.50000000E+00
  8.00000000E-01  8.00000000E-01  1.50000000E+00  1.50000000E+00  8.00000000E-01
  8.00000000E-01  1.50000000E+00  1.50000000E+00  8.00000000E-01  8.00000000E-01
  1.50000000E+00  1.50000000E+00  8.00000000E-01  8.00000000E-01  1.50000000E+00
  1.50000000E+00  8.00000000E-01  8.00000000E-01  1.50000000E+00  1.50000000E+00
  8.00000000E-01  8.00000000E-01  1.50000000E+00  1.50000000E+00  8.00000000E-01
  8.00000000E-01  1.50000000E+00  1.50000000E+00  8.00000000E-01  8.00000000E-01
  1.50000000E+00  1.50000000E+00  8.00000000E-01  8.00000000E-01  1.50000000E+00
  1.50000000E+00  8.00000000E-01  8.00000000E-01  1.50000000E+00  1.50000000E+00
  8.00000000E-01  8.00000000E-01  1.50000000E+00  1.50000000E+00  8.00000000E-01
  8.00000000E-01  1.50000000E+00  1.50000000E+00  8.00000000E-01  8.00000000E-01
  1.50000000E+00  1.50000000E+00  8.00000000E-01  8.00000000E-01  1.50000000E+00
  1.50000000E+00  8.00000000E-01  8.00000000E-01  1.50000000E+00  1.50000000E+00
  8.00000000E-01  8.00000000E-01  1.50000000E+00  1.50000000E+00  8.00000000E-01
  8.00000000E-01  1.50000000E+00  1.50000000E+00  8.00000000E-01  8.00000000E-01
  1.50000000E+00  1.50000000E+00  8.00000000E-01  8.00000000E-01  1.50000000E+00
  1.50000000E+00  8.00000000E-01  8.00000000E-01  1.50000000E+00  1.50000000E+00
  8.00000000E-01  8.00000000E-01  1.50000000E+00  1.50000000E+00  8.00000000E-01
  8.00000000E-01  1.50000000E+00  1.50000000E+00  8.00000000E-01  8.00000000E-01
  1.50000000E+00  1.50000000E+00  8.00000000E-01  8.00000000E-01  1.50000000E+00
  1.50000000E+00  8.00000000E-01  8.00000000E-01  1.50000000E+00  1.50000000E+00
  8.00000000E-01  8.00000000E-01  1.50000000E+00  1.50000000E+00  8.00000000E-01
  8.00000000E-01  1.50000000E+00  1.50000000E+00  8.00000000E-01  8.00000000E-01
  1.50000000E+00  1.50000000E+00  8.00000000E-01  8.00000000E-01  1.50000000E+00
  1.50000000E+00  8.00000000E-01  8.00000000E-01  1.50000000E+00  1.50000000E+00
  8.00000000E-01  8.00000000E-01  1.50000000E+00  1.50000000E+00  8.00000000E-01
  8.00000000E-01  1.50000000E+00  1.50000000E+00  8.00000000E-01  8.00000000E-01
  1.50000000E+00  1.50000000E+00  8.00000000E-01  8.00000000E-01  1.50000000E+00
  1.50000000E+00  8.00000000E-01  8.00000000E-01  1.50000000E+00  1.50000000E+00
  8.00000000E-01  8.00000000E-01  1.50000000E+00  1.50000000E+00  8.00000000E-01
  8.00000000E-01  1.50000000E+00  1.50000000E+00  8.00000000E-01  8.00000000E-01
  1.50000000E+00  1.50000000E+00  8.00000000E-01  8.00000000E-01  1.50000000E+00
  1.50000000E+00  8.00000000E-01  8.00000000E-01  1.50000000E+00  1.50000000E+00
  8.00000000E-01  8.00000000E-01  1.50000000E+00  1.50000000E+00  8.00000000E-01
  8.00000000E-01  1.50000000E+00  1.50000000E+00  8.00000000E-01  8.00000000E-01
  1.50000000E+00  1.50000000E+00  8.00000000E-01  8.00000000E-01  1.50000000E+00
  1.50000000E+00  8.00000000E-01  8.00000000E-01  1.50000000E+00  1.50000000E+00
  8.00000000E-01  8.00000000E-01  1.50000000E+00  1.50000000E+00  8.00000000E-01
  8.00000000E-01  1.50000000E+00  1.50000000E+00  8.00000000E-01  8.00000000E-01
  1.50000000E+00  1.50000000E+00  8.00000000E-01  8.00000000E-01  1.50000000E+00
  1.50000000E+00  8.00000000E-01  8.00000000E-01  1.50000000E+00  1.50000000E+00
  8.00000000E-01  8.00000000E-01  1.50000000E+00  1.50000000E+00  8.00000000E-01
  8.00000000E-01  1.50000000E+00  1.50000000E+00  8.00000000E-01  8.00000000E-01
  1.50000000E+00  1.50000000E+00  8.00000000E-01  8.00000000E-01  1.50000000E+00
  1.50000000E+00  8.00000000E-01  8.00000000E-01  1.50000000E+00  1.50000000E+00
  8.00000000E-01  8.00000000E-01  1.50000000E+00  1.50000000E+00  8.00000000E-01
  8.00000000E-01  1.50000000E+00  1.50000000E+00  8.00000000E-01  8.00000000E-01
  1.50000000E+00  1.50000000E+00  8.00000000E-01  8.00000000E-01  1.50000000E+00
  1.50000000E+00  8.00000000E-01  8.00000000E-01  1.50000000E+00  1.50000000E+00
  8.00000000E-01  8.00000000E-01  1.50000000E+00  1.50000000E+00  8.00000000E-01
  8.00000000E-01  1.50000000E+00  1.50000000E+00  8.00000000E-01  8.00000000E-01
  1.50000000E+00  1.50000000E+00  8.00000000E-01  8.00000000E-01  1.50000000E+00
  1.50000000E+00  8.00000000E-01  8.00000000E-01  1.50000000E+00  1.50000000E+00
  8.00000000E-01  8.00000000E-01  1.50000000E+00  1.50000000E+00  8.00000000E-01
  8.00000000E-01  1.50000000E+00  1.50000000E+00  8.00000000E-01  8.00000000E-01
  1.50000000E+00  1.50000000E+00  8.00000000E-01  8.00000000E-01  1.50000000E+00
  1.50000000E+00  8.00000000E-01  8.00000000E-01  1.50000000E+00  1.50000000E+00
  8.00000000E-01  8.00000000E-01  1.50000000E+00  1.50000000E+00  8.00000000E-01
  8.00000000E-01  1.50000000E+00  1.50000000E+00  8.00000000E-01  8.00000000E-01
  1.50000000E+00  1.50000000E+00  8.00000000E-01  8.00000000E-01  1.50000000E+00
  1.50000000E+00  8.00000000E-01  8.00000000E-01  1.50000000E+00  1.50000000E+00
  8.00000000E-01  8.00000000E-01  1.50000000E+00  1.50000000E+00  8.00000000E-01
  8.00000000E-01  1.50000000E+00  1.50000000E+00  8.00000000E-01  8.00000000E-01
  1.50000000E+00  1.50000000E+00  8.00000000E-01  8.00000000E-01  1.50000000E+00
  1.50000000E+00  8.00000000E-01  8.00000000E-01  1.50000000E+00  1.50000000E+00
  8.00000000E-01  8.00000000E-01  1.50000000E+00  1.50000000E+00  8.00000000E-01
  8.00000000E-01  1.50000000E+00  1.50000000E+00  8.00000000E-01  8.00000000E-01
  1.50000000E+00  1.50000000E+00  8.00000000E-01  8.00000000E-01  1.50000000E+00
  1.50000000E+00  8.00000000E-01  8.00000000E-01  1.50000000E+00  1.50000000E+00
  8.00000000E-01  8.00000000E-01  1.50000000E+00  1.50000000E+00  8.00000000E-01
  8.00000000E-01  1.50000000E+00  1.50000000E+00  8.00000000E-01  8.00000000E-01
  1.50000000E+00  1.50000000E+00  8.00000000E-01  8.00000000E-01  1.50000000E+00
  1.50000000E+00  8.00000000E-01  8.00000000E-01  1.50000000E+00  1.50000000E+00
  8.00000000E-01  8.00000000E-01  1.50000000E+00  1.50000000E+00  8.00000000E-01
  8.00000000E-01  1.50000000E+00  1.50000000E+00  8.00000000E-01  8.00000000E-01
  1.50000000E+00  1.50000000E+00  8.00000000E-01  8.00000000E-01  1.50000000E+00
  1.50000000E+00  8.00000000E-01  8.00000000E-01  1.50000000E+00  1.50000000E+00
  8.00000000E-01  8.00000000E-01  1.50000000E+00  1.50000000E+00  8.00000000E-01
  8.00000000E-01  1.50000000E+00  1.50000000E+00  8.00000000E-01  8.00000000E-01
  1.50000000E+00  1.50000000E+00  8.00000000E-01  8.00000000E-01  1.50000000E+00
  1.50000000E+00  8.00000000E-01  8.00000000E-01  1.50000000E+00  1.50000000E+00
  8.00000000E-01  8.00000000E-01  1.50000000E+00  1.50000000E+00  8.00000000E-01
  8.00000000E-01  1.50000000E+00  1.50000000E+00  8.00000000E-01  8.00000000E-01
  1.50000000E+00  1.50000000E+00  8.00000000E-01  8.00000000E-01  1.50000000E+00
  1.50000000E+00  8.00000000E-01  8.00000000E-01  1.50000000E+00  1.50000000E+00
  8.00000000E-01  8.00000000E-01  1.50000000E+00  1.50000000E+00  8.00000000E-01
  8.00000000E-01  1.50000000E+00  1.50000000E+00  8.00000000E-01  8.00000000E-01
  1.50000000E+00  1.50000000E+00  8.00000000E-01  8.00000000E-01  1.50000000E+00
  1.50000000E+00  8.00000000E-01  8.00000000E-01  1.50000000E+00  1.50000000E+00
  8.00000000E-01  8.00000000E-01  1.50000000E+00  1.50000000E+00  8.00000000E-01
  8.00000000E-01  1.50000000E+00  1.50000000E+00  8.00000000E-01  8.00000000E-01
  1.50000000E+00  1.50000000E+00  8.00000000E-01  8.00000000E-01  1.50000000E+00
  1.50000000E+00  8.00000000E-01  8.00000000E-01  1.50000000E+00  1.50000000E+00
  8.00000000E-01  8.00000000E-01  1.50000000E+00  1.50000000E+00  8.00000000E-01
  8.00000000E-01  1.50000000E+00  1.50000000E+00  8.00000000E-01  8.00000000E-01
  1.50000000E+00  1.50000000E+00  8.00000000E-01  8.00000000E-01  1.50000000E+00
  1.50000000E+00  8.00000000E-01  8.00000000E-01  1.50000000E+00  1.50000000E+00
  8.00000000E-01  8.00000000E-01  1.50000000E+00  1.50000000E+00  8.00000000E-01
  8.00000000E-01  1.50000000E+00  1.50000000E+00  8.00000000E-01  8.00000000E-01
  1.50000000E+00  1.50000000E+00  8.00000000E-01  8.00000000E-01  1.50000000E+00
  1.50000000E+00  8.00000000E-01  8.00000000E-01  1.50000000E+00  1.50000000E+00
  8.00000000E-01  8.00000000E-01  1.50000000E+00  1.50000000E+00  8.00000000E-01
  8.00000000E-01  1.50000000E+00  1.50000000E+00  8.00000000E-01  8.00000000E-01
  1.50000000E+00  1.50000000E+00  8.00000000E-01  8.00000000E-01  1.50000000E+00
  1.50000000E+00  8.00000000E-01  8.00000000E-01  1.50000000E+00  1.50000000E+00
  8.00000000E-01  8.00000000E-01  1.50000000E+00  1.50000000E+00  8.00000000E-01
  8.00000000E-01  1.50000000E+00  1.50000000E+00  8.00000000E-01  8.00000000E-01
  1.50000000E+00  1.50000000E+00  8.00000000E-01  8.00000000E-01  1.50000000E+00
  1.50000000E+00  8.00000000E-01  8.00000000E-01  1.50000000E+00  1.50000000E+00
  8.00000000E-01  8.00000000E-01  1.50000000E+00  1.50000000E+00  8.00000000E-01
  8.00000000E-01  1.50000000E+00  1.50000000E+00  8.00000000E-01  8.00000000E-01
  1.50000000E+00  1.50000000E+00  8.00000000E-01  8.00000000E-01  1.50000000E+00
  1.50000000E+00  8.00000000E-01  8.00000000E-01  1.50000000E+00  1.50000000E+00
  8.00000000E-01  8.00000000E-01  1.50000000E+00  1.50000000E+00  8.00000000E-01
  8.00000000E-01  1.50000000E+00  1.50000000E+00  8.00000000E-01  8.00000000E-01
  1.50000000E+00  1.50000000E+00  8.00000000E-01  8.00000000E-01  1.50000000E+00
  1.50000000E+00  8.00000000E-01  8.00000000E-01  1.50000000E+00  1.50000000E+00
  8.00000000E-01  8.00000000E-01  1.50000000E+00  1.50000000E+00  8.00000000E-01
  8.00000000E-01  1.50000000E+00  1.50000000E+00  8.00000000E-01  8.00000000E-01
  1.50000000E+00  1.50000000E+00  8.00000000E-01  8.00000000E-01  1.50000000E+00
  1.50000000E+00  8.00000000E-01  8.00000000E-01  1.50000000E+00  1.50000000E+00
  8.00000000E-01  8.00000000E-01  1.50000000E+00  1.50000000E+00  8.00000000E-01
  8.00000000E-01  1.50000000E+00  1.50000000E+00  8.00000000E-01  8.00000000E-01
  1.50000000E+00  1.50000000E+00  8.00000000E-01  8.00000000E-01  1.50000000E+00
  1.50000000E+00  8.00000000E-01  8.00000000E-01  1.50000000E+00  1.50000000E+00
  8.00000000E-01  8.00000000E-01  1.50000000E+00  1.50000000E+00  8.00000000E-01
  8.00000000E-01  1.50000000E+00  1.50000000E+00  8.00000000E-01  8.00000000E-01
  1.50000000E+00  1.50000000E+00  8.00000000E-01  8.00000000E-01  1.50000000E+00
  1.50000000E+00  8.00000000E-01  8.00000000E-01  1.50000000E+00  1.50000000E+00
  8.00000000E-01  8.00000000E-01  1.50000000E+00  1.50000000E+00  8.00000000E-01
  8.00000000E-01  1.50000000E+00  1.50000000E+00  8.00000000E-01  8.00000000E-01
  1.50000000E+00  1.50000000E+00  8.00000000E-01  8.00000000E-01  1.50000000E+00
  1.50000000E+00  8.00000000E-01  8.00000000E-01  1.50000000E+00  1.50000000E+00
  8.00000000E-01  8.00000000E-01  1.50000000E+00  1.50000000E+00  8.00000000E-01
  8.00000000E-01  1.50000000E+00  1.50000000E+00  8.00000000E-01  8.00000000E-01
  1.50000000E+00  1.50000000E+00  8.00000000E-01  8.00000000E-01  1.50000000E+00
  1.50000000E+00  8.00000000E-01  8.00000000E-01  1.50000000E+00  1.50000000E+00
  8.00000000E-01  8.00000000E-01  1.50000000E+00  1.50000000E+00  8.00000000E-01
  8.00000000E-01  1.50000000E+00  1.50000000E+00  8.00000000E-01  8.00000000E-01
  1.50000000E+00  1.50000000E+00  8.00000000E-01  8.00000000E-01  1.50000000E+00
  1.50000000E+00  8.00000000E-01  8.00000000E-01  1.50000000E+00  1.50000000E+00
  8.00000000E-01  8.00000000E-01  1.50000000E+00  1.50000000E+00  8.00000000E-01
  8.00000000E-01  1.50000000E+00  1.50000000E+00  8.00000000E-01  8.00000000E-01
  1.50000000E+00  1.50000000E+00  8.00000000E-01  8.00000000E-01  1.50000000E+00
  1.50000000E+00  8.00000000E-01  8.00000000E-01  1.50000000E+00  1.50000000E+00
  8.00000000E-01  8.00000000E-01  1.50000000E+00  1.50000000E+00  8.00000000E-01
  8.00000000E-01  1.50000000E+00  1.50000000E+00  8.00000000E-01  8.00000000E-01
  1.50000000E+00  1.50000000E+00  8.00000000E-01  8.00000000E-01  1.50000000E+00
  1.50000000E+00  8.00000000E-01  8.00000000E-01  1.50000000E+00  1.50000000E+00
  8.00000000E-01  8.00000000E-01  1.50000000E+00  1.50000000E+00  8.00000000E-01
  8.00000000E-01  1.50000000E+00  1.50000000E+00  8.00000000E-01  8.00000000E-01
  1.50000000E+00  1.50000000E+00  8.00000000E-01  8.00000000E-01  1.50000000E+00
  1.50000000E+00  8.00000000E-01  8.00000000E-01  1.50000000E+00  1.50000000E+00
  8.00000000E-01  8.00000000E-01  1.50000000E+00  1.50000000E+00  8.00000000E-01
  8.00000000E-01  1.50000000E+00  1.50000000E+00  8.00000000E-01  8.00000000E-01
  1.50000000E+00  1.50000000E+00  8.00000000E-01  8.00000000E-01  1.50000000E+00
  1.50000000E+00  8.00000000E-01  8.00000000E-01  1.50000000E+00  1.50000000E+00
  8.00000000E-01  8.00000000E-01  1.50000000E+00  1.50000000E+00  8.00000000E-01
  8.00000000E-01  1.50000000E+00  1.50000000E+00  8.00000000E-01  8.00000000E-01
  1.50000000E+00  1.50000000E+00  8.00000000E-01  8.00000000E-01  1.50000000E+00
  1.50000000E+00  8.00000000E-01  8.00000000E-01  1.50000000E+00  1.50000000E+00
  8.00000000E-01  8.00000000E-01  1.50000000E+00  1.50000000E+00  8.00000000E-01
  8.00000000E-01  1.50000000E+00  1.50000000E+00  8.00000000E-01  8.00000000E-01
  1.50000000E+00  1.50000000E+00  8.00000000E-01  8.00000000E-01  1.50000000E+00
  1.50000000E+00  8.00000000E-01  8.00000000E-01  1.50000000E+00  1.50000000E+00
  8.00000000E-01  8.00000000E-01  1.50000000E+00  1.50000000E+00  8.00000000E-01
  8.00000000E-01  1.50000000E+00  1.50000000E+00  8.00000000E-01  8.00000000E-01
  1.50000000E+00  1.50000000E+00  8.00000000E-01  8.00000000E-01  1.50000000E+00
  1.50000000E+00  8.00000000E-01  8.00000000E-01  1.50000000E+00  1.50000000E+00
  8.00000000E-01  8.00000000E-01  1.50000000E+00  1.50000000E+00  8.00000000E-01
  8.00000000E-01  1.50000000E+00  1.50000000E+00  8.00000000E-01  8.00000000E-01
  1.50000000E+00  1.50000000E+00  8.00000000E-01  8.00000000E-01  1.50000000E+00
  1.50000000E+00  8.00000000E-01  8.00000000E-01  1.50000000E+00  1.50000000E+00
  8.00000000E-01  8.00000000E-01  1.50000000E+00  1.50000000E+00  8.00000000E-01
  8.00000000E-01  1.50000000E+00  1.50000000E+00  8.00000000E-01  8.00000000E-01
  1.50000000E+00  1.50000000E+00  8.00000000E-01  8.00000000E-01  1.50000000E+00
  1.50000000E+00  8.00000000E-01  8.00000000E-01  1.50000000E+00  1.50000000E+00
  8.00000000E-01  8.00000000E-01  1.50000000E+00  1.50000000E+00  8.00000000E-01
  8.00000000E-01  1.50000000E+00  1.50000000E+00  8.00000000E-01  8.00000000E-01
  1.50000000E+00  1.50000000E+00  8.00000000E-01  8.00000000E-01  1.50000000E+00
  1.50000000E+00  8.00000000E-01  8.00000000E-01  1.50000000E+00  1.50000000E+00
  8.00000000E-01  8.00000000E-01  1.50000000E+00  1.50000000E+00  8.00000000E-01
  8.00000000E-01  1.50000000E+00  1.50000000E+00  8.00000000E-01  8.00000000E-01
  1.50000000E+00  1.50000000E+00  8.00000000E-01  8.00000000E-01  1.50000000E+00
  1.50000000E+00  8.00000000E-01  8.00000000E-01  1.50000000E+00  1.50000000E+00
  8.00000000E-01  8.00000000E-01  1.50000000E+00  1.50000000E+00  8.00000000E-01
  8.00000000E-01  1.50000000E+00  1.50000000E+00  8.00000000E-01  8.00000000E-01
  1.50000000E+00  1.50000000E+00  8.00000000E-01  8.00000000E-01  1.50000000E+00
  1.50000000E+00  8.00000000E-01  8.00000000E-01  1.50000000E+00  1.50000000E+00
  8.00000000E-01  8.00000000E-01  1.50000000E+00  1.50000000E+00  8.00000000E-01
  8.00000000E-01  1.50000000E+00  1.50000000E+00  8.00000000E-01  8.00000000E-01
  1.50000000E+00  1.50000000E+00  8.00000000E-01  8.00000000E-01  1.50000000E+00
  1.50000000E+00  8.00000000E-01  8.00000000E-01  1.50000000E+00  1.50000000E+00
  8.00000000E-01  8.00000000E-01  1.50000000E+00  1.50000000E+00  8.00000000E-01
  8.00000000E-01  1.50000000E+00  1.50000000E+00  8.00000000E-01  8.00000000E-01
  1.50000000E+00  1.50000000E+00  8.00000000E-01  8.00000000E-01  1.50000000E+00
  1.50000000E+00  8.00000000E-01  8.00000000E-01  1.50000000E+00  1.50000000E+00
  8.00000000E-01  8.00000000E-01  1.50000000E+00  1.50000000E+00  8.00000000E-01
  8.00000000E-01  1.50000000E+00  1.50000000E+00  8.00000000E-01  8.00000000E-01
  1.50000000E+00  1.50000000E+00  8.00000000E-01  8.00000000E-01  1.50000000E+00
  1.50000000E+00  8.00000000E-01  8.00000000E-01  1.50000000E+00  1.50000000E+00
  8.00000000E-01  8.00000000E-01  1.50000000E+00  1.50000000E+00  8.00000000E-01
  8.00000000E-01  1.50000000E+00  1.50000000E+00  8.00000000E-01  8.00000000E-01
  1.50000000E+00  1.50000000E+00  8.00000000E-01  8.00000000E-01  1.50000000E+00
  1.50000000E+00  8.00000000E-01  8.00000000E-01  1.50000000E+00  1.50000000E+00
  8.00000000E-01  8.00000000E-01  1.50000000E+00  1.50000000E+00  8.00000000E-01
  8.00000000E-01  1.50000000E+00  1.50000000E+00  8.00000000E-01  8.00000000E-01
  1.50000000E+00  1.50000000E+00  8.00000000E-01  8.00000000E-01  1.50000000E+00
  1.50000000E+00  8.00000000E-01  8.00000000E-01  1.50000000E+00  1.50000000E+00
  8.00000000E-01  8.00000000E-01  1.50000000E+00  1.50000000E+00  8.00000000E-01
  8.00000000E-01  1.50000000E+00  1.50000000E+00  8.00000000E-01  8.00000000E-01
  1.50000000E+00  1.50000000E+00  8.00000000E-01  8.00000000E-01  1.50000000E+00
  1.50000000E+00  8.00000000E-01  8.00000000E-01  1.50000000E+00  1.50000000E+00
  8.00000000E-01  8.00000000E-01  1.50000000E+00  1.50000000E+00  8.00000000E-01
  8.00000000E-01  1.50000000E+00  1.50000000E+00  8.00000000E-01  8.00000000E-01
  1.50000000E+00  1.50000000E+00  8.00000000E-01  8.00000000E-01  1.50000000E+00
  1.50000000E+00  8.00000000E-01  8.00000000E-01  1.50000000E+00  1.50000000E+00
  8.00000000E-01  8.00000000E-01  1.50000000E+00  1.50000000E+00  8.00000000E-01
  8.00000000E-01  1.50000000E+00  1.50000000E+00  8.00000000E-01  8.00000000E-01
  1.50000000E+00  1.50000000E+00  8.00000000E-01  8.00000000E-01  1.50000000E+00
  1.50000000E+00  8.00000000E-01  8.00000000E-01  1.50000000E+00  1.50000000E+00
  8.00000000E-01  8.00000000E-01  1.50000000E+00  1.50000000E+00  8.00000000E-01
  8.00000000E-01  1.50000000E+00  1.50000000E+00  8.00000000E-01  8.00000000E-01
  1.50000000E+00  1.50000000E+00  8.00000000E-01  8.00000000E-01  1.50000000E+00
  1.50000000E+00  8.00000000E-01  8.00000000E-01  1.50000000E+00  1.50000000E+00
  8.00000000E-01  8.00000000E-01  1.50000000E+00  1.50000000E+00  8.00000000E-01
  8.00000000E-01  1.50000000E+00  1.50000000E+00  8.00000000E-01  8.00000000E-01
  1.50000000E+00  1.50000000E+00  8.00000000E-01  8.00000000E-01  1.50000000E+00
  1.50000000E+00  8.00000000E-01  8.00000000E-01  1.50000000E+00  1.50000000E+00
  8.00000000E-01  8.00000000E-01  1.50000000E+00  1.50000000E+00  8.00000000E-01
  8.00000000E-01  1.50000000E+00  1.50000000E+00  8.00000000E-01  8.00000000E-01
  1.50000000E+00  1.50000000E+00  8.00000000E-01  8.00000000E-01  1.50000000E+00
  1.50000000E+00  8.00000000E-01  8.00000000E-01  1.50000000E+00  1.50000000E+00
  8.00000000E-01  8.00000000E-01  1.50000000E+00  1.50000000E+00  8.00000000E-01
  8.00000000E-01  1.50000000E+00  1.50000000E+00  8.00000000E-01  8.00000000E-01
  1.50000000E+00  1.50000000E+00  8.00000000E-01  8.00000000E-01  1.50000000E+00
  1.50000000E+00  8.00000000E-01  8.00000000E-01  1.50000000E+00  1.50000000E+00
  8.00000000E-01  8.00000000E-01  1.50000000E+00  1.50000000E+00  8.00000000E-01
  8.00000000E-01  1.50000000E+00  1.50000000E+00  8.00000000E-01  8.00000000E-01
  1.50000000E+00  1.50000000E+00  8.00000000E-01  8.00000000E-01  1.50000000E+00
  1.50000000E+00  8.00000000E-01  8.00000000E-01  1.50000000E+00  1.50000000E+00
  8.00000000E-01  8.00000000E-01  1.50000000E+00  1.50000000E+00  8.00000000E-01
  8.00000000E-01  1.50000000E+00  1.50000000E+00  8.00000000E-01  8.00000000E-01
  1.50000000E+00  1.50000000E+00  8.00000000E-01  8.00000000E-01  1.50000000E+00
  1.50000000E+00  8.00000000E-01  8.00000000E-01  1.50000000E+00  1.50000000E+00
  8.00000000E-01  8.00000000E-01  1.50000000E+00  1.50000000E+00  8.00000000E-01
  8.00000000E-01  1.50000000E+00  1.50000000E+00  8.00000000E-01  8.00000000E-01
  1.50000000E+00  1.50000000E+00  8.00000000E-01  8.00000000E-01  1.50000000E+00
  1.50000000E+00  8.00000000E-01  8.00000000E-01  1.50000000E+00  1.50000000E+00
  8.00000000E-01  8.00000000E-01  1.50000000E+00  1.50000000E+00  8.00000000E-01
  8.00000000E-01  1.50000000E+00  1.50000000E+00  8.00000000E-01  8.00000000E-01
  1.50000000E+00  1.50000000E+00  8.00000000E-01  8.00000000E-01  1.50000000E+00
  1.50000000E+00  8.00000000E-01  8.00000000E-01  1.50000000E+00  1.50000000E+00
  8.00000000E-01  8.00000000E-01  1.50000000E+00  1.50000000E+00  8.00000000E-01
  8.00000000E-01  1.50000000E+00  1.50000000E+00  8.00000000E-01  8.00000000E-01
  1.50000000E+00  1.50000000E+00  8.00000000E-01  8.00000000E-01  1.50000000E+00
  1.50000000E+00  8.00000000E-01  8.00000000E-01  1.50000000E+00  1.50000000E+00
  8.00000000E-01  8.00000000E-01  1.50000000E+00  1.50000000E+00  8.00000000E-01
  8.00000000E-01  1.50000000E+00  1.50000000E+00  8.00000000E-01  8.00000000E-01
  1.50000000E+00  1.50000000E+00  8.00000000E-01  8.00000000E-01  1.50000000E+00
  1.50000000E+00  8.00000000E-01  8.00000000E-01  1.50000000E+00  1.50000000E+00
  8.00000000E-01  8.00000000E-01  1.50000000E+00  1.50000000E+00  8.00000000E-01
  8.00000000E-01  1.50000000E+00  1.50000000E+00  8.00000000E-01  8.00000000E-01
  1.50000000E+00  1.50000000E+00  8.00000000E-01  8.00000000E-01  1.50000000E+00
  1.50000000E+00  8.00000000E-01  8.00000000E-01  1.50000000E+00  1.50000000E+00
  8.00000000E-01  8.00000000E-01  1.50000000E+00  1.50000000E+00  8.00000000E-01
  8.00000000E-01  1.50000000E+00  1.50000000E+00  8.00000000E-01  8.00000000E-01
  1.50000000E+00  1.50000000E+00  8.00000000E-01  8.00000000E-01  1.50000000E+00
  1.50000000E+00  8.00000000E-01  8.00000000E-01  1.50000000E+00  1.50000000E+00
  8.00000000E-01  8.00000000E-01  1.50000000E+00  1.50000000E+00  8.00000000E-01
  8.00000000E-01  1.50000000E+00  1.50000000E+00  8.00000000E-01  8.00000000E-01
  1.50000000E+00  1.50000000E+00  8.00000000E-01  8.00000000E-01  1.50000000E+00
  1.50000000E+00  8.00000000E-01  8.00000000E-01  1.50000000E+00  1.50000000E+00
  8.00000000E-01  8.00000000E-01  1.50000000E+00  1.50000000E+00  8.00000000E-01
  8.00000000E-01  1.50000000E+00  1.50000000E+00  8.00000000E-01  8.00000000E-01
  1.50000000E+00  1.50000000E+00  8.00000000E-01  8.00000000E-01  1.50000000E+00
  1.50000000E+00  8.00000000E-01  8.00000000E-01  1.50000000E+00  1.50000000E+00
  8.00000000E-01  8.00000000E-01  1.50000000E+00  1.50000000E+00  8.00000000E-01
  8.00000000E-01  1.50000000E+00  1.50000000E+00  8.00000000E-01  8.00000000E-01
  1.50000000E+00  1.50000000E+00  8.00000000E-01  8.00000000E-01  1.50000000E+00
  1.50000000E+00  8.00000000E-01  8.00000000E-01  1.50000000E+00  1.50000000E+00
  8.00000000E-01  8.00000000E-01  1.50000000E+00  1.50000000E+00  8.00000000E-01
  8.00000000E-01  1.50000000E+00  1.50000000E+00  8.00000000E-01  8.00000000E-01
  1.50000000E+00  1.50000000E+00  8.00000000E-01  8.00000000E-01  1.50000000E+00
  1.50000000E+00  8.00000000E-01  8.00000000E-01  1.50000000E+00  1.50000000E+00
  8.00000000E-01  8.00000000E-01  1.50000000E+00  1.50000000E+00  8.00000000E-01
  8.00000000E-01  1.50000000E+00  1.50000000E+00  8.00000000E-01  8.00000000E-01
  1.50000000E+00  1.50000000E+00  8.00000000E-01  8.00000000E-01  1.50000000E+00
  1.50000000E+00  8.00000000E-01  8.00000000E-01  1.50000000E+00  1.50000000E+00
  8.00000000E-01  8.00000000E-01  1.50000000E+00  1.50000000E+00  8.00000000E-01
  8.00000000E-01  1.50000000E+00  1.50000000E+00  8.00000000E-01  8.00000000E-01
  1.50000000E+00  1.50000000E+00  8.00000000E-01  8.00000000E-01  1.50000000E+00
  1.50000000E+00  8.00000000E-01  8.00000000E-01  1.50000000E+00  1.50000000E+00
  8.00000000E-01  8.00000000E-01  1.50000000E+00  1.50000000E+00  8.00000000E-01
  8.00000000E-01  1.50000000E+00  1.50000000E+00  8.00000000E-01  8.00000000E-01
  1.50000000E+00  1.50000000E+00  8.00000000E-01  8.00000000E-01  1.50000000E+00
  1.50000000E+00  8.00000000E-01  8.00000000E-01  1.50000000E+00  1.50000000E+00
  8.00000000E-01  8.00000000E-01  1.50000000E+00  1.50000000E+00  8.00000000E-01
  8.00000000E-01  1.50000000E+00  1.50000000E+00  8.00000000E-01  8.00000000E-01
  1.50000000E+00  1.50000000E+00  8.00000000E-01  8.00000000E-01  1.50000000E+00
  1.50000000E+00  8.00000000E-01  8.00000000E-01  1.50000000E+00  1.50000000E+00
  8.00000000E-01  8.00000000E-01  1.50000000E+00  1.50000000E+00  8.00000000E-01
  8.00000000E-01  1.50000000E+00  1.50000000E+00  8.00000000E-01  8.00000000E-01
  1.50000000E+00  1.50000000E+00  8.00000000E-01  8.00000000E-01  1.50000000E+00
  1.50000000E+00  8.00000000E-01  8.00000000E-01  1.50000000E+00  1.50000000E+00
  8.00000000E-01  8.00000000E-01  1.50000000E+00  1.50000000E+00  8.00000000E-01
  8.00000000E-01  1.50000000E+00  1.50000000E+00  8.00000000E-01  8.00000000E-01
  1.50000000E+00  1.50000000E+00  8.00000000E-01  8.00000000E-01  1.50000000E+00
  1.50000000E+00  8.00000000E-01  8.00000000E-01  1.50000000E+00  1.50000000E+00
  8.00000000E-01  8.00000000E-01  1.50000000E+00  1.50000000E+00  8.00000000E-01
  8.00000000E-01  1.50000000E+00  1.50000000E+00  8.00000000E-01  8.00000000E-01
  1.50000000E+00  1.50000000E+00  8.00000000E-01  8.00000000E-01  1.50000000E+00
  1.50000000E+00  8.00000000E-01  8.00000000E-01  1.50000000E+00  1.50000000E+00
  8.00000000E-01  8.00000000E-01  1.50000000E+00  1.50000000E+00  8.00000000E-01
  8.00000000E-01  1.50000000E+00  1.50000000E+00  8.00000000E-01  8.00000000E-01
  1.50000000E+00  1.50000000E+00  8.00000000E-01  8.00000000E-01  1.50000000E+00
  1.50000000E+00  8.00000000E-01  8.00000000E-01  1.50000000E+00  1.50000000E+00
  8.00000000E-01  8.00000000E-01  1.50000000E+00  1.50000000E+00  8.00000000E-01
  8.00000000E-01  1.50000000E+00  1.50000000E+00  8.00000000E-01  8.00000000E-01
  1.50000000E+00  1.50000000E+00  8.00000000E-01  8.00000000E-01  1.50000000E+00
  1.50000000E+00  8.00000000E-01  8.00000000E-01  1.50000000E+00  1.50000000E+00
  8.00000000E-01  8.00000000E-01  1.50000000E+00  1.50000000E+00  8.00000000E-01
  8.00000000E-01  1.50000000E+00  1.50000000E+00  8.00000000E-01  8.00000000E-01
  1.50000000E+00  1.50000000E+00  8.00000000E-01  8.00000000E-01  1.50000000E+00
  1.50000000E+00  8.00000000E-01  8.00000000E-01  1.50000000E+00  1.50000000E+00
  8.00000000E-01  8.00000000E-01  1.50000000E+00  1.50000000E+00  8.00000000E-01
  8.00000000E-01  1.50000000E+00  1.50000000E+00  8.00000000E-01  8.00000000E-01
  1.50000000E+00  1.50000000E+00  8.00000000E-01  8.00000000E-01  1.50000000E+00
  1.50000000E+00  8.00000000E-01  8.00000000E-01  1.50000000E+00  1.50000000E+00
  8.00000000E-01  8.00000000E-01  1.50000000E+00  1.50000000E+00  8.00000000E-01
  8.00000000E-01  1.50000000E+00  1.50000000E+00  8.00000000E-01  8.00000000E-01
  1.50000000E+00  1.50000000E+00  8.00000000E-01  8.00000000E-01  1.50000000E+00
  1.50000000E+00  8.00000000E-01  8.00000000E-01  1.50000000E+00  1.50000000E+00
  8.00000000E-01  8.00000000E-01  1.50000000E+00  1.50000000E+00  8.00000000E-01
  8.00000000E-01  1.50000000E+00  1.50000000E+00  8.00000000E-01  8.00000000E-01
  1.50000000E+00  1.50000000E+00  8.00000000E-01  8.00000000E-01  1.50000000E+00
  1.50000000E+00  8.00000000E-01  8.00000000E-01  1.50000000E+00  1.50000000E+00
  8.00000000E-01  8.00000000E-01  1.50000000E+00  1.50000000E+00  8.00000000E-01
  8.00000000E-01  1.50000000E+00  1.50000000E+00  8.00000000E-01  8.00000000E-01
  1.50000000E+00  1.50000000E+00  8.00000000E-01  8.00000000E-01  1.50000000E+00
  1.50000000E+00  8.00000000E-01  8.00000000E-01  1.50000000E+00  1.50000000E+00
  8.00000000E-01  8.00000000E-01  1.50000000E+00  1.50000000E+00  8.00000000E-01
  8.00000000E-01  1.50000000E+00  1.50000000E+00  8.00000000E-01  8.00000000E-01
  1.50000000E+00  1.50000000E+00  8.00000000E-01  8.00000000E-01  1.50000000E+00
  1.50000000E+00  8.00000000E-01  8.00000000E-01  1.50000000E+00  1.50000000E+00
  8.00000000E-01  8.00000000E-01  1.50000000E+00  1.50000000E+00  8.00000000E-01
  8.00000000E-01  1.50000000E+00  1.50000000E+00  8.00000000E-01  8.00000000E-01
  1.50000000E+00  1.50000000E+00  8.00000000E-01  8.00000000E-01  1.50000000E+00
  1.50000000E+00  8.00000000E-01  8.00000000E-01  1.50000000E+00  1.50000000E+00
  8.00000000E-01  8.00000000E-01  1.50000000E+00  1.50000000E+00  8.00000000E-01
  8.00000000E-01  1.50000000E+00  1.50000000E+00  8.00000000E-01  8.00000000E-01
  1.50000000E+00  1.50000000E+00  8.00000000E-01  8.00000000E-01  1.50000000E+00
  1.50000000E+00  8.00000000E-01  8.00000000E-01  1.50000000E+00  1.50000000E+00
  8.00000000E-01  8.00000000E-01  1.50000000E+00  1.50000000E+00  8.00000000E-01
  8.00000000E-01  1.50000000E+00  1.50000000E+00  8.00000000E-01  8.00000000E-01
  1.50000000E+00  1.50000000E+00  8.00000000E-01  8.00000000E-01  1.50000000E+00
  1.50000000E+00  8.00000000E-01  8.00000000E-01  1.50000000E+00  1.50000000E+00
  8.00000000E-01  8.00000000E-01  1.50000000E+00  1.50000000E+00  8.00000000E-01
  8.00000000E-01  1.50000000E+00  1.50000000E+00  8.00000000E-01  8.00000000E-01
  1.50000000E+00  1.50000000E+00  8.00000000E-01  8.00000000E-01  1.50000000E+00
  1.50000000E+00  8.00000000E-01  8.00000000E-01  1.50000000E+00  1.50000000E+00
  8.00000000E-01  8.00000000E-01  1.50000000E+00  1.50000000E+00  8.00000000E-01
  8.00000000E-01  1.50000000E+00  1.50000000E+00  8.00000000E-01  8.00000000E-01
  1.50000000E+00  1.50000000E+00  8.00000000E-01  8.00000000E-01  1.50000000E+00
  1.50000000E+00  8.00000000E-01  8.00000000E-01  1.50000000E+00  1.50000000E+00
  8.00000000E-01  8.00000000E-01  1.50000000E+00  1.50000000E+00  8.00000000E-01
  8.00000000E-01  1.50000000E+00  1.50000000E+00  8.00000000E-01  8.00000000E-01
  1.50000000E+00  1.50000000E+00  8.00000000E-01  8.00000000E-01  1.50000000E+00
  1.50000000E+00  8.00000000E-01  8.00000000E-01  1.50000000E+00  1.50000000E+00
  8.00000000E-01  8.00000000E-01  1.50000000E+00  1.50000000E+00  8.00000000E-01
  8.00000000E-01  1.50000000E+00  1.50000000E+00  8.00000000E-01  8.00000000E-01
  1.50000000E+00  1.50000000E+00  8.00000000E-01  8.00000000E-01  1.50000000E+00
  1.50000000E+00  8.00000000E-01  8.00000000E-01  1.50000000E+00  1.50000000E+00
  8.00000000E-01  8.00000000E-01  1.50000000E+00  1.50000000E+00  8.00000000E-01
  8.00000000E-01  1.50000000E+00  1.50000000E+00  8.00000000E-01  8.00000000E-01
  1.50000000E+00  1.50000000E+00  8.00000000E-01  8.00000000E-01  1.50000000E+00
  1.50000000E+00  8.00000000E-01  8.00000000E-01  1.50000000E+00  1.50000000E+00
  8.00000000E-01  8.00000000E-01  1.50000000E+00  1.50000000E+00  8.00000000E-01
  8.00000000E-01  1.50000000E+00  1.50000000E+00  8.00000000E-01  8.00000000E-01
  1.50000000E+00  1.50000000E+00  8.00000000E-01  8.00000000E-01  1.50000000E+00
  1.50000000E+00  8.00000000E-01  8.00000000E-01  1.50000000E+00  1.50000000E+00
  8.00000000E-01  8.00000000E-01  1.50000000E+00  1.50000000E+00  8.00000000E-01
  8.00000000E-01  1.50000000E+00  1.50000000E+00  8.00000000E-01  8.00000000E-01
  1.50000000E+00  1.50000000E+00  8.00000000E-01  8.00000000E-01  1.50000000E+00
  1.50000000E+00  8.00000000E-01  8.00000000E-01  1.50000000E+00  1.50000000E+00
  8.00000000E-01  8.00000000E-01  1.50000000E+00  1.50000000E+00  8.00000000E-01
  8.00000000E-01  1.50000000E+00  1.50000000E+00  8.00000000E-01  8.00000000E-01
  1.50000000E+00  1.50000000E+00  8.00000000E-01  8.00000000E-01  1.50000000E+00
  1.50000000E+00  8.00000000E-01  8.00000000E-01  1.50000000E+00  1.50000000E+00
  8.00000000E-01  8.00000000E-01  1.50000000E+00  1.50000000E+00  8.00000000E-01
  8.00000000E-01  1.50000000E+00  1.50000000E+00  8.00000000E-01  8.00000000E-01
  1.50000000E+00  1.50000000E+00  8.00000000E-01  8.00000000E-01  1.50000000E+00
  1.50000000E+00  8.00000000E-01  8.00000000E-01  1.50000000E+00  1.50000000E+00
  8.00000000E-01  8.00000000E-01  1.50000000E+00  1.50000000E+00  8.00000000E-01
  8.00000000E-01  1.50000000E+00  1.50000000E+00  8.00000000E-01  8.00000000E-01
  1.50000000E+00  1.50000000E+00  8.00000000E-01  8.00000000E-01  1.50000000E+00
  1.50000000E+00  8.00000000E-01  8.00000000E-01  1.50000000E+00  1.50000000E+00
  8.00000000E-01  8.00000000E-01  1.50000000E+00  1.50000000E+00  8.00000000E-01
  8.00000000E-01  1.50000000E+00  1.50000000E+00  8.00000000E-01  8.00000000E-01
  1.50000000E+00  1.50000000E+00  8.00000000E-01  8.00000000E-01  1.50000000E+00
  1.50000000E+00  8.00000000E-01  8.00000000E-01  1.50000000E+00  1.50000000E+00
  8.00000000E-01  8.00000000E-01  1.50000000E+00  1.50000000E+00  8.00000000E-01
  8.00000000E-01  1.50000000E+00  1.50000000E+00  8.00000000E-01  8.00000000E-01
  1.50000000E+00  1.50000000E+00  8.00000000E-01  8.00000000E-01  1.50000000E+00
  1.50000000E+00  8.00000000E-01  8.00000000E-01  1.50000000E+00  1.50000000E+00
  8.00000000E-01  8.00000000E-01  1.50000000E+00  1.50000000E+00  8.00000000E-01
  8.00000000E-01  1.50000000E+00  1.50000000E+00  8.00000000E-01  8.00000000E-01
  1.50000000E+00  1.50000000E+00  8.00000000E-01  8.00000000E-01  1.50000000E+00
  1.50000000E+00  8.00000000E-01  8.00000000E-01  1.50000000E+00  1.50000000E+00
  8.00000000E-01  8.00000000E-01  1.50000000E+00  1.50000000E+00  8.00000000E-01
  8.00000000E-01  1.50000000E+00  1.50000000E+00  8.00000000E-01  8.00000000E-01
  1.50000000E+00  1.50000000E+00  8.00000000E-01  8.00000000E-01  1.50000000E+00
  1.50000000E+00  8.00000000E-01  8.00000000E-01  1.50000000E+00  1.50000000E+00
  8.00000000E-01  8.00000000E-01  1.50000000E+00  1.50000000E+00  8.00000000E-01
  8.00000000E-01  1.50000000E+00  1.50000000E+00  8.00000000E-01  8.00000000E-01
  1.50000000E+00  1.50000000E+00  8.00000000E-01  8.00000000E-01  1.50000000E+00
  1.50000000E+00  8.00000000E-01  8.00000000E-01  1.50000000E+00  1.50000000E+00
  8.00000000E-01  8.00000000E-01  1.50000000E+00  1.50000000E+00  8.00000000E-01
  8.00000000E-01  1.50000000E+00  1.50000000E+00  8.00000000E-01  8.00000000E-01
  1.50000000E+00  1.50000000E+00  8.00000000E-01  8.00000000E-01  1.50000000E+00
  1.50000000E+00  8.00000000E-01  8.00000000E-01  1.50000000E+00  1.50000000E+00
  8.00000000E-01  8.00000000E-01  1.50000000E+00  1.50000000E+00  8.00000000E-01
  8.00000000E-01  1.50000000E+00  1.50000000E+00  8.00000000E-01  8.00000000E-01
  1.50000000E+00  1.50000000E+00  8.00000000E-01  8.00000000E-01  1.50000000E+00
  1.50000000E+00  8.00000000E-01  8.00000000E-01  1.50000000E+00  1.50000000E+00
  8.00000000E-01  8.00000000E-01  1.50000000E+00  1.50000000E+00  8.00000000E-01
  8.00000000E-01  1.50000000E+00  1.50000000E+00  8.00000000E-01  8.00000000E-01
  1.50000000E+00  1.50000000E+00  8.00000000E-01  8.00000000E-01  1.50000000E+00
  1.50000000E+00  8.00000000E-01  8.00000000E-01  1.50000000E+00  1.50000000E+00
  8.00000000E-01  8.00000000E-01  1.50000000E+00  1.50000000E+00  8.00000000E-01
  8.00000000E-01  1.50000000E+00  1.50000000E+00  8.00000000E-01  8.00000000E-01
  1.50000000E+00  1.50000000E+00  8.00000000E-01  8.00000000E-01  1.50000000E+00
  1.50000000E+00  8.00000000E-01  8.00000000E-01  1.50000000E+00  1.50000000E+00
  8.00000000E-01  8.00000000E-01  1.50000000E+00  1.50000000E+00  8.00000000E-01
  8.00000000E-01  1.50000000E+00  1.50000000E+00  8.00000000E-01  8.00000000E-01
  1.50000000E+00  1.50000000E+00  8.00000000E-01  8.00000000E-01  1.50000000E+00
  1.50000000E+00  8.00000000E-01  8.00000000E-01  1.50000000E+00  1.50000000E+00
  8.00000000E-01  8.00000000E-01  1.50000000E+00  1.50000000E+00  8.00000000E-01
  8.00000000E-01  1.50000000E+00  1.50000000E+00  8.00000000E-01  8.00000000E-01
  1.50000000E+00  1.50000000E+00  8.00000000E-01  8.00000000E-01  1.50000000E+00
  1.50000000E+00  8.00000000E-01  8.00000000E-01  1.50000000E+00  1.50000000E+00
  8.00000000E-01  8.00000000E-01  1.50000000E+00  1.50000000E+00  8.00000000E-01
  8.00000000E-01  1.50000000E+00  1.50000000E+00  8.00000000E-01  8.00000000E-01
  1.50000000E+00  1.50000000E+00  8.00000000E-01  8.00000000E-01  1.50000000E+00
  1.50000000E+00  8.00000000E-01  8.00000000E-01  1.50000000E+00  1.50000000E+00
  8.00000000E-01  8.00000000E-01  1.50000000E+00  1.50000000E+00  8.00000000E-01
  8.00000000E-01  1.50000000E+00  1.50000000E+00  8.00000000E-01  8.00000000E-01
  1.50000000E+00  1.50000000E+00  8.00000000E-01  8.00000000E-01  1.50000000E+00
  1.50000000E+00  8.00000000E-01  8.00000000E-01  1.50000000E+00  1.50000000E+00
  8.00000000E-01  8.00000000E-01  1.50000000E+00  1.50000000E+00  8.00000000E-01
  8.00000000E-01  1.50000000E+00  1.50000000E+00  8.00000000E-01  8.00000000E-01
  1.50000000E+00  1.50000000E+00  8.00000000E-01  8.00000000E-01  1.50000000E+00
  1.50000000E+00  8.00000000E-01  8.00000000E-01  1.50000000E+00  1.50000000E+00
  8.00000000E-01  8.00000000E-01  1.50000000E+00  1.50000000E+00  8.00000000E-01
  8.00000000E-01  1.50000000E+00  1.50000000E+00  8.00000000E-01  8.00000000E-01
  1.50000000E+00  1.50000000E+00  8.00000000E-01  8.00000000E-01  1.50000000E+00
  1.50000000E+00  8.00000000E-01  8.00000000E-01  1.50000000E+00  1.50000000E+00
  8.00000000E-01  8.00000000E-01  1.50000000E+00  1.50000000E+00  8.00000000E-01
  8.00000000E-01  1.50000000E+00  1.50000000E+00  8.00000000E-01  8.00000000E-01
  1.50000000E+00  1.50000000E+00  8.00000000E-01  8.00000000E-01  1.50000000E+00
  1.50000000E+00  8.00000000E-01  8.00000000E-01  1.50000000E+00  1.50000000E+00
  8.00000000E-01  8.00000000E-01  1.50000000E+00  1.50000000E+00  8.00000000E-01
  8.00000000E-01  1.50000000E+00  1.50000000E+00  8.00000000E-01  8.00000000E-01
  1.50000000E+00  1.50000000E+00  8.00000000E-01  8.00000000E-01  1.50000000E+00
  1.50000000E+00  8.00000000E-01  8.00000000E-01  1.50000000E+00  1.50000000E+00
  8.00000000E-01  8.00000000E-01  1.50000000E+00  1.50000000E+00  8.00000000E-01
  8.00000000E-01  1.50000000E+00  1.50000000E+00  8.00000000E-01  8.00000000E-01
  1.50000000E+00  1.50000000E+00  8.00000000E-01  8.00000000E-01  1.50000000E+00
  1.50000000E+00  8.00000000E-01  8.00000000E-01  1.50000000E+00  1.50000000E+00
  8.00000000E-01  8.00000000E-01  1.50000000E+00  1.50000000E+00  8.00000000E-01
  8.00000000E-01  1.50000000E+00  1.50000000E+00  8.00000000E-01  8.00000000E-01
  1.50000000E+00  1.50000000E+00  8.00000000E-01  8.00000000E-01  1.50000000E+00
  1.50000000E+00  8.00000000E-01  8.00000000E-01  1.50000000E+00  1.50000000E+00
  8.00000000E-01  8.00000000E-01  1.50000000E+00  1.50000000E+00  8.00000000E-01
  8.00000000E-01  1.50000000E+00  1.50000000E+00  8.00000000E-01  8.00000000E-01
  1.50000000E+00  1.50000000E+00  8.00000000E-01  8.00000000E-01  1.50000000E+00
  1.50000000E+00  8.00000000E-01  8.00000000E-01  1.50000000E+00  1.50000000E+00
  8.00000000E-01  8.00000000E-01  1.50000000E+00  1.50000000E+00  8.00000000E-01
  8.00000000E-01  1.50000000E+00  1.50000000E+00  8.00000000E-01  8.00000000E-01
  1.50000000E+00  1.50000000E+00  8.00000000E-01  8.00000000E-01  1.50000000E+00
  1.50000000E+00  8.00000000E-01  8.00000000E-01  1.50000000E+00  1.50000000E+00
  8.00000000E-01  8.00000000E-01  1.50000000E+00  1.50000000E+00  8.00000000E-01
  8.00000000E-01  1.50000000E+00  1.50000000E+00  8.00000000E-01  8.00000000E-01
  1.50000000E+00  1.50000000E+00  8.00000000E-01  8.00000000E-01  1.50000000E+00
  1.50000000E+00  8.00000000E-01  8.00000000E-01  1.50000000E+00  1.50000000E+00
  8.00000000E-01  8.00000000E-01  1.50000000E+00  1.50000000E+00  8.00000000E-01
  8.00000000E-01  1.50000000E+00  1.50000000E+00  8.00000000E-01  8.00000000E-01
  1.50000000E+00  1.50000000E+00  8.00000000E-01  8.00000000E-01  1.50000000E+00
  1.50000000E+00  8.00000000E-01  8.00000000E-01  1.50000000E+00  1.50000000E+00
  8.00000000E-01  8.00000000E-01  1.50000000E+00  1.50000000E+00  8.00000000E-01
  8.00000000E-01  1.50000000E+00  1.50000000E+00  8.00000000E-01  8.00000000E-01
  1.50000000E+00  1.50000000E+00  8.00000000E-01  8.00000000E-01  1.50000000E+00
  1.50000000E+00  8.00000000E-01  8.00000000E-01  1.50000000E+00  1.50000000E+00
  8.00000000E-01  8.00000000E-01  1.50000000E+00  1.50000000E+00  8.00000000E-01
  8.00000000E-01  1.50000000E+00  1.50000000E+00  8.00000000E-01  8.00000000E-01
  1.50000000E+00  1.50000000E+00  8.00000000E-01  8.00000000E-01  1.50000000E+00
  1.50000000E+00  8.00000000E-01  8.00000000E-01  1.50000000E+00  1.50000000E+00
  8.00000000E-01  8.00000000E-01  1.50000000E+00  1.50000000E+00  8.00000000E-01
  8.00000000E-01  1.50000000E+00  1.50000000E+00  8.00000000E-01  8.00000000E-01
  1.50000000E+00  1.50000000E+00  8.00000000E-01  8.00000000E-01  1.50000000E+00
  1.50000000E+00  8.00000000E-01  8.00000000E-01  1.50000000E+00  1.50000000E+00
  8.00000000E-01  8.00000000E-01  1.50000000E+00  1.50000000E+00  8.00000000E-01
  8.00000000E-01  1.50000000E+00  1.50000000E+00  8.00000000E-01  8.00000000E-01
  1.50000000E+00  1.50000000E+00  8.00000000E-01  8.00000000E-01  1.50000000E+00
  1.50000000E+00  8.00000000E-01  8.00000000E-01  1.50000000E+00  1.50000000E+00
  8.00000000E-01  8.00000000E-01  1.50000000E+00  1.50000000E+00  8.00000000E-01
  8.00000000E-01  1.50000000E+00  1.50000000E+00  8.00000000E-01  8.00000000E-01
  1.50000000E+00  1.50000000E+00  8.00000000E-01  8.00000000E-01  1.50000000E+00
  1.50000000E+00  8.00000000E-01  8.00000000E-01  1.50000000E+00  1.50000000E+00
  8.00000000E-01  8.00000000E-01  1.50000000E+00  1.50000000E+00  8.00000000E-01
  8.00000000E-01  1.50000000E+00  1.50000000E+00  8.00000000E-01  8.00000000E-01
  1.50000000E+00  1.50000000E+00  8.00000000E-01  8.00000000E-01  1.50000000E+00
  1.50000000E+00  8.00000000E-01  8.00000000E-01  1.50000000E+00  1.50000000E+00
  8.00000000E-01  8.00000000E-01  1.50000000E+00  1.50000000E+00  8.00000000E-01
  8.00000000E-01  1.50000000E+00  1.50000000E+00  8.00000000E-01  8.00000000E-01
  1.50000000E+00  1.50000000E+00  8.00000000E-01  8.00000000E-01  1.50000000E+00
  1.50000000E+00  8.00000000E-01  8.00000000E-01  1.50000000E+00  1.50000000E+00
  8.00000000E-01  8.00000000E-01  1.50000000E+00  1.50000000E+00  8.00000000E-01
  8.00000000E-01  1.50000000E+00  1.50000000E+00  8.00000000E-01  8.00000000E-01
  1.50000000E+00  1.50000000E+00  8.00000000E-01  8.00000000E-01  1.50000000E+00
  1.50000000E+00  8.00000000E-01  8.00000000E-01  1.50000000E+00  1.50000000E+00
  8.00000000E-01  8.00000000E-01  1.50000000E+00  1.50000000E+00  8.00000000E-01
  8.00000000E-01  1.50000000E+00  1.50000000E+00  8.00000000E-01  8.00000000E-01
  1.50000000E+00  1.50000000E+00  8.00000000E-01  8.00000000E-01  1.50000000E+00
  1.50000000E+00  8.00000000E-01  8.00000000E-01  1.50000000E+00  1.50000000E+00
  8.00000000E-01  8.00000000E-01  1.50000000E+00  1.50000000E+00  8.00000000E-01
  8.00000000E-01  1.50000000E+00  1.50000000E+00  8.00000000E-01  8.00000000E-01
  1.50000000E+00  1.50000000E+00  8.00000000E-01  8.00000000E-01  1.50000000E+00
  1.50000000E+00  8.00000000E-01  8.00000000E-01  1.50000000E+00  1.50000000E+00
  8.00000000E-01  8.00000000E-01  1.50000000E+00  1.50000000E+00  8.00000000E-01
  8.00000000E-01  1.50000000E+00  1.50000000E+00  8.00000000E-01  8.00000000E-01
  1.50000000E+00  1.50000000E+00  8.00000000E-01  8.00000000E-01  1.50000000E+00
  1.50000000E+00  8.00000000E-01  8.00000000E-01  1.50000000E+00  1.50000000E+00
  8.00000000E-01  8.00000000E-01  1.50000000E+00  1.50000000E+00  8.00000000E-01
  8.00000000E-01  1.50000000E+00  1.50000000E+00  8.00000000E-01  8.00000000E-01
  1.50000000E+00  1.50000000E+00  8.00000000E-01  8.00000000E-01  1.50000000E+00
  1.50000000E+00  8.00000000E-01  8.00000000E-01  1.50000000E+00  1.50000000E+00
  8.00000000E-01  8.00000000E-01  1.50000000E+00  1.50000000E+00  8.00000000E-01
  8.00000000E-01  1.50000000E+00  1.50000000E+00  8.00000000E-01  8.00000000E-01
  1.50000000E+00  1.50000000E+00  8.00000000E-01  8.00000000E-01  1.50000000E+00
  1.50000000E+00  8.00000000E-01  8.00000000E-01  1.50000000E+00  1.50000000E+00
  8.00000000E-01  8.00000000E-01  1.50000000E+00  1.50000000E+00  8.00000000E-01
  8.00000000E-01  1.50000000E+00  1.50000000E+00  8.00000000E-01  8.00000000E-01
  1.50000000E+00  1.50000000E+00  8.00000000E-01  8.00000000E-01  1.50000000E+00
  1.50000000E+00  8.00000000E-01  8.00000000E-01  1.50000000E+00  1.50000000E+00
  8.00000000E-01  8.00000000E-01  1.50000000E+00  1.50000000E+00  8.00000000E-01
  8.00000000E-01  1.50000000E+00  1.50000000E+00  8.00000000E-01  8.00000000E-01
  1.50000000E+00  1.50000000E+00  8.00000000E-01  8.00000000E-01  1.50000000E+00
  1.50000000E+00  8.00000000E-01  8.00000000E-01  1.50000000E+00  1.50000000E+00
  8.00000000E-01  8.00000000E-01  1.50000000E+00  1.50000000E+00  8.00000000E-01
  8.00000000E-01  1.50000000E+00  1.50000000E+00  8.00000000E-01  8.00000000E-01
  1.50000000E+00  1.50000000E+00  8.00000000E-01  8.00000000E-01  1.50000000E+00
  1.50000000E+00  8.00000000E-01  8.00000000E-01  1.50000000E+00  1.50000000E+00
  8.00000000E-01  8.00000000E-01  1.50000000E+00  1.50000000E+00  8.00000000E-01
  8.00000000E-01  1.50000000E+00  1.50000000E+00  8.00000000E-01  8.00000000E-01
  1.50000000E+00  1.50000000E+00  8.00000000E-01  8.00000000E-01  1.50000000E+00
  1.50000000E+00  8.00000000E-01  8.00000000E-01  1.50000000E+00  1.50000000E+00
  8.00000000E-01  8.00000000E-01  1.50000000E+00  1.50000000E+00  8.00000000E-01
  8.00000000E-01  1.50000000E+00  1.50000000E+00  8.00000000E-01  8.00000000E-01
  1.50000000E+00  1.50000000E+00  8.00000000E-01  8.00000000E-01  1.50000000E+00
  1.50000000E+00  8.00000000E-01  8.00000000E-01  1.50000000E+00  1.50000000E+00
  8.00000000E-01  8.00000000E-01  1.50000000E+00  1.50000000E+00  8.00000000E-01
  8.00000000E-01  1.50000000E+00  1.50000000E+00  8.00000000E-01  8.00000000E-01
  1.50000000E+00  1.50000000E+00  8.00000000E-01  8.00000000E-01  1.50000000E+00
  1.50000000E+00  8.00000000E-01  8.00000000E-01  1.50000000E+00  1.50000000E+00
  8.00000000E-01  8.00000000E-01  1.50000000E+00  1.50000000E+00  8.00000000E-01
  8.00000000E-01  1.50000000E+00  1.50000000E+00  8.00000000E-01  8.00000000E-01
  1.50000000E+00  1.50000000E+00  8.00000000E-01  8.00000000E-01  1.50000000E+00
  1.50000000E+00  8.00000000E-01  8.00000000E-01  1.50000000E+00  1.50000000E+00
  8.00000000E-01  8.00000000E-01  1.50000000E+00  1.50000000E+00  8.00000000E-01
  8.00000000E-01  1.50000000E+00  1.50000000E+00  8.00000000E-01  8.00000000E-01
  1.50000000E+00  1.50000000E+00  8.00000000E-01  8.00000000E-01  1.50000000E+00
  1.50000000E+00  8.00000000E-01  8.00000000E-01  1.50000000E+00  1.50000000E+00
  8.00000000E-01  8.00000000E-01  1.50000000E+00  1.50000000E+00  8.00000000E-01
  8.00000000E-01  1.50000000E+00  1.50000000E+00  8.00000000E-01  8.00000000E-01
  1.50000000E+00  1.50000000E+00  8.00000000E-01  8.00000000E-01  1.50000000E+00
  1.50000000E+00  8.00000000E-01  8.00000000E-01  1.50000000E+00  1.50000000E+00
  8.00000000E-01  8.00000000E-01  1.50000000E+00  1.50000000E+00  8.00000000E-01
  8.00000000E-01  1.50000000E+00  1.50000000E+00  8.00000000E-01  8.00000000E-01
  1.50000000E+00  1.50000000E+00  8.00000000E-01  8.00000000E-01  1.50000000E+00
  1.50000000E+00  8.00000000E-01  8.00000000E-01  1.50000000E+00  1.50000000E+00
  8.00000000E-01  8.00000000E-01  1.50000000E+00  1.50000000E+00  8.00000000E-01
  8.00000000E-01  1.50000000E+00  1.50000000E+00  8.00000000E-01  8.00000000E-01
  1.50000000E+00  1.50000000E+00  8.00000000E-01  8.00000000E-01  1.50000000E+00
  1.50000000E+00  8.00000000E-01  8.00000000E-01  1.50000000E+00  1.50000000E+00
  8.00000000E-01  8.00000000E-01  1.50000000E+00  1.50000000E+00  8.00000000E-01
  8.00000000E-01  1.50000000E+00  1.50000000E+00  8.00000000E-01  8.00000000E-01
  1.50000000E+00  1.50000000E+00  8.00000000E-01  8.00000000E-01  1.50000000E+00
  1.50000000E+00  8.00000000E-01  8.00000000E-01  1.50000000E+00  1.50000000E+00
  8.00000000E-01  8.00000000E-01  1.50000000E+00  1.50000000E+00  8.00000000E-01
  8.00000000E-01  1.50000000E+00  1.50000000E+00  8.00000000E-01  8.00000000E-01
  1.50000000E+00  1.50000000E+00  8.00000000E-01  8.00000000E-01  1.50000000E+00
  1.50000000E+00  8.00000000E-01  8.00000000E-01  1.50000000E+00  1.50000000E+00
  8.00000000E-01  8.00000000E-01  1.50000000E+00  1.50000000E+00  8.00000000E-01
  8.00000000E-01  1.50000000E+00  1.50000000E+00  8.00000000E-01  8.00000000E-01
  1.50000000E+00  1.50000000E+00  8.00000000E-01  8.00000000E-01  1.50000000E+00
  1.50000000E+00  8.00000000E-01  8.00000000E-01  1.50000000E+00  1.50000000E+00
  8.00000000E-01  8.00000000E-01  1.50000000E+00  1.50000000E+00  8.00000000E-01
  8.00000000E-01  1.50000000E+00  1.50000000E+00  8.00000000E-01  8.00000000E-01
  1.50000000E+00  1.50000000E+00  8.00000000E-01  8.00000000E-01  1.50000000E+00
  1.50000000E+00  8.00000000E-01  8.00000000E-01  1.50000000E+00  1.50000000E+00
  8.00000000E-01  8.00000000E-01  1.50000000E+00  1.50000000E+00  8.00000000E-01
  8.00000000E-01  1.50000000E+00  1.50000000E+00  8.00000000E-01  8.00000000E-01
  1.50000000E+00  1.50000000E+00  8.00000000E-01  8.00000000E-01  1.50000000E+00
  1.50000000E+00  8.00000000E-01  8.00000000E-01  1.50000000E+00  1.50000000E+00
  8.00000000E-01  8.00000000E-01  1.50000000E+00  1.50000000E+00  8.00000000E-01
  8.00000000E-01  1.50000000E+00  1.50000000E+00  8.00000000E-01  8.00000000E-01
  1.50000000E+00  1.50000000E+00  8.00000000E-01  8.00000000E-01  1.50000000E+00
  1.50000000E+00  8.00000000E-01  8.00000000E-01  1.50000000E+00  1.50000000E+00
  8.00000000E-01  8.00000000E-01  1.50000000E+00  1.50000000E+00  8.00000000E-01
  8.00000000E-01  1.50000000E+00  1.50000000E+00  8.00000000E-01  8.00000000E-01
  1.50000000E+00  1.50000000E+00  8.00000000E-01  8.00000000E-01  1.50000000E+00
  1.50000000E+00  8.00000000E-01  8.00000000E-01  1.50000000E+00  1.50000000E+00
  8.00000000E-01  8.00000000E-01  1.50000000E+00  1.50000000E+00  8.00000000E-01
  8.00000000E-01  1.50000000E+00  1.50000000E+00  8.00000000E-01  8.00000000E-01
  1.50000000E+00  1.50000000E+00  8.00000000E-01  8.00000000E-01  1.50000000E+00
  1.50000000E+00  8.00000000E-01  8.00000000E-01  1.50000000E+00  1.50000000E+00
  8.00000000E-01  8.00000000E-01  1.50000000E+00  1.50000000E+00  8.00000000E-01
  8.00000000E-01  1.50000000E+00  1.50000000E+00  8.00000000E-01  8.00000000E-01
  1.50000000E+00  1.50000000E+00  8.00000000E-01  8.00000000E-01  1.50000000E+00
  1.50000000E+00  8.00000000E-01  8.00000000E-01  1.50000000E+00  1.50000000E+00
  8.00000000E-01  8.00000000E-01  1.50000000E+00  1.50000000E+00  8.00000000E-01
  8.00000000E-01  1.50000000E+00  1.50000000E+00  8.00000000E-01  8.00000000E-01
  1.50000000E+00  1.50000000E+00  8.00000000E-01  8.00000000E-01  1.50000000E+00
  1.50000000E+00  8.00000000E-01  8.00000000E-01  1.50000000E+00  1.50000000E+00
  8.00000000E-01  8.00000000E-01  1.50000000E+00  1.50000000E+00  8.00000000E-01
  8.00000000E-01  1.50000000E+00  1.50000000E+00  8.00000000E-01  8.00000000E-01
  1.50000000E+00  1.50000000E+00  8.00000000E-01  8.00000000E-01  1.50000000E+00
  1.50000000E+00  8.00000000E-01  8.00000000E-01  1.50000000E+00  1.50000000E+00
  8.00000000E-01  8.00000000E-01  1.50000000E+00  1.50000000E+00  8.00000000E-01
  8.00000000E-01  1.50000000E+00  1.50000000E+00  8.00000000E-01  8.00000000E-01
  1.50000000E+00  1.50000000E+00  8.00000000E-01  8.00000000E-01  1.50000000E+00
  1.50000000E+00  8.00000000E-01  8.00000000E-01  1.50000000E+00  1.50000000E+00
  8.00000000E-01  8.00000000E-01  1.50000000E+00  1.50000000E+00  8.00000000E-01
  8.00000000E-01  1.50000000E+00  1.50000000E+00  8.00000000E-01  8.00000000E-01
  1.50000000E+00  1.50000000E+00  8.00000000E-01  8.00000000E-01  1.50000000E+00
  1.50000000E+00  8.00000000E-01  8.00000000E-01  1.50000000E+00  1.50000000E+00
  8.00000000E-01  8.00000000E-01  1.50000000E+00  1.50000000E+00  8.00000000E-01
  8.00000000E-01  1.50000000E+00  1.50000000E+00  8.00000000E-01  8.00000000E-01
  1.50000000E+00  1.50000000E+00  8.00000000E-01  8.00000000E-01  1.50000000E+00
  1.50000000E+00  8.00000000E-01  8.00000000E-01  1.50000000E+00  1.50000000E+00
  8.00000000E-01  8.00000000E-01  1.50000000E+00  1.50000000E+00  8.00000000E-01
  8.00000000E-01  1.50000000E+00  1.50000000E+00  8.00000000E-01  8.00000000E-01
  1.50000000E+00  1.50000000E+00  8.00000000E-01  8.00000000E-01  1.50000000E+00
  1.50000000E+00  8.00000000E-01  8.00000000E-01  1.50000000E+00  1.50000000E+00
  8.00000000E-01  8.00000000E-01  1.50000000E+00  1.50000000E+00  8.00000000E-01
  8.00000000E-01  1.50000000E+00  1.50000000E+00  8.00000000E-01  8.00000000E-01
  1.50000000E+00  1.50000000E+00  8.00000000E-01  8.00000000E-01  1.50000000E+00
  1.50000000E+00  8.00000000E-01  8.00000000E-01  1.50000000E+00  1.50000000E+00
  8.00000000E-01  8.00000000E-01  1.50000000E+00  1.50000000E+00  8.00000000E-01
  8.00000000E-01  1.50000000E+00  1.50000000E+00  8.00000000E-01  8.00000000E-01
  1.50000000E+00  1.50000000E+00  8.00000000E-01  8.00000000E-01  1.50000000E+00
  1.50000000E+00  8.00000000E-01  8.00000000E-01  1.50000000E+00  1.50000000E+00
  8.00000000E-01  8.00000000E-01  1.50000000E+00  1.50000000E+00  8.00000000E-01
  8.00000000E-01  1.50000000E+00  1.50000000E+00  8.00000000E-01  8.00000000E-01
  1.50000000E+00  1.50000000E+00  8.00000000E-01  8.00000000E-01  1.50000000E+00
  1.50000000E+00  8.00000000E-01  8.00000000E-01  1.50000000E+00  1.50000000E+00
  8.00000000E-01  8.00000000E-01  1.50000000E+00  1.50000000E+00  8.00000000E-01
  8.00000000E-01  1.50000000E+00  1.50000000E+00  8.00000000E-01  8.00000000E-01
  1.50000000E+00  1.50000000E+00  8.00000000E-01  8.00000000E-01  1.50000000E+00
  1.50000000E+00  8.00000000E-01  8.00000000E-01  1.50000000E+00  1.50000000E+00
  8.00000000E-01  8.00000000E-01  1.50000000E+00  1.50000000E+00  8.00000000E-01
  8.00000000E-01  1.50000000E+00  1.50000000E+00  8.00000000E-01  8.00000000E-01
  1.50000000E+00  1.50000000E+00  8.00000000E-01  8.00000000E-01  1.50000000E+00
  1.50000000E+00  8.00000000E-01  8.00000000E-01  1.50000000E+00  1.50000000E+00
  8.00000000E-01  8.00000000E-01  1.50000000E+00  1.50000000E+00  8.00000000E-01
  8.00000000E-01  1.50000000E+00  1.50000000E+00  8.00000000E-01  8.00000000E-01
  1.50000000E+00  1.50000000E+00  8.00000000E-01  8.00000000E-01  1.50000000E+00
  1.50000000E+00  8.00000000E-01  8.00000000E-01  1.50000000E+00  1.50000000E+00
  8.00000000E-01  8.00000000E-01  1.50000000E+00  1.50000000E+00  8.00000000E-01
  8.00000000E-01  1.50000000E+00  1.50000000E+00  8.00000000E-01  8.00000000E-01
  1.50000000E+00  1.50000000E+00  8.00000000E-01  8.00000000E-01  1.50000000E+00
  1.50000000E+00  8.00000000E-01  8.00000000E-01  1.50000000E+00  1.50000000E+00
  8.00000000E-01  8.00000000E-01  1.50000000E+00  1.50000000E+00  8.00000000E-01
  8.00000000E-01  1.50000000E+00  1.50000000E+00  8.00000000E-01  8.00000000E-01
  1.50000000E+00  1.50000000E+00  8.00000000E-01  8.00000000E-01  1.50000000E+00
  1.50000000E+00  8.00000000E-01  8.00000000E-01  1.50000000E+00  1.50000000E+00
  8.00000000E-01  8.00000000E-01  1.50000000E+00  1.50000000E+00  8.00000000E-01
  8.00000000E-01  1.50000000E+00  1.50000000E+00  8.00000000E-01  8.00000000E-01
  1.50000000E+00  1.50000000E+00  8.00000000E-01  8.00000000E-01  1.50000000E+00
  1.50000000E+00  8.00000000E-01  8.00000000E-01  1.50000000E+00  1.50000000E+00
  8.00000000E-01  8.00000000E-01  1.50000000E+00  1.50000000E+00  8.00000000E-01
  8.00000000E-01  1.50000000E+00  1.50000000E+00  8.00000000E-01  8.00000000E-01
  1.50000000E+00  1.50000000E+00  8.00000000E-01  8.00000000E-01  1.50000000E+00
  1.50000000E+00  8.00000000E-01  8.00000000E-01  1.50000000E+00  1.50000000E+00
  8.00000000E-01  8.00000000E-01  1.50000000E+00  1.50000000E+00  8.00000000E-01
  8.00000000E-01  1.50000000E+00  1.50000000E+00  8.00000000E-01  8.00000000E-01
  1.50000000E+00  1.50000000E+00  8.00000000E-01  8.00000000E-01  1.50000000E+00
  1.50000000E+00  8.00000000E-01  8.00000000E-01  1.50000000E+00  1.50000000E+00
  8.00000000E-01  8.00000000E-01  1.50000000E+00  1.50000000E+00  8.00000000E-01
  8.00000000E-01  1.50000000E+00  1.50000000E+00  8.00000000E-01  8.00000000E-01
  1.50000000E+00  1.50000000E+00  8.00000000E-01  8.00000000E-01  1.50000000E+00
  1.50000000E+00  8.00000000E-01  8.00000000E-01  1.50000000E+00  1.50000000E+00
  8.00000000E-01  8.00000000E-01  1.50000000E+00  1.50000000E+00  8.00000000E-01
  8.00000000E-01  1.50000000E+00  1.50000000E+00  8.00000000E-01  8.00000000E-01
  1.50000000E+00  1.50000000E+00  8.00000000E-01  8.00000000E-01  1.50000000E+00
  1.50000000E+00  8.00000000E-01  8.00000000E-01  1.50000000E+00  1.50000000E+00
  8.00000000E-01  8.00000000E-01  1.50000000E+00  1.50000000E+00  8.00000000E-01
  8.00000000E-01  1.50000000E+00  1.50000000E+00  8.00000000E-01  8.00000000E-01
  1.50000000E+00  1.50000000E+00  8.00000000E-01  8.00000000E-01  1.50000000E+00
  1.50000000E+00  8.00000000E-01  8.00000000E-01  1.50000000E+00  1.50000000E+00
  8.00000000E-01  8.00000000E-01  1.50000000E+00  1.50000000E+00  8.00000000E-01
  8.00000000E-01  1.50000000E+00  1.50000000E+00  8.00000000E-01  8.00000000E-01
  1.50000000E+00  1.50000000E+00  8.00000000E-01  8.00000000E-01  1.50000000E+00
  1.50000000E+00  8.00000000E-01  8.00000000E-01  1.50000000E+00  1.50000000E+00
  8.00000000E-01  8.00000000E-01  1.50000000E+00  1.50000000E+00  8.00000000E-01
  8.00000000E-01  1.50000000E+00  1.50000000E+00  8.00000000E-01  8.00000000E-01
  1.50000000E+00  1.50000000E+00  8.00000000E-01  8.00000000E-01  1.50000000E+00
  1.50000000E+00  8.00000000E-01  8.00000000E-01  1.50000000E+00  1.50000000E+00
  8.00000000E-01  8.00000000E-01  1.50000000E+00  1.50000000E+00  8.00000000E-01
  8.00000000E-01  1.50000000E+00  1.50000000E+00  8.00000000E-01  8.00000000E-01
  1.50000000E+00  1.50000000E+00  8.00000000E-01  8.00000000E-01  1.50000000E+00
  1.50000000E+00  8.00000000E-01  8.00000000E-01  1.50000000E+00  1.50000000E+00
  8.00000000E-01  8.00000000E-01  1.50000000E+00  1.50000000E+00  8.00000000E-01
  8.00000000E-01  1.50000000E+00  1.50000000E+00  8.00000000E-01  8.00000000E-01
  1.50000000E+00  1.50000000E+00  8.00000000E-01  8.00000000E-01  1.50000000E+00
  1.50000000E+00  8.00000000E-01  8.00000000E-01  1.50000000E+00  1.50000000E+00
  8.00000000E-01  8.00000000E-01  1.50000000E+00  1.50000000E+00  8.00000000E-01
  8.00000000E-01  1.50000000E+00  1.50000000E+00  8.00000000E-01  8.00000000E-01
  1.50000000E+00  1.50000000E+00  8.00000000E-01  8.00000000E-01  1.50000000E+00
  1.50000000E+00  8.00000000E-01  8.00000000E-01  1.50000000E+00  1.50000000E+00
  8.00000000E-01  8.00000000E-01  1.50000000E+00  1.50000000E+00  8.00000000E-01
  8.00000000E-01  1.50000000E+00  1.50000000E+00  8.00000000E-01  8.00000000E-01
  1.50000000E+00  1.50000000E+00  8.00000000E-01  8.00000000E-01  1.50000000E+00
  1.50000000E+00  8.00000000E-01  8.00000000E-01  1.50000000E+00  1.50000000E+00
  8.00000000E-01  8.00000000E-01  1.50000000E+00  1.50000000E+00  8.00000000E-01
  8.00000000E-01  1.50000000E+00  1.50000000E+00  8.00000000E-01  8.00000000E-01
  1.50000000E+00  1.50000000E+00  8.00000000E-01  8.00000000E-01  1.50000000E+00
  1.50000000E+00  8.00000000E-01  8.00000000E-01  1.50000000E+00  1.50000000E+00
  8.00000000E-01  8.00000000E-01  1.50000000E+00  1.50000000E+00  8.00000000E-01
  8.00000000E-01  1.50000000E+00  1.50000000E+00  8.00000000E-01  8.00000000E-01
  1.50000000E+00  1.50000000E+00  8.00000000E-01  8.00000000E-01  1.50000000E+00
  1.50000000E+00  8.00000000E-01  8.00000000E-01  1.50000000E+00  1.50000000E+00
  8.00000000E-01  8.00000000E-01  1.50000000E+00  1.50000000E+00  8.00000000E-01
  8.00000000E-01  1.50000000E+00  1.50000000E+00  8.00000000E-01  8.00000000E-01
  1.50000000E+00  1.50000000E+00  8.00000000E-01  8.00000000E-01  1.50000000E+00
  1.50000000E+00  8.00000000E-01  8.00000000E-01  1.50000000E+00  1.50000000E+00
  8.00000000E-01  8.00000000E-01  1.50000000E+00  1.50000000E+00  8.00000000E-01
  8.00000000E-01  1.50000000E+00  1.50000000E+00  8.00000000E-01  8.00000000E-01
  1.50000000E+00  1.50000000E+00  8.00000000E-01  8.00000000E-01  1.50000000E+00
  1.50000000E+00  8.00000000E-01  8.00000000E-01  1.50000000E+00  1.50000000E+00
  8.00000000E-01  8.00000000E-01  1.50000000E+00  1.50000000E+00  8.00000000E-01
  8.00000000E-01  1.50000000E+00  1.50000000E+00  8.00000000E-01  8.00000000E-01
  1.50000000E+00  1.50000000E+00  8.00000000E-01  8.00000000E-01  1.50000000E+00
  1.50000000E+00  8.00000000E-01  8.00000000E-01  1.50000000E+00  1.50000000E+00
  8.00000000E-01  8.00000000E-01  1.50000000E+00  1.50000000E+00  8.00000000E-01
  8.00000000E-01  1.50000000E+00  1.50000000E+00  8.00000000E-01  8.00000000E-01
  1.50000000E+00  1.50000000E+00  8.00000000E-01  8.00000000E-01  1.50000000E+00
  1.50000000E+00  8.00000000E-01  8.00000000E-01  1.50000000E+00  1.50000000E+00
  8.00000000E-01  8.00000000E-01  1.50000000E+00  1.50000000E+00  8.00000000E-01
  8.00000000E-01  1.50000000E+00  1.50000000E+00  8.00000000E-01  8.00000000E-01
  1.50000000E+00  1.50000000E+00  8.00000000E-01  8.00000000E-01  1.50000000E+00
  1.50000000E+00  8.00000000E-01  8.00000000E-01  1.50000000E+00  1.50000000E+00
  8.00000000E-01  8.00000000E-01  1.50000000E+00  1.50000000E+00  8.00000000E-01
  8.00000000E-01  1.50000000E+00  1.50000000E+00  8.00000000E-01  8.00000000E-01
  1.50000000E+00  1.50000000E+00  8.00000000E-01  8.00000000E-01  1.50000000E+00
  1.50000000E+00  8.00000000E-01  8.00000000E-01  1.50000000E+00  1.50000000E+00
  8.00000000E-01  8.00000000E-01  1.50000000E+00  1.50000000E+00  8.00000000E-01
  8.00000000E-01  1.50000000E+00  1.50000000E+00  8.00000000E-01  8.00000000E-01
  1.50000000E+00  1.50000000E+00  8.00000000E-01  8.00000000E-01  1.50000000E+00
  1.50000000E+00  8.00000000E-01  8.00000000E-01  1.50000000E+00  1.50000000E+00
  8.00000000E-01  8.00000000E-01  1.50000000E+00  1.50000000E+00  8.00000000E-01
  8.00000000E-01  1.50000000E+00  1.50000000E+00  8.00000000E-01  8.00000000E-01
  1.50000000E+00  1.50000000E+00  8.00000000E-01  8.00000000E-01  1.50000000E+00
  1.50000000E+00  8.00000000E-01  8.00000000E-01  1.50000000E+00  1.50000000E+00
  8.00000000E-01  8.00000000E-01  1.50000000E+00  1.50000000E+00  8.00000000E-01
  8.00000000E-01  1.50000000E+00  1.50000000E+00  8.00000000E-01  8.00000000E-01
  1.50000000E+00  1.50000000E+00  8.00000000E-01  8.00000000E-01  1.50000000E+00
  1.50000000E+00  8.00000000E-01  8.00000000E-01  1.50000000E+00  1.50000000E+00
  8.00000000E-01  8.00000000E-01  1.50000000E+00  1.50000000E+00  8.00000000E-01
  8.00000000E-01  1.50000000E+00  1.50000000E+00  8.00000000E-01  8.00000000E-01
  1.50000000E+00  1.50000000E+00  8.00000000E-01  8.00000000E-01  1.50000000E+00
  1.50000000E+00  8.00000000E-01  8.00000000E-01  1.50000000E+00  1.50000000E+00
  8.00000000E-01  8.00000000E-01  1.50000000E+00  1.50000000E+00  8.00000000E-01
  8.00000000E-01  1.50000000E+00  1.50000000E+00  8.00000000E-01  8.00000000E-01
  1.50000000E+00  1.50000000E+00  8.00000000E-01  8.00000000E-01  1.50000000E+00
  1.50000000E+00  8.00000000E-01  8.00000000E-01  1.50000000E+00  1.50000000E+00
  8.00000000E-01  8.00000000E-01  1.50000000E+00  1.50000000E+00  8.00000000E-01
  8.00000000E-01  1.50000000E+00  1.50000000E+00  8.00000000E-01  8.00000000E-01
  1.50000000E+00  1.50000000E+00  8.00000000E-01  8.00000000E-01  1.50000000E+00
  1.50000000E+00  8.00000000E-01  8.00000000E-01  1.50000000E+00  1.50000000E+00
  8.00000000E-01  8.00000000E-01  1.50000000E+00  1.50000000E+00  8.00000000E-01
  8.00000000E-01  1.50000000E+00  1.50000000E+00  8.00000000E-01  8.00000000E-01
  1.50000000E+00  1.50000000E+00  8.00000000E-01  8.00000000E-01  1.50000000E+00
  1.50000000E+00  8.00000000E-01  8.00000000E-01  1.50000000E+00  1.50000000E+00
  8.00000000E-01  8.00000000E-01  1.50000000E+00  1.50000000E+00  8.00000000E-01
  8.00000000E-01  1.50000000E+00  1.50000000E+00  8.00000000E-01  8.00000000E-01
  1.50000000E+00  1.50000000E+00  8.00000000E-01  8.00000000E-01  1.50000000E+00
  1.50000000E+00  8.00000000E-01  8.00000000E-01  1.50000000E+00  1.50000000E+00
  8.00000000E-01  8.00000000E-01  1.50000000E+00  1.50000000E+00  8.00000000E-01
  8.00000000E-01  1.50000000E+00  1.50000000E+00  8.00000000E-01  8.00000000E-01
  1.50000000E+00  1.50000000E+00  8.00000000E-01  8.00000000E-01  1.50000000E+00
  1.50000000E+00  8.00000000E-01  8.00000000E-01  1.50000000E+00  1.50000000E+00
  8.00000000E-01  8.00000000E-01  1.50000000E+00  1.50000000E+00  8.00000000E-01
  8.00000000E-01  1.50000000E+00  1.50000000E+00  8.00000000E-01  8.00000000E-01
  1.50000000E+00  1.50000000E+00  8.00000000E-01  8.00000000E-01  1.50000000E+00
  1.50000000E+00  8.00000000E-01  8.00000000E-01  1.50000000E+00  1.50000000E+00
  8.00000000E-01  8.00000000E-01  1.50000000E+00  1.50000000E+00  8.00000000E-01
  8.00000000E-01  1.50000000E+00  1.50000000E+00  8.00000000E-01  8.00000000E-01
  1.50000000E+00  1.50000000E+00  8.00000000E-01  8.00000000E-01  1.50000000E+00
  1.50000000E+00  8.00000000E-01  8.00000000E-01  1.50000000E+00  1.50000000E+00
  8.00000000E-01  8.00000000E-01  1.50000000E+00  1.50000000E+00  8.00000000E-01
  8.00000000E-01  1.50000000E+00  1.50000000E+00  8.00000000E-01  8.00000000E-01
  1.50000000E+00  1.50000000E+00  8.00000000E-01  8.00000000E-01  1.50000000E+00
  1.50000000E+00  8.00000000E-01  8.00000000E-01  1.50000000E+00  1.50000000E+00
  8.00000000E-01  8.00000000E-01  1.50000000E+00  1.50000000E+00  8.00000000E-01
  8.00000000E-01  1.50000000E+00  1.50000000E+00  8.00000000E-01  8.00000000E-01
  1.50000000E+00  1.50000000E+00  8.00000000E-01  8.00000000E-01  1.50000000E+00
  1.50000000E+00  8.00000000E-01  8.00000000E-01  1.50000000E+00  1.50000000E+00
  8.00000000E-01  8.00000000E-01  1.50000000E+00  1.50000000E+00  8.00000000E-01
  8.00000000E-01  1.50000000E+00  1.50000000E+00  8.00000000E-01  8.00000000E-01
  1.50000000E+00  1.50000000E+00  8.00000000E-01  8.00000000E-01  1.50000000E+00
  1.50000000E+00  8.00000000E-01  8.00000000E-01  1.50000000E+00  1.50000000E+00
  8.00000000E-01  8.00000000E-01  1.50000000E+00  1.50000000E+00  8.00000000E-01
  8.00000000E-01  1.50000000E+00  1.50000000E+00  8.00000000E-01  8.00000000E-01
  1.50000000E+00  1.50000000E+00  8.00000000E-01  8.00000000E-01  1.50000000E+00
  1.50000000E+00  8.00000000E-01  8.00000000E-01  1.50000000E+00  1.50000000E+00
  8.00000000E-01  8.00000000E-01  1.50000000E+00  1.50000000E+00  8.00000000E-01
  8.00000000E-01  1.50000000E+00  1.50000000E+00  8.00000000E-01  8.00000000E-01
  1.50000000E+00  1.50000000E+00  8.00000000E-01  8.00000000E-01  1.50000000E+00
  1.50000000E+00  8.00000000E-01  8.00000000E-01  1.50000000E+00  1.50000000E+00
  8.00000000E-01  8.00000000E-01  1.50000000E+00  1.50000000E+00  8.00000000E-01
  8.00000000E-01  1.50000000E+00  1.50000000E+00  8.00000000E-01  8.00000000E-01
  1.50000000E+00  1.50000000E+00  8.00000000E-01  8.00000000E-01  1.50000000E+00
  1.50000000E+00  8.00000000E-01  8.00000000E-01  1.50000000E+00  1.50000000E+00
  8.00000000E-01  8.00000000E-01  1.50000000E+00  1.50000000E+00  8.00000000E-01
  8.00000000E-01  1.50000000E+00  1.50000000E+00  8.00000000E-01  8.00000000E-01
  1.50000000E+00  1.50000000E+00  8.00000000E-01  8.00000000E-01  1.50000000E+00
  1.50000000E+00  8.00000000E-01  8.00000000E-01  1.50000000E+00  1.50000000E+00
  8.00000000E-01  8.00000000E-01  1.50000000E+00  1.50000000E+00  8.00000000E-01
  8.00000000E-01  1.50000000E+00  1.50000000E+00  8.00000000E-01  8.00000000E-01
  1.50000000E+00  1.50000000E+00  8.00000000E-01  8.00000000E-01  1.50000000E+00
  1.50000000E+00  8.00000000E-01  8.00000000E-01  1.50000000E+00  1.50000000E+00
  8.00000000E-01  8.00000000E-01  1.50000000E+00  1.50000000E+00  8.00000000E-01
  8.00000000E-01  1.50000000E+00  1.50000000E+00  8.00000000E-01  8.00000000E-01
  1.50000000E+00  1.50000000E+00  8.00000000E-01  8.00000000E-01  1.50000000E+00
  1.50000000E+00  8.00000000E-01  8.00000000E-01  1.50000000E+00  1.50000000E+00
  8.00000000E-01  8.00000000E-01  1.50000000E+00  1.50000000E+00  8.00000000E-01
  8.00000000E-01  1.50000000E+00  1.50000000E+00  8.00000000E-01  8.00000000E-01
  1.50000000E+00  1.50000000E+00  8.00000000E-01  8.00000000E-01  1.50000000E+00
  1.50000000E+00  8.00000000E-01  8.00000000E-01  1.50000000E+00  1.50000000E+00
  8.00000000E-01  8.00000000E-01  1.50000000E+00  1.50000000E+00  8.00000000E-01
  8.00000000E-01  1.50000000E+00  1.50000000E+00  8.00000000E-01  8.00000000E-01
  1.50000000E+00  1.50000000E+00  8.00000000E-01  8.00000000E-01  1.50000000E+00
  1.50000000E+00  8.00000000E-01  8.00000000E-01  1.50000000E+00  1.50000000E+00
  8.00000000E-01  8.00000000E-01  1.50000000E+00  1.50000000E+00  8.00000000E-01
  8.00000000E-01  1.50000000E+00  1.50000000E+00  8.00000000E-01  8.00000000E-01
  1.50000000E+00  1.50000000E+00  8.00000000E-01  8.00000000E-01  1.50000000E+00
  1.50000000E+00  8.00000000E-01  8.00000000E-01  1.50000000E+00  1.50000000E+00
  8.00000000E-01  8.00000000E-01  1.50000000E+00  1.50000000E+00  8.00000000E-01
  8.00000000E-01  1.50000000E+00  1.50000000E+00  8.00000000E-01  8.00000000E-01
  1.50000000E+00  1.50000000E+00  8.00000000E-01  8.00000000E-01  1.50000000E+00
  1.50000000E+00  8.00000000E-01  8.00000000E-01  1.50000000E+00  1.50000000E+00
  8.00000000E-01  8.00000000E-01  1.50000000E+00  1.50000000E+00  8.00000000E-01
  8.00000000E-01  1.50000000E+00  1.50000000E+00  8.00000000E-01  8.00000000E-01
  1.50000000E+00  1.50000000E+00  8.00000000E-01  8.00000000E-01  1.50000000E+00
  1.50000000E+00  8.00000000E-01  8.00000000E-01  1.50000000E+00  1.50000000E+00
  8.00000000E-01  8.00000000E-01  1.50000000E+00  1.50000000E+00  8.00000000E-01
  8.00000000E-01  1.50000000E+00  1.50000000E+00  8.00000000E-01  8.00000000E-01
  1.50000000E+00  1.50000000E+00  8.00000000E-01  8.00000000E-01  1.50000000E+00
  1.50000000E+00  8.00000000E-01  8.00000000E-01  1.50000000E+00  1.50000000E+00
  8.00000000E-01  8.00000000E-01  1.50000000E+00  1.50000000E+00  8.00000000E-01
  8.00000000E-01  1.50000000E+00  1.50000000E+00  8.00000000E-01  8.00000000E-01
  1.50000000E+00  1.50000000E+00  8.00000000E-01  8.00000000E-01  1.50000000E+00
  1.50000000E+00  8.00000000E-01  8.00000000E-01  1.50000000E+00  1.50000000E+00
  8.00000000E-01  8.00000000E-01  1.50000000E+00  1.50000000E+00  8.00000000E-01
  8.00000000E-01  1.50000000E+00  1.50000000E+00  8.00000000E-01  8.00000000E-01
  1.50000000E+00  1.50000000E+00  8.00000000E-01  8.00000000E-01  1.50000000E+00
  1.50000000E+00  8.00000000E-01  8.00000000E-01  1.50000000E+00  1.50000000E+00
  8.00000000E-01  8.00000000E-01  1.50000000E+00  1.50000000E+00  8.00000000E-01
  8.00000000E-01  1.50000000E+00  1.50000000E+00  8.00000000E-01  8.00000000E-01
  1.50000000E+00  1.50000000E+00  8.00000000E-01  8.00000000E-01  1.50000000E+00
  1.50000000E+00  8.00000000E-01  8.00000000E-01  1.50000000E+00  1.50000000E+00
  8.00000000E-01  8.00000000E-01  1.50000000E+00  1.50000000E+00  8.00000000E-01
  8.00000000E-01  1.50000000E+00  1.50000000E+00  8.00000000E-01  8.00000000E-01
  1.50000000E+00  1.50000000E+00  8.00000000E-01  8.00000000E-01  1.50000000E+00
  1.50000000E+00  8.00000000E-01  8.00000000E-01  1.50000000E+00  1.50000000E+00
  8.00000000E-01  8.00000000E-01  1.50000000E+00  1.50000000E+00  8.00000000E-01
  8.00000000E-01  1.50000000E+00  1.50000000E+00  8.00000000E-01  8.00000000E-01
  1.50000000E+00  1.50000000E+00  8.00000000E-01  8.00000000E-01  1.50000000E+00
  1.50000000E+00  8.00000000E-01  8.00000000E-01  1.50000000E+00  1.50000000E+00
  8.00000000E-01  8.00000000E-01  1.50000000E+00  1.50000000E+00  8.00000000E-01
  8.00000000E-01  1.50000000E+00  1.50000000E+00  8.00000000E-01  8.00000000E-01
  1.50000000E+00  1.50000000E+00  8.00000000E-01  8.00000000E-01  1.50000000E+00
  1.50000000E+00  8.00000000E-01  8.00000000E-01  1.50000000E+00  1.50000000E+00
  8.00000000E-01  8.00000000E-01  1.50000000E+00  1.50000000E+00  8.00000000E-01
  8.00000000E-01  1.50000000E+00  1.50000000E+00  8.00000000E-01  8.00000000E-01
  1.50000000E+00  1.50000000E+00  8.00000000E-01  8.00000000E-01  1.50000000E+00
  1.50000000E+00  8.00000000E-01  8.00000000E-01  1.50000000E+00  1.50000000E+00
  8.00000000E-01  8.00000000E-01  1.50000000E+00  1.50000000E+00  8.00000000E-01
  8.00000000E-01  1.50000000E+00  1.50000000E+00  8.00000000E-01  8.00000000E-01
  1.50000000E+00  1.50000000E+00  8.00000000E-01  8.00000000E-01  1.50000000E+00
  1.50000000E+00  8.00000000E-01  8.00000000E-01  1.50000000E+00  1.50000000E+00
  8.00000000E-01  8.00000000E-01  1.50000000E+00  1.50000000E+00  8.00000000E-01
  8.00000000E-01  1.50000000E+00  1.50000000E+00  8.00000000E-01  8.00000000E-01
  1.50000000E+00  1.50000000E+00  8.00000000E-01  8.00000000E-01  1.50000000E+00
  1.50000000E+00  8.00000000E-01  8.00000000E-01  1.50000000E+00  1.50000000E+00
  8.00000000E-01  8.00000000E-01  1.50000000E+00  1.50000000E+00  8.00000000E-01
  8.00000000E-01  1.50000000E+00  1.50000000E+00  8.00000000E-01  8.00000000E-01
  1.50000000E+00  1.50000000E+00  8.00000000E-01  8.00000000E-01  1.50000000E+00
  1.50000000E+00  8.00000000E-01  8.00000000E-01  1.50000000E+00  1.50000000E+00
  8.00000000E-01  8.00000000E-01  1.50000000E+00  1.50000000E+00  8.00000000E-01
  8.00000000E-01  1.50000000E+00  1.50000000E+00  8.00000000E-01  8.00000000E-01
  1.50000000E+00  1.50000000E+00  8.00000000E-01  8.00000000E-01  1.50000000E+00
  1.50000000E+00  8.00000000E-01  8.00000000E-01  1.50000000E+00  1.50000000E+00
  8.00000000E-01  8.00000000E-01  1.50000000E+00  1.50000000E+00  8.00000000E-01
  8.00000000E-01  1.50000000E+00  1.50000000E+00  8.00000000E-01  8.00000000E-01
  1.50000000E+00  1.50000000E+00  8.00000000E-01  8.00000000E-01  1.50000000E+00
  1.50000000E+00  8.00000000E-01  8.00000000E-01  1.50000000E+00  1.50000000E+00
  8.00000000E-01  8.00000000E-01  1.50000000E+00  1.50000000E+00  8.00000000E-01
  8.00000000E-01  1.50000000E+00  1.50000000E+00  8.00000000E-01  8.00000000E-01
  1.50000000E+00  1.50000000E+00  8.00000000E-01  8.00000000E-01  1.50000000E+00
  1.50000000E+00  8.00000000E-01  8.00000000E-01  1.50000000E+00  1.50000000E+00
  8.00000000E-01  8.00000000E-01  1.50000000E+00  1.50000000E+00  8.00000000E-01
  8.00000000E-01  1.50000000E+00  1.50000000E+00  8.00000000E-01  8.00000000E-01
  1.50000000E+00  1.50000000E+00  8.00000000E-01  8.00000000E-01  1.50000000E+00
  1.50000000E+00  8.00000000E-01  8.00000000E-01  1.50000000E+00  1.50000000E+00
  8.00000000E-01  8.00000000E-01  1.50000000E+00  1.50000000E+00  8.00000000E-01
  8.00000000E-01  1.50000000E+00  1.50000000E+00  8.00000000E-01  8.00000000E-01
  1.50000000E+00  1.50000000E+00  8.00000000E-01  8.00000000E-01  1.50000000E+00
  1.50000000E+00  8.00000000E-01  8.00000000E-01  1.50000000E+00  1.50000000E+00
  8.00000000E-01  8.00000000E-01  1.50000000E+00  1.50000000E+00  8.00000000E-01
  8.00000000E-01  1.50000000E+00  1.50000000E+00  8.00000000E-01  8.00000000E-01
  1.50000000E+00  1.50000000E+00  8.00000000E-01  8.00000000E-01  1.50000000E+00
  1.50000000E+00  8.00000000E-01  8.00000000E-01  1.50000000E+00  1.50000000E+00
  8.00000000E-01  8.00000000E-01  1.50000000E+00  1.50000000E+00  8.00000000E-01
  8.00000000E-01  1.50000000E+00  1.50000000E+00  8.00000000E-01  8.00000000E-01
  1.50000000E+00  1.50000000E+00  8.00000000E-01  8.00000000E-01  1.50000000E+00
  1.50000000E+00  8.00000000E-01  8.00000000E-01  1.50000000E+00  1.50000000E+00
  8.00000000E-01  8.00000000E-01  1.50000000E+00  1.50000000E+00  8.00000000E-01
  8.00000000E-01  1.50000000E+00  1.50000000E+00  8.00000000E-01  8.00000000E-01
  1.50000000E+00  1.50000000E+00  8.00000000E-01  8.00000000E-01  1.50000000E+00
  1.50000000E+00  8.00000000E-01  8.00000000E-01  1.50000000E+00  1.50000000E+00
  8.00000000E-01  8.00000000E-01  1.50000000E+00  1.50000000E+00  8.00000000E-01
  8.00000000E-01  1.50000000E+00  1.50000000E+00  8.00000000E-01  8.00000000E-01
  1.50000000E+00  1.50000000E+00  8.00000000E-01  8.00000000E-01  1.50000000E+00
  1.50000000E+00  8.00000000E-01  8.00000000E-01  1.50000000E+00  1.50000000E+00
  8.00000000E-01  8.00000000E-01  1.50000000E+00  1.50000000E+00  8.00000000E-01
  8.00000000E-01  1.50000000E+00  1.50000000E+00  8.00000000E-01  8.00000000E-01
  1.50000000E+00  1.50000000E+00  8.00000000E-01  8.00000000E-01  1.50000000E+00
  1.50000000E+00  8.00000000E-01  8.00000000E-01  1.50000000E+00  1.50000000E+00
  8.00000000E-01  8.00000000E-01  1.50000000E+00  1.50000000E+00  8.00000000E-01
  8.00000000E-01  1.50000000E+00  1.50000000E+00  8.00000000E-01  8.00000000E-01
  1.50000000E+00  1.50000000E+00  8.00000000E-01  8.00000000E-01  1.50000000E+00
  1.50000000E+00  8.00000000E-01  8.00000000E-01  1.50000000E+00  1.50000000E+00
  8.00000000E-01  8.00000000E-01  1.50000000E+00  1.50000000E+00  8.00000000E-01
  8.00000000E-01  1.50000000E+00  1.50000000E+00  8.00000000E-01  8.00000000E-01
  1.50000000E+00  1.50000000E+00  8.00000000E-01  8.00000000E-01  1.50000000E+00
  1.50000000E+00  8.00000000E-01  8.00000000E-01  1.50000000E+00  1.50000000E+00
  8.00000000E-01  8.00000000E-01  1.50000000E+00  1.50000000E+00  8.00000000E-01
  8.00000000E-01  1.50000000E+00  1.50000000E+00  8.00000000E-01  8.00000000E-01
  1.50000000E+00  1.50000000E+00  8.00000000E-01  8.00000000E-01  1.50000000E+00
  1.50000000E+00  8.00000000E-01  8.00000000E-01  1.50000000E+00  1.50000000E+00
  8.00000000E-01  8.00000000E-01  1.50000000E+00  1.50000000E+00  8.00000000E-01
  8.00000000E-01  1.50000000E+00  1.50000000E+00  8.00000000E-01  8.00000000E-01
  1.50000000E+00  1.50000000E+00  8.00000000E-01  8.00000000E-01  1.50000000E+00
  1.50000000E+00  8.00000000E-01  8.00000000E-01  1.50000000E+00  1.50000000E+00
  8.00000000E-01  8.00000000E-01  1.50000000E+00  1.50000000E+00  8.00000000E-01
  8.00000000E-01  1.50000000E+00  1.50000000E+00  8.00000000E-01  8.00000000E-01
  1.50000000E+00  1.50000000E+00  8.00000000E-01  8.00000000E-01  1.50000000E+00
  1.50000000E+00  8.00000000E-01  8.00000000E-01  1.50000000E+00  1.50000000E+00
  8.00000000E-01  8.00000000E-01  1.50000000E+00  1.50000000E+00  8.00000000E-01
  8.00000000E-01  1.50000000E+00  1.50000000E+00  8.00000000E-01  8.00000000E-01
  1.50000000E+00  1.50000000E+00  8.00000000E-01  8.00000000E-01  1.50000000E+00
  1.50000000E+00  8.00000000E-01  8.00000000E-01  1.50000000E+00  1.50000000E+00
  8.00000000E-01  8.00000000E-01  1.50000000E+00  1.50000000E+00  8.00000000E-01
  8.00000000E-01  1.50000000E+00  1.50000000E+00  8.00000000E-01  8.00000000E-01
  1.50000000E+00  1.50000000E+00  8.00000000E-01  8.00000000E-01  1.50000000E+00
  1.50000000E+00  8.00000000E-01  8.00000000E-01  1.50000000E+00  1.50000000E+00
  8.00000000E-01  8.00000000E-01  1.50000000E+00  1.50000000E+00  8.00000000E-01
  8.00000000E-01  1.50000000E+00  1.50000000E+00  8.00000000E-01  8.00000000E-01
  1.50000000E+00  1.50000000E+00  8.00000000E-01  8.00000000E-01  1.50000000E+00
  1.50000000E+00  8.00000000E-01  8.00000000E-01  1.50000000E+00  1.50000000E+00
  8.00000000E-01  8.00000000E-01  1.50000000E+00  1.50000000E+00  8.00000000E-01
  8.00000000E-01  1.50000000E+00  1.50000000E+00  8.00000000E-01  8.00000000E-01
  1.50000000E+00  1.50000000E+00  8.00000000E-01  8.00000000E-01  1.50000000E+00
  1.50000000E+00  8.00000000E-01  8.00000000E-01  1.50000000E+00  1.50000000E+00
  8.00000000E-01  8.00000000E-01  1.50000000E+00  1.50000000E+00  8.00000000E-01
  8.00000000E-01  1.50000000E+00  1.50000000E+00  8.00000000E-01  8.00000000E-01
  1.50000000E+00  1.50000000E+00  8.00000000E-01  8.00000000E-01  1.50000000E+00
  1.50000000E+00  8.00000000E-01  8.00000000E-01  1.50000000E+00  1.50000000E+00
  8.00000000E-01  8.00000000E-01  1.50000000E+00  1.50000000E+00  8.00000000E-01
  8.00000000E-01  1.50000000E+00  1.50000000E+00  8.00000000E-01  8.00000000E-01
  1.50000000E+00  1.50000000E+00  8.00000000E-01  8.00000000E-01  1.50000000E+00
  1.50000000E+00  8.00000000E-01  8.00000000E-01  1.50000000E+00  1.50000000E+00
  8.00000000E-01  8.00000000E-01  1.50000000E+00  1.50000000E+00  8.00000000E-01
  8.00000000E-01  1.50000000E+00  1.50000000E+00  8.00000000E-01  8.00000000E-01
  1.50000000E+00  1.50000000E+00  8.00000000E-01  8.00000000E-01  1.50000000E+00
  1.50000000E+00  8.00000000E-01  8.00000000E-01  1.50000000E+00  1.50000000E+00
  8.00000000E-01  8.00000000E-01  1.50000000E+00  1.50000000E+00  8.00000000E-01
  8.00000000E-01  1.50000000E+00  1.50000000E+00  8.00000000E-01  8.00000000E-01
  1.50000000E+00  1.50000000E+00  8.00000000E-01  8.00000000E-01  1.50000000E+00
  1.50000000E+00  8.00000000E-01  8.00000000E-01  1.50000000E+00  1.50000000E+00
  8.00000000E-01  8.00000000E-01  1.50000000E+00  1.50000000E+00  8.00000000E-01
  8.00000000E-01  1.50000000E+00  1.50000000E+00  8.00000000E-01  8.00000000E-01
  1.50000000E+00  1.50000000E+00  8.00000000E-01  8.00000000E-01  1.50000000E+00
  1.50000000E+00  8.00000000E-01  8.00000000E-01  1.50000000E+00  1.50000000E+00
  8.00000000E-01  8.00000000E-01  1.50000000E+00  1.50000000E+00  8.00000000E-01
  8.00000000E-01  1.50000000E+00  1.50000000E+00  8.00000000E-01  8.00000000E-01
  1.50000000E+00  1.50000000E+00  8.00000000E-01  8.00000000E-01  1.50000000E+00
  1.50000000E+00  8.00000000E-01  8.00000000E-01  1.50000000E+00  1.50000000E+00
  8.00000000E-01  8.00000000E-01  1.50000000E+00  1.50000000E+00  8.00000000E-01
  8.00000000E-01  1.50000000E+00  1.50000000E+00  8.00000000E-01  8.00000000E-01
  1.50000000E+00  1.50000000E+00  8.00000000E-01  8.00000000E-01  1.50000000E+00
  1.50000000E+00  8.00000000E-01  8.00000000E-01  1.50000000E+00  1.50000000E+00
  8.00000000E-01  8.00000000E-01  1.50000000E+00  1.50000000E+00  8.00000000E-01
  8.00000000E-01  1.50000000E+00  1.50000000E+00  8.00000000E-01  8.00000000E-01
  1.50000000E+00  1.50000000E+00  8.00000000E-01  8.00000000E-01  1.50000000E+00
  1.50000000E+00  8.00000000E-01  8.00000000E-01  1.50000000E+00  1.50000000E+00
  8.00000000E-01  8.00000000E-01  1.50000000E+00  1.50000000E+00  8.00000000E-01
  8.00000000E-01  1.50000000E+00  1.50000000E+00  8.00000000E-01  8.00000000E-01
  1.50000000E+00  1.50000000E+00  8.00000000E-01  8.00000000E-01  1.50000000E+00
  1.50000000E+00  8.00000000E-01  8.00000000E-01  1.50000000E+00  1.50000000E+00
  8.00000000E-01  8.00000000E-01  1.50000000E+00  1.50000000E+00  8.00000000E-01
  8.00000000E-01  1.50000000E+00  1.50000000E+00  8.00000000E-01  8.00000000E-01
  1.50000000E+00  1.50000000E+00  8.00000000E-01  8.00000000E-01  1.50000000E+00
  1.50000000E+00  8.00000000E-01  8.00000000E-01  1.50000000E+00  1.50000000E+00
  8.00000000E-01  8.00000000E-01  1.50000000E+00  1.50000000E+00  8.00000000E-01
  8.00000000E-01  1.50000000E+00  1.50000000E+00  8.00000000E-01  8.00000000E-01
  1.50000000E+00  1.50000000E+00  8.00000000E-01  8.00000000E-01  1.50000000E+00
  1.50000000E+00  8.00000000E-01  8.00000000E-01  1.50000000E+00  1.50000000E+00
  8.00000000E-01  8.00000000E-01  1.50000000E+00  1.50000000E+00  8.00000000E-01
  8.00000000E-01  1.50000000E+00  1.50000000E+00  8.00000000E-01  8.00000000E-01
  1.50000000E+00  1.50000000E+00  8.00000000E-01  8.00000000E-01  1.50000000E+00
  1.50000000E+00  8.00000000E-01  8.00000000E-01  1.50000000E+00  1.50000000E+00
  8.00000000E-01  8.00000000E-01  1.50000000E+00  1.50000000E+00  8.00000000E-01
  8.00000000E-01  1.50000000E+00  1.50000000E+00  8.00000000E-01  8.00000000E-01
  1.50000000E+00  1.50000000E+00  8.00000000E-01  8.00000000E-01  1.50000000E+00
  1.50000000E+00  8.00000000E-01  8.00000000E-01  1.50000000E+00  1.50000000E+00
  8.00000000E-01  8.00000000E-01  1.50000000E+00  1.50000000E+00  8.00000000E-01
  8.00000000E-01  1.50000000E+00  1.50000000E+00  8.00000000E-01  8.00000000E-01
  1.50000000E+00  1.50000000E+00  8.00000000E-01  8.00000000E-01  1.50000000E+00
  1.50000000E+00  8.00000000E-01  8.00000000E-01  1.50000000E+00  1.50000000E+00
  8.00000000E-01  8.00000000E-01  1.50000000E+00  1.50000000E+00  8.00000000E-01
  8.00000000E-01  1.50000000E+00  1.50000000E+00  8.00000000E-01  8.00000000E-01
  1.50000000E+00  1.50000000E+00  8.00000000E-01  8.00000000E-01  1.50000000E+00
  1.50000000E+00  8.00000000E-01  8.00000000E-01  1.50000000E+00  1.50000000E+00
  8.00000000E-01  8.00000000E-01  1.50000000E+00  1.50000000E+00  8.00000000E-01
  8.00000000E-01  1.50000000E+00  1.50000000E+00  8.00000000E-01  8.00000000E-01
  1.50000000E+00  1.50000000E+00  8.00000000E-01  8.00000000E-01  1.50000000E+00
  1.50000000E+00  8.00000000E-01  8.00000000E-01  1.50000000E+00  1.50000000E+00
  8.00000000E-01  8.00000000E-01  1.50000000E+00  1.50000000E+00  8.00000000E-01
  8.00000000E-01  1.50000000E+00  1.50000000E+00  8.00000000E-01  8.00000000E-01
  1.50000000E+00  1.50000000E+00  8.00000000E-01  8.00000000E-01  1.50000000E+00
  1.50000000E+00  8.00000000E-01  8.00000000E-01  1.50000000E+00  1.50000000E+00
  8.00000000E-01  8.00000000E-01  1.50000000E+00  1.50000000E+00  8.00000000E-01
  8.00000000E-01  1.50000000E+00  1.50000000E+00  8.00000000E-01  8.00000000E-01
  1.50000000E+00  1.50000000E+00  8.00000000E-01  8.00000000E-01  1.50000000E+00
  1.50000000E+00  8.00000000E-01  8.00000000E-01  1.50000000E+00  1.50000000E+00
  8.00000000E-01  8.00000000E-01  1.50000000E+00  1.50000000E+00  8.00000000E-01
  8.00000000E-01  1.50000000E+00  1.50000000E+00  8.00000000E-01  8.00000000E-01
  1.50000000E+00  1.50000000E+00  8.00000000E-01  8.00000000E-01  1.50000000E+00
  1.50000000E+00  8.00000000E-01  8.00000000E-01  1.50000000E+00  1.50000000E+00
  8.00000000E-01  8.00000000E-01  1.50000000E+00  1.50000000E+00  8.00000000E-01
  8.00000000E-01  1.50000000E+00  1.50000000E+00  8.00000000E-01  8.00000000E-01
  1.50000000E+00  1.50000000E+00  8.00000000E-01  8.00000000E-01  1.50000000E+00
  1.50000000E+00  8.00000000E-01  8.00000000E-01  1.50000000E+00  1.50000000E+00
  8.00000000E-01  8.00000000E-01  1.50000000E+00  1.50000000E+00  8.00000000E-01
  8.00000000E-01  1.50000000E+00  1.50000000E+00  8.00000000E-01  8.00000000E-01
  1.50000000E+00  1.50000000E+00  8.00000000E-01  8.00000000E-01  1.50000000E+00
  1.50000000E+00  8.00000000E-01  8.00000000E-01  1.50000000E+00  1.50000000E+00
  8.00000000E-01  8.00000000E-01  1.50000000E+00  1.50000000E+00  8.00000000E-01
  8.00000000E-01  1.50000000E+00  1.50000000E+00  8.00000000E-01  8.00000000E-01
  1.50000000E+00  1.50000000E+00  8.00000000E-01  8.00000000E-01  1.50000000E+00
  1.50000000E+00  8.00000000E-01  8.00000000E-01  1.50000000E+00  1.50000000E+00
  8.00000000E-01  8.00000000E-01  1.50000000E+00  1.50000000E+00  8.00000000E-01
  8.00000000E-01  1.50000000E+00  1.50000000E+00  8.00000000E-01  8.00000000E-01
  1.50000000E+00  1.50000000E+00  8.00000000E-01  8.00000000E-01  1.50000000E+00
  1.50000000E+00  8.00000000E-01  8.00000000E-01  1.50000000E+00  1.50000000E+00
  8.00000000E-01  8.00000000E-01  1.50000000E+00  1.50000000E+00  8.00000000E-01
  8.00000000E-01  1.50000000E+00  1.50000000E+00  8.00000000E-01  8.00000000E-01
  1.50000000E+00  1.50000000E+00  8.00000000E-01  8.00000000E-01  1.50000000E+00
  1.50000000E+00  8.00000000E-01  8.00000000E-01  1.50000000E+00  1.50000000E+00
  8.00000000E-01  8.00000000E-01  1.50000000E+00  1.50000000E+00  8.00000000E-01
  8.00000000E-01  1.50000000E+00  1.50000000E+00  8.00000000E-01  8.00000000E-01
  1.50000000E+00  1.50000000E+00  8.00000000E-01  8.00000000E-01  1.50000000E+00
  1.50000000E+00  8.00000000E-01  8.00000000E-01  1.50000000E+00  1.50000000E+00
  8.00000000E-01  8.00000000E-01  1.50000000E+00  1.50000000E+00  8.00000000E-01
  8.00000000E-01  1.50000000E+00  1.50000000E+00  8.00000000E-01  8.00000000E-01
  1.50000000E+00  1.50000000E+00  8.00000000E-01  8.00000000E-01  1.50000000E+00
  1.50000000E+00  8.00000000E-01  8.00000000E-01  1.50000000E+00  1.50000000E+00
  8.00000000E-01  8.00000000E-01  1.50000000E+00  1.50000000E+00  8.00000000E-01
  8.00000000E-01  1.50000000E+00  1.50000000E+00  8.00000000E-01  8.00000000E-01
  1.50000000E+00  1.50000000E+00  8.00000000E-01  8.00000000E-01  1.50000000E+00
  1.50000000E+00  8.00000000E-01  8.00000000E-01  1.50000000E+00  1.50000000E+00
  8.00000000E-01  8.00000000E-01  1.50000000E+00  1.50000000E+00  8.00000000E-01
  8.00000000E-01  1.50000000E+00  1.50000000E+00  8.00000000E-01  8.00000000E-01
  1.50000000E+00  1.50000000E+00  8.00000000E-01  8.00000000E-01  1.50000000E+00
  1.50000000E+00  8.00000000E-01  8.00000000E-01  1.50000000E+00  1.50000000E+00
  8.00000000E-01  8.00000000E-01  1.50000000E+00  1.50000000E+00  8.00000000E-01
  8.00000000E-01  1.50000000E+00  1.50000000E+00  8.00000000E-01  8.00000000E-01
  1.50000000E+00  1.50000000E+00  8.00000000E-01  8.00000000E-01  1.50000000E+00
  1.50000000E+00  8.00000000E-01  8.00000000E-01  1.50000000E+00  1.50000000E+00
  8.00000000E-01  8.00000000E-01  1.50000000E+00  1.50000000E+00  8.00000000E-01
  8.00000000E-01  1.50000000E+00  1.50000000E+00  8.00000000E-01  8.00000000E-01
  1.50000000E+00  1.50000000E+00  8.00000000E-01  8.00000000E-01  1.50000000E+00
  1.50000000E+00  8.00000000E-01  8.00000000E-01  1.50000000E+00  1.50000000E+00
  8.00000000E-01  8.00000000E-01  1.50000000E+00  1.50000000E+00  8.00000000E-01
  8.00000000E-01  1.50000000E+00  1.50000000E+00  8.00000000E-01  8.00000000E-01
  1.50000000E+00  1.50000000E+00  8.00000000E-01  8.00000000E-01  1.50000000E+00
  1.50000000E+00  8.00000000E-01  8.00000000E-01  1.50000000E+00  1.50000000E+00
  8.00000000E-01  8.00000000E-01  1.50000000E+00  1.50000000E+00  8.00000000E-01
  8.00000000E-01  1.50000000E+00  1.50000000E+00  8.00000000E-01  8.00000000E-01
  1.50000000E+00  1.50000000E+00  8.00000000E-01  8.00000000E-01  1.50000000E+00
  1.50000000E+00  8.00000000E-01  8.00000000E-01  1.50000000E+00  1.50000000E+00
  8.00000000E-01  8.00000000E-01  1.50000000E+00  1.50000000E+00  8.00000000E-01
  8.00000000E-01  1.50000000E+00  1.50000000E+00  8.00000000E-01  8.00000000E-01
  1.50000000E+00  1.50000000E+00  8.00000000E-01  8.00000000E-01  1.50000000E+00
  1.50000000E+00  8.00000000E-01  8.00000000E-01  1.50000000E+00  1.50000000E+00
  8.00000000E-01  8.00000000E-01  1.50000000E+00  1.50000000E+00  8.00000000E-01
  8.00000000E-01  1.50000000E+00  1.50000000E+00  8.00000000E-01  8.00000000E-01
  1.50000000E+00  1.50000000E+00  8.00000000E-01  8.00000000E-01  1.50000000E+00
  1.50000000E+00  8.00000000E-01  8.00000000E-01  1.50000000E+00  1.50000000E+00
  8.00000000E-01  8.00000000E-01  1.50000000E+00  1.50000000E+00  8.00000000E-01
  8.00000000E-01  1.50000000E+00  1.50000000E+00  8.00000000E-01  8.00000000E-01
  1.50000000E+00  1.50000000E+00  8.00000000E-01  8.00000000E-01  1.50000000E+00
  1.50000000E+00  8.00000000E-01  8.00000000E-01  1.50000000E+00  1.50000000E+00
  8.00000000E-01  8.00000000E-01  1.50000000E+00  1.50000000E+00  8.00000000E-01
  8.00000000E-01  1.50000000E+00  1.50000000E+00  8.00000000E-01  8.00000000E-01
  1.50000000E+00  1.50000000E+00  8.00000000E-01  8.00000000E-01  1.50000000E+00
  1.50000000E+00  8.00000000E-01  8.00000000E-01  1.50000000E+00  1.50000000E+00
  8.00000000E-01  8.00000000E-01  1.50000000E+00  1.50000000E+00  8.00000000E-01
  8.00000000E-01  1.50000000E+00  1.50000000E+00  8.00000000E-01  8.00000000E-01
  1.50000000E+00  1.50000000E+00  8.00000000E-01  8.00000000E-01  1.50000000E+00
  1.50000000E+00  8.00000000E-01  8.00000000E-01  1.50000000E+00  1.50000000E+00
  8.00000000E-01  8.00000000E-01  1.50000000E+00  1.50000000E+00  8.00000000E-01
  8.00000000E-01  1.50000000E+00  1.50000000E+00  8.00000000E-01  8.00000000E-01
  1.50000000E+00  1.50000000E+00  8.00000000E-01  8.00000000E-01  1.50000000E+00
  1.50000000E+00  8.00000000E-01  8.00000000E-01  1.50000000E+00  1.50000000E+00
  8.00000000E-01  8.00000000E-01  1.50000000E+00  1.50000000E+00  8.00000000E-01
  8.00000000E-01  1.50000000E+00  1.50000000E+00  8.00000000E-01  8.00000000E-01
  1.50000000E+00  1.50000000E+00  8.00000000E-01  8.00000000E-01  1.50000000E+00
  1.50000000E+00  8.00000000E-01  8.00000000E-01  1.50000000E+00  1.50000000E+00
  8.00000000E-01  8.00000000E-01  1.50000000E+00  1.50000000E+00  8.00000000E-01
  8.00000000E-01  1.50000000E+00  1.50000000E+00  8.00000000E-01  8.00000000E-01
  1.50000000E+00  1.50000000E+00  8.00000000E-01  8.00000000E-01  1.50000000E+00
  1.50000000E+00  8.00000000E-01  8.00000000E-01  1.50000000E+00  1.50000000E+00
  8.00000000E-01  8.00000000E-01  1.50000000E+00  1.50000000E+00  8.00000000E-01
  8.00000000E-01  1.50000000E+00  1.50000000E+00  8.00000000E-01  8.00000000E-01
  1.50000000E+00  1.50000000E+00  8.00000000E-01  8.00000000E-01  1.50000000E+00
  1.50000000E+00  8.00000000E-01  8.00000000E-01  1.50000000E+00  1.50000000E+00
  8.00000000E-01  8.00000000E-01  1.50000000E+00  1.50000000E+00  8.00000000E-01
  8.00000000E-01  1.50000000E+00  1.50000000E+00  8.00000000E-01  8.00000000E-01
  1.50000000E+00  1.50000000E+00  8.00000000E-01  8.00000000E-01  1.50000000E+00
  1.50000000E+00  8.00000000E-01  8.00000000E-01  1.50000000E+00  1.50000000E+00
  8.00000000E-01  8.00000000E-01  1.50000000E+00  1.50000000E+00  8.00000000E-01
  8.00000000E-01  1.50000000E+00  1.50000000E+00  8.00000000E-01  8.00000000E-01
  1.50000000E+00  1.50000000E+00  8.00000000E-01  8.00000000E-01  1.50000000E+00
  1.50000000E+00  8.00000000E-01  8.00000000E-01  1.50000000E+00  1.50000000E+00
  8.00000000E-01  8.00000000E-01  1.50000000E+00  1.50000000E+00  8.00000000E-01
  8.00000000E-01  1.50000000E+00  1.50000000E+00  8.00000000E-01  8.00000000E-01
  1.50000000E+00  1.50000000E+00  8.00000000E-01  8.00000000E-01  1.50000000E+00
  1.50000000E+00  8.00000000E-01  8.00000000E-01  1.50000000E+00  1.50000000E+00
  8.00000000E-01  8.00000000E-01  1.50000000E+00  1.50000000E+00  8.00000000E-01
  8.00000000E-01  1.50000000E+00  1.50000000E+00  8.00000000E-01  8.00000000E-01
  1.50000000E+00  1.50000000E+00  8.00000000E-01  8.00000000E-01  1.50000000E+00
  1.50000000E+00  8.00000000E-01  8.00000000E-01  1.50000000E+00  1.50000000E+00
  8.00000000E-01  8.00000000E-01  1.50000000E+00  1.50000000E+00  8.00000000E-01
  8.00000000E-01  1.50000000E+00  1.50000000E+00  8.00000000E-01  8.00000000E-01
  1.50000000E+00  1.50000000E+00  8.00000000E-01  8.00000000E-01  1.50000000E+00
  1.50000000E+00  8.00000000E-01  8.00000000E-01  1.50000000E+00  1.50000000E+00
  8.00000000E-01  8.00000000E-01  1.50000000E+00  1.50000000E+00  8.00000000E-01
  8.00000000E-01  1.50000000E+00  1.50000000E+00  8.00000000E-01  8.00000000E-01
  1.50000000E+00  1.50000000E+00  8.00000000E-01  8.00000000E-01  1.50000000E+00
  1.50000000E+00  8.00000000E-01  8.00000000E-01  1.50000000E+00  1.50000000E+00
  8.00000000E-01  8.00000000E-01  1.50000000E+00  1.50000000E+00  8.00000000E-01
  8.00000000E-01  1.50000000E+00  1.50000000E+00  8.00000000E-01  8.00000000E-01
  1.50000000E+00  1.50000000E+00  8.00000000E-01  8.00000000E-01  1.50000000E+00
  1.50000000E+00  8.00000000E-01  8.00000000E-01  1.50000000E+00  1.50000000E+00
  8.00000000E-01  8.00000000E-01  1.50000000E+00  1.50000000E+00  8.00000000E-01
  8.00000000E-01  1.50000000E+00  1.50000000E+00  8.00000000E-01  8.00000000E-01
  1.50000000E+00  1.50000000E+00  8.00000000E-01  8.00000000E-01  1.50000000E+00
  1.50000000E+00  8.00000000E-01  8.00000000E-01  1.50000000E+00  1.50000000E+00
  8.00000000E-01  8.00000000E-01  1.50000000E+00  1.50000000E+00  8.00000000E-01
  8.00000000E-01  1.50000000E+00  1.50000000E+00  8.00000000E-01  8.00000000E-01
  1.50000000E+00  1.50000000E+00  8.00000000E-01  8.00000000E-01  1.50000000E+00
  1.50000000E+00  8.00000000E-01  8.00000000E-01  1.50000000E+00  1.50000000E+00
  8.00000000E-01  8.00000000E-01  1.50000000E+00  1.50000000E+00  8.00000000E-01
  8.00000000E-01  1.50000000E+00  1.50000000E+00  8.00000000E-01  8.00000000E-01
  1.50000000E+00  1.50000000E+00  8.00000000E-01  8.00000000E-01  1.50000000E+00
  1.50000000E+00  8.00000000E-01  8.00000000E-01  1.50000000E+00  1.50000000E+00
  8.00000000E-01  8.00000000E-01  1.50000000E+00  1.50000000E+00  8.00000000E-01
  8.00000000E-01  1.50000000E+00  1.50000000E+00  8.00000000E-01  8.00000000E-01
  1.50000000E+00  1.50000000E+00  8.00000000E-01  8.00000000E-01  1.50000000E+00
  1.50000000E+00  8.00000000E-01  8.00000000E-01  1.50000000E+00  1.50000000E+00
  8.00000000E-01  8.00000000E-01  1.50000000E+00  1.50000000E+00  8.00000000E-01
  8.00000000E-01  1.50000000E+00  1.50000000E+00  8.00000000E-01  8.00000000E-01
  1.50000000E+00  1.50000000E+00  8.00000000E-01  8.00000000E-01  1.50000000E+00
  1.50000000E+00  8.00000000E-01  8.00000000E-01  1.50000000E+00  1.50000000E+00
  8.00000000E-01  8.00000000E-01  1.50000000E+00  1.50000000E+00  8.00000000E-01
  8.00000000E-01  1.50000000E+00  1.50000000E+00  8.00000000E-01  8.00000000E-01
  1.50000000E+00  1.50000000E+00  8.00000000E-01  8.00000000E-01  1.50000000E+00
  1.50000000E+00  8.00000000E-01  8.00000000E-01  1.50000000E+00  1.50000000E+00
  8.00000000E-01  8.00000000E-01  1.50000000E+00  1.50000000E+00  8.00000000E-01
  8.00000000E-01  1.50000000E+00  1.50000000E+00  8.00000000E-01  8.00000000E-01
  1.50000000E+00  1.50000000E+00  8.00000000E-01  8.00000000E-01  1.50000000E+00
  1.50000000E+00  8.00000000E-01  8.00000000E-01  1.50000000E+00  1.50000000E+00
  8.00000000E-01  8.00000000E-01  1.50000000E+00  1.50000000E+00  8.00000000E-01
  8.00000000E-01  1.50000000E+00  1.50000000E+00  8.00000000E-01  8.00000000E-01
  1.50000000E+00  1.50000000E+00  8.00000000E-01  8.00000000E-01  1.50000000E+00
  1.50000000E+00  8.00000000E-01  8.00000000E-01  1.50000000E+00  1.50000000E+00
  8.00000000E-01  8.00000000E-01  1.50000000E+00  1.50000000E+00  8.00000000E-01
  8.00000000E-01  1.50000000E+00  1.50000000E+00  8.00000000E-01  8.00000000E-01
  1.50000000E+00  1.50000000E+00  8.00000000E-01  8.00000000E-01  1.50000000E+00
  1.50000000E+00  8.00000000E-01  8.00000000E-01  1.50000000E+00  1.50000000E+00
  8.00000000E-01  8.00000000E-01  1.50000000E+00  1.50000000E+00  8.00000000E-01
  8.00000000E-01  1.50000000E+00  1.50000000E+00  8.00000000E-01  8.00000000E-01
  1.50000000E+00  1.50000000E+00  8.00000000E-01  8.00000000E-01  1.50000000E+00
  1.50000000E+00  8.00000000E-01  8.00000000E-01  1.50000000E+00  1.50000000E+00
  8.00000000E-01  8.00000000E-01  1.50000000E+00  1.50000000E+00  8.00000000E-01
  8.00000000E-01  1.50000000E+00  1.50000000E+00  8.00000000E-01  8.00000000E-01
  1.50000000E+00  1.50000000E+00  8.00000000E-01  8.00000000E-01  1.50000000E+00
  1.50000000E+00  8.00000000E-01  8.00000000E-01  1.50000000E+00  1.50000000E+00
  8.00000000E-01  8.00000000E-01  1.50000000E+00  1.50000000E+00  8.00000000E-01
  8.00000000E-01  1.50000000E+00  1.50000000E+00  8.00000000E-01  8.00000000E-01
  1.50000000E+00  1.50000000E+00  8.00000000E-01  8.00000000E-01  1.50000000E+00
  1.50000000E+00  8.00000000E-01  8.00000000E-01  1.50000000E+00  1.50000000E+00
  8.00000000E-01  8.00000000E-01  1.50000000E+00  1.50000000E+00  8.00000000E-01
  8.00000000E-01  1.50000000E+00  1.50000000E+00  8.00000000E-01  8.00000000E-01
  1.50000000E+00  1.50000000E+00  8.00000000E-01  8.00000000E-01  1.50000000E+00
  1.50000000E+00  8.00000000E-01  8.00000000E-01  1.50000000E+00  1.50000000E+00
  8.00000000E-01  8.00000000E-01  1.50000000E+00  1.50000000E+00  8.00000000E-01
  8.00000000E-01  1.50000000E+00  1.50000000E+00  8.00000000E-01  8.00000000E-01
  1.50000000E+00  1.50000000E+00  8.00000000E-01  8.00000000E-01  1.50000000E+00
  1.50000000E+00  8.00000000E-01  8.00000000E-01  1.50000000E+00  1.50000000E+00
  8.00000000E-01  8.00000000E-01  1.50000000E+00  1.50000000E+00  8.00000000E-01
  8.00000000E-01  1.50000000E+00  1.50000000E+00  8.00000000E-01  8.00000000E-01
  1.50000000E+00  1.50000000E+00  8.00000000E-01  8.00000000E-01  1.50000000E+00
  1.50000000E+00  8.00000000E-01  8.00000000E-01  1.50000000E+00  1.50000000E+00
  8.00000000E-01  8.00000000E-01  1.50000000E+00  1.50000000E+00  8.00000000E-01
  8.00000000E-01  1.50000000E+00  1.50000000E+00  8.00000000E-01  8.00000000E-01
  1.50000000E+00  1.50000000E+00  8.00000000E-01  8.00000000E-01  1.50000000E+00
  1.50000000E+00  8.00000000E-01  8.00000000E-01  1.50000000E+00  1.50000000E+00
  8.00000000E-01  8.00000000E-01  1.50000000E+00  1.50000000E+00  8.00000000E-01
  8.00000000E-01  1.50000000E+00  1.50000000E+00  8.00000000E-01  8.00000000E-01
  1.50000000E+00  1.50000000E+00  8.00000000E-01  8.00000000E-01  1.50000000E+00
  1.50000000E+00  8.00000000E-01  8.00000000E-01  1.50000000E+00  1.50000000E+00
  8.00000000E-01  8.00000000E-01  1.50000000E+00  1.50000000E+00  8.00000000E-01
  8.00000000E-01  1.50000000E+00  1.50000000E+00  8.00000000E-01  8.00000000E-01
  1.50000000E+00  1.50000000E+00  8.00000000E-01  8.00000000E-01  1.50000000E+00
  1.50000000E+00  8.00000000E-01  8.00000000E-01  1.50000000E+00  1.50000000E+00
  8.00000000E-01  8.00000000E-01  1.50000000E+00  1.50000000E+00  8.00000000E-01
  8.00000000E-01  1.50000000E+00  1.50000000E+00  8.00000000E-01  8.00000000E-01
  1.50000000E+00  1.50000000E+00  8.00000000E-01  8.00000000E-01  1.50000000E+00
  1.50000000E+00  8.00000000E-01  8.00000000E-01  1.50000000E+00  1.50000000E+00
  8.00000000E-01  8.00000000E-01  1.50000000E+00  1.50000000E+00  8.00000000E-01
  8.00000000E-01  1.50000000E+00  1.50000000E+00  8.00000000E-01  8.00000000E-01
  1.50000000E+00  1.50000000E+00  8.00000000E-01  8.00000000E-01  1.50000000E+00
  1.50000000E+00  8.00000000E-01  8.00000000E-01  1.50000000E+00  1.50000000E+00
  8.00000000E-01  8.00000000E-01  1.50000000E+00  1.50000000E+00  8.00000000E-01
  8.00000000E-01  1.50000000E+00  1.50000000E+00  8.00000000E-01  8.00000000E-01
  1.50000000E+00  1.50000000E+00  8.00000000E-01  8.00000000E-01  1.50000000E+00
  1.50000000E+00  8.00000000E-01  8.00000000E-01  1.50000000E+00  1.50000000E+00
  8.00000000E-01  8.00000000E-01  1.50000000E+00  1.50000000E+00  8.00000000E-01
  8.00000000E-01  1.50000000E+00  1.50000000E+00  8.00000000E-01  8.00000000E-01
  1.50000000E+00  1.50000000E+00  8.00000000E-01  8.00000000E-01  1.50000000E+00
  1.50000000E+00  8.00000000E-01  8.00000000E-01  1.50000000E+00  1.50000000E+00
  8.00000000E-01  8.00000000E-01  1.50000000E+00  1.50000000E+00  8.00000000E-01
  8.00000000E-01  1.50000000E+00  1.50000000E+00  8.00000000E-01  8.00000000E-01
  1.50000000E+00  1.50000000E+00  8.00000000E-01  8.00000000E-01  1.50000000E+00
  1.50000000E+00  8.00000000E-01  8.00000000E-01  1.50000000E+00  1.50000000E+00
  8.00000000E-01  8.00000000E-01  1.50000000E+00  1.50000000E+00  8.00000000E-01
  8.00000000E-01  1.50000000E+00  1.50000000E+00  8.00000000E-01  8.00000000E-01
  1.50000000E+00  1.50000000E+00  8.00000000E-01  8.00000000E-01  1.50000000E+00
  1.50000000E+00  8.00000000E-01  8.00000000E-01  1.50000000E+00  1.50000000E+00
  8.00000000E-01  8.00000000E-01  1.50000000E+00  1.50000000E+00  8.00000000E-01
  8.00000000E-01  1.50000000E+00  1.50000000E+00  8.00000000E-01  8.00000000E-01
  1.50000000E+00  1.50000000E+00  8.00000000E-01  8.00000000E-01  1.50000000E+00
  1.50000000E+00  8.00000000E-01  8.00000000E-01  1.50000000E+00  1.50000000E+00
  8.00000000E-01  8.00000000E-01  1.50000000E+00  1.50000000E+00  8.00000000E-01
  8.00000000E-01  1.50000000E+00  1.50000000E+00  8.00000000E-01  8.00000000E-01
  1.50000000E+00  1.50000000E+00  8.00000000E-01  8.00000000E-01  1.50000000E+00
  1.50000000E+00  8.00000000E-01  8.00000000E-01  1.50000000E+00  1.50000000E+00
  8.00000000E-01  8.00000000E-01  1.50000000E+00  1.50000000E+00  8.00000000E-01
  8.00000000E-01  1.50000000E+00  1.50000000E+00  8.00000000E-01  8.00000000E-01
  1.50000000E+00  1.50000000E+00  8.00000000E-01  8.00000000E-01  1.50000000E+00
  1.50000000E+00  8.00000000E-01  8.00000000E-01  1.50000000E+00  1.50000000E+00
  8.00000000E-01  8.00000000E-01  1.50000000E+00  1.50000000E+00  8.00000000E-01
  8.00000000E-01  1.50000000E+00  1.50000000E+00  8.00000000E-01  8.00000000E-01
  1.50000000E+00  1.50000000E+00  8.00000000E-01  8.00000000E-01  1.50000000E+00
  1.50000000E+00  8.00000000E-01  8.00000000E-01  1.50000000E+00  1.50000000E+00
  8.00000000E-01  8.00000000E-01  1.50000000E+00  1.50000000E+00  8.00000000E-01
  8.00000000E-01  1.50000000E+00  1.50000000E+00  8.00000000E-01  8.00000000E-01
  1.50000000E+00  1.50000000E+00  8.00000000E-01  8.00000000E-01  1.50000000E+00
  1.50000000E+00  8.00000000E-01  8.00000000E-01  1.50000000E+00  1.50000000E+00
  8.00000000E-01  8.00000000E-01  1.50000000E+00  1.50000000E+00  8.00000000E-01
  8.00000000E-01  1.50000000E+00  1.50000000E+00  8.00000000E-01  8.00000000E-01
  1.50000000E+00  1.50000000E+00  8.00000000E-01  8.00000000E-01  1.50000000E+00
  1.50000000E+00  8.00000000E-01  8.00000000E-01  1.50000000E+00  1.50000000E+00
  8.00000000E-01  8.00000000E-01  1.50000000E+00  1.50000000E+00  8.00000000E-01
  8.00000000E-01  1.50000000E+00  1.50000000E+00  8.00000000E-01  8.00000000E-01
  1.50000000E+00  1.50000000E+00  8.00000000E-01  8.00000000E-01  1.50000000E+00
  1.50000000E+00  8.00000000E-01  8.00000000E-01  1.50000000E+00  1.50000000E+00
  8.00000000E-01  8.00000000E-01  1.50000000E+00  1.50000000E+00  8.00000000E-01
  8.00000000E-01  1.50000000E+00  1.50000000E+00  8.00000000E-01  8.00000000E-01
  1.50000000E+00  1.50000000E+00  8.00000000E-01  8.00000000E-01  1.50000000E+00
  1.50000000E+00  8.00000000E-01  8.00000000E-01  1.50000000E+00  1.50000000E+00
  8.00000000E-01  8.00000000E-01  1.50000000E+00  1.50000000E+00  8.00000000E-01
  8.00000000E-01  1.50000000E+00  1.50000000E+00  8.00000000E-01  8.00000000E-01
  1.50000000E+00  1.50000000E+00  8.00000000E-01  8.00000000E-01  1.50000000E+00
  1.50000000E+00  8.00000000E-01  8.00000000E-01  1.50000000E+00  1.50000000E+00
  8.00000000E-01  8.00000000E-01  1.50000000E+00  1.50000000E+00  8.00000000E-01
  8.00000000E-01  1.50000000E+00  1.50000000E+00  8.00000000E-01  8.00000000E-01
  1.50000000E+00  1.50000000E+00  8.00000000E-01  8.00000000E-01  1.50000000E+00
  1.50000000E+00  8.00000000E-01  8.00000000E-01  1.50000000E+00  1.50000000E+00
  8.00000000E-01  8.00000000E-01  1.50000000E+00  1.50000000E+00  8.00000000E-01
  8.00000000E-01  1.50000000E+00  1.50000000E+00  8.00000000E-01  8.00000000E-01
  1.50000000E+00  1.50000000E+00  8.00000000E-01  8.00000000E-01  1.50000000E+00
  1.50000000E+00  8.00000000E-01  8.00000000E-01  1.50000000E+00  1.50000000E+00
  8.00000000E-01  8.00000000E-01  1.50000000E+00  1.50000000E+00  8.00000000E-01
  8.00000000E-01  1.50000000E+00  1.50000000E+00  8.00000000E-01  8.00000000E-01
  1.50000000E+00  1.50000000E+00  8.00000000E-01  8.00000000E-01  1.50000000E+00
  1.50000000E+00  8.00000000E-01  8.00000000E-01  1.50000000E+00  1.50000000E+00
  8.00000000E-01  8.00000000E-01  1.50000000E+00  1.50000000E+00  8.00000000E-01
  8.00000000E-01  1.50000000E+00  1.50000000E+00  8.00000000E-01  8.00000000E-01
  1.50000000E+00  1.50000000E+00  8.00000000E-01  8.00000000E-01  1.50000000E+00
  1.50000000E+00  8.00000000E-01  8.00000000E-01  1.50000000E+00  1.50000000E+00
  8.00000000E-01  8.00000000E-01  1.50000000E+00  1.50000000E+00  8.00000000E-01
  8.00000000E-01  1.50000000E+00  1.50000000E+00  8.00000000E-01  8.00000000E-01
  1.50000000E+00  1.50000000E+00  8.00000000E-01  8.00000000E-01  1.50000000E+00
  1.50000000E+00  8.00000000E-01  8.00000000E-01  1.50000000E+00  1.50000000E+00
  8.00000000E-01  8.00000000E-01  1.50000000E+00  1.50000000E+00  8.00000000E-01
  8.00000000E-01  1.50000000E+00  1.50000000E+00  8.00000000E-01  8.00000000E-01
  1.50000000E+00  1.50000000E+00  8.00000000E-01  8.00000000E-01  1.50000000E+00
  1.50000000E+00  8.00000000E-01  8.00000000E-01  1.50000000E+00  1.50000000E+00
  8.00000000E-01  8.00000000E-01  1.50000000E+00  1.50000000E+00  8.00000000E-01
  8.00000000E-01  1.50000000E+00  1.50000000E+00  8.00000000E-01  8.00000000E-01
  1.50000000E+00  1.50000000E+00  8.00000000E-01  8.00000000E-01  1.50000000E+00
  1.50000000E+00  8.00000000E-01  8.00000000E-01  1.50000000E+00  1.50000000E+00
  8.00000000E-01  8.00000000E-01  1.50000000E+00  1.50000000E+00  8.00000000E-01
  8.00000000E-01  1.50000000E+00  1.50000000E+00  8.00000000E-01  8.00000000E-01
  1.50000000E+00  1.50000000E+00  8.00000000E-01  8.00000000E-01  1.50000000E+00
  1.50000000E+00  8.00000000E-01  8.00000000E-01  1.50000000E+00  1.50000000E+00
  8.00000000E-01  8.00000000E-01  1.50000000E+00  1.50000000E+00  8.00000000E-01
  8.00000000E-01  1.50000000E+00  1.50000000E+00  8.00000000E-01  8.00000000E-01
  1.50000000E+00  1.50000000E+00  8.00000000E-01  8.00000000E-01  1.50000000E+00
  1.50000000E+00  8.00000000E-01  8.00000000E-01  1.50000000E+00  1.50000000E+00
  8.00000000E-01  8.00000000E-01  1.50000000E+00  1.50000000E+00  8.00000000E-01
  8.00000000E-01  1.50000000E+00  1.50000000E+00  8.00000000E-01  8.00000000E-01
  1.50000000E+00  1.50000000E+00  8.00000000E-01  8.00000000E-01  1.50000000E+00
  1.50000000E+00  8.00000000E-01  8.00000000E-01  1.50000000E+00  1.50000000E+00
  8.00000000E-01  8.00000000E-01  1.50000000E+00  1.50000000E+00  8.00000000E-01
  8.00000000E-01  1.50000000E+00  1.50000000E+00  8.00000000E-01  8.00000000E-01
  1.50000000E+00  1.50000000E+00  8.00000000E-01  8.00000000E-01  1.50000000E+00
  1.50000000E+00  8.00000000E-01  8.00000000E-01  1.50000000E+00  1.50000000E+00
  8.00000000E-01  8.00000000E-01  1.50000000E+00  1.50000000E+00  8.00000000E-01
  8.00000000E-01  1.50000000E+00  1.50000000E+00  8.00000000E-01  8.00000000E-01
  1.50000000E+00  1.50000000E+00  8.00000000E-01  8.00000000E-01  1.50000000E+00
  1.50000000E+00  8.00000000E-01  8.00000000E-01  1.50000000E+00  1.50000000E+00
  8.00000000E-01  8.00000000E-01  1.50000000E+00  1.50000000E+00  8.00000000E-01
  8.00000000E-01  1.50000000E+00  1.50000000E+00  8.00000000E-01  8.00000000E-01
  1.50000000E+00  1.50000000E+00  8.00000000E-01  8.00000000E-01  1.50000000E+00
  1.50000000E+00  8.00000000E-01  8.00000000E-01  1.50000000E+00  1.50000000E+00
  8.00000000E-01  8.00000000E-01  1.50000000E+00  1.50000000E+00  8.00000000E-01
  8.00000000E-01  1.50000000E+00  1.50000000E+00  8.00000000E-01  8.00000000E-01
  1.50000000E+00  1.50000000E+00  8.00000000E-01  8.00000000E-01  1.50000000E+00
  1.50000000E+00  8.00000000E-01  8.00000000E-01  1.50000000E+00  1.50000000E+00
  8.00000000E-01  8.00000000E-01  1.50000000E+00  1.50000000E+00  8.00000000E-01
  8.00000000E-01  1.50000000E+00  1.50000000E+00  8.00000000E-01  8.00000000E-01
  1.50000000E+00  1.50000000E+00  8.00000000E-01  8.00000000E-01  1.50000000E+00
  1.50000000E+00  8.00000000E-01  8.00000000E-01  1.50000000E+00  1.50000000E+00
  8.00000000E-01  8.00000000E-01  1.50000000E+00  1.50000000E+00  8.00000000E-01
  8.00000000E-01  1.50000000E+00  1.50000000E+00  8.00000000E-01  8.00000000E-01
  1.50000000E+00  1.50000000E+00  8.00000000E-01  8.00000000E-01  1.50000000E+00
  1.50000000E+00  8.00000000E-01  8.00000000E-01  1.50000000E+00  1.50000000E+00
  8.00000000E-01  8.00000000E-01  1.50000000E+00  1.50000000E+00  8.00000000E-01
  8.00000000E-01  1.50000000E+00  1.50000000E+00  8.00000000E-01  8.00000000E-01
  1.50000000E+00  1.50000000E+00  8.00000000E-01  8.00000000E-01  1.50000000E+00
  1.50000000E+00  8.00000000E-01  8.00000000E-01  1.50000000E+00  1.50000000E+00
  8.00000000E-01  8.00000000E-01  1.50000000E+00  1.50000000E+00  8.00000000E-01
  8.00000000E-01  1.50000000E+00  1.50000000E+00  8.00000000E-01  8.00000000E-01
  1.50000000E+00  1.50000000E+00  8.00000000E-01  8.00000000E-01  1.50000000E+00
  1.50000000E+00  8.00000000E-01  8.00000000E-01  1.50000000E+00  1.50000000E+00
  8.00000000E-01  8.00000000E-01  1.50000000E+00  1.50000000E+00  8.00000000E-01
  8.00000000E-01  1.50000000E+00  1.50000000E+00  8.00000000E-01  8.00000000E-01
  1.50000000E+00  1.50000000E+00  8.00000000E-01  8.00000000E-01  1.50000000E+00
  1.50000000E+00  8.00000000E-01  8.00000000E-01  1.50000000E+00  1.50000000E+00
  8.00000000E-01  8.00000000E-01  1.50000000E+00  1.50000000E+00  8.00000000E-01
  8.00000000E-01  1.50000000E+00  1.50000000E+00  8.00000000E-01  8.00000000E-01
  1.50000000E+00  1.50000000E+00  8.00000000E-01  8.00000000E-01  1.50000000E+00
  1.50000000E+00  8.00000000E-01  8.00000000E-01  1.50000000E+00  1.50000000E+00
  8.00000000E-01  8.00000000E-01  1.50000000E+00  1.50000000E+00  8.00000000E-01
  8.00000000E-01  1.50000000E+00  1.50000000E+00  8.00000000E-01  8.00000000E-01
  1.50000000E+00  1.50000000E+00  8.00000000E-01  8.00000000E-01  1.50000000E+00
  1.50000000E+00  8.00000000E-01  8.00000000E-01  1.50000000E+00  1.50000000E+00
  8.00000000E-01  8.00000000E-01  1.50000000E+00  1.50000000E+00  8.00000000E-01
  8.00000000E-01  1.50000000E+00  1.50000000E+00  8.00000000E-01  8.00000000E-01
  1.50000000E+00  1.50000000E+00  8.00000000E-01  8.00000000E-01  1.50000000E+00
  1.50000000E+00  8.00000000E-01  8.00000000E-01  1.50000000E+00  1.50000000E+00
  8.00000000E-01  8.00000000E-01  1.50000000E+00  1.50000000E+00  8.00000000E-01
  8.00000000E-01  1.50000000E+00  1.50000000E+00  8.00000000E-01  8.00000000E-01
  1.50000000E+00  1.50000000E+00  8.00000000E-01  8.00000000E-01  1.50000000E+00
  1.50000000E+00  8.00000000E-01  8.00000000E-01  1.50000000E+00  1.50000000E+00
  8.00000000E-01  8.00000000E-01  1.50000000E+00  1.50000000E+00  8.00000000E-01
  8.00000000E-01  1.50000000E+00  1.50000000E+00  8.00000000E-01  8.00000000E-01
  1.50000000E+00  1.50000000E+00  8.00000000E-01  8.00000000E-01  1.50000000E+00
  1.50000000E+00  8.00000000E-01  8.00000000E-01  1.50000000E+00  1.50000000E+00
  8.00000000E-01  8.00000000E-01  1.50000000E+00  1.50000000E+00  8.00000000E-01
  8.00000000E-01  1.50000000E+00  1.50000000E+00  8.00000000E-01  8.00000000E-01
  1.50000000E+00  1.50000000E+00  8.00000000E-01  8.00000000E-01  1.50000000E+00
  1.50000000E+00  8.00000000E-01  8.00000000E-01  1.50000000E+00  1.50000000E+00
  8.00000000E-01  8.00000000E-01  1.50000000E+00  1.50000000E+00  8.00000000E-01
  8.00000000E-01  1.50000000E+00  1.50000000E+00  8.00000000E-01  8.00000000E-01
  1.50000000E+00  1.50000000E+00  8.00000000E-01  8.00000000E-01  1.50000000E+00
  1.50000000E+00  8.00000000E-01  8.00000000E-01  1.50000000E+00  1.50000000E+00
  8.00000000E-01  8.00000000E-01  1.50000000E+00  1.50000000E+00  8.00000000E-01
  8.00000000E-01  1.50000000E+00  1.50000000E+00  8.00000000E-01  8.00000000E-01
  1.50000000E+00  1.50000000E+00  8.00000000E-01  8.00000000E-01  1.50000000E+00
  1.50000000E+00  8.00000000E-01  8.00000000E-01  1.50000000E+00  1.50000000E+00
  8.00000000E-01  8.00000000E-01  1.50000000E+00  1.50000000E+00  8.00000000E-01
  8.00000000E-01  1.50000000E+00  1.50000000E+00  8.00000000E-01  8.00000000E-01
  1.50000000E+00  1.50000000E+00  8.00000000E-01  8.00000000E-01  1.50000000E+00
  1.50000000E+00  8.00000000E-01  8.00000000E-01  1.50000000E+00  1.50000000E+00
  8.00000000E-01  8.00000000E-01  1.50000000E+00  1.50000000E+00  8.00000000E-01
  8.00000000E-01  1.50000000E+00  1.50000000E+00  8.00000000E-01  8.00000000E-01
  1.50000000E+00  1.50000000E+00  8.00000000E-01  8.00000000E-01  1.50000000E+00
  1.50000000E+00  8.00000000E-01  8.00000000E-01  1.50000000E+00  1.50000000E+00
  8.00000000E-01  8.00000000E-01  1.50000000E+00  1.50000000E+00  8.00000000E-01
  8.00000000E-01  1.50000000E+00  1.50000000E+00  8.00000000E-01  8.00000000E-01
  1.50000000E+00  1.50000000E+00  8.00000000E-01  8.00000000E-01  1.50000000E+00
  1.50000000E+00  8.00000000E-01  8.00000000E-01  1.50000000E+00  1.50000000E+00
  8.00000000E-01  8.00000000E-01  1.50000000E+00  1.50000000E+00  8.00000000E-01
  8.00000000E-01  1.50000000E+00  1.50000000E+00  8.00000000E-01  8.00000000E-01
  1.50000000E+00  1.50000000E+00  8.00000000E-01  8.00000000E-01  1.50000000E+00
  1.50000000E+00  8.00000000E-01  8.00000000E-01  1.50000000E+00  1.50000000E+00
  8.00000000E-01  8.00000000E-01  1.50000000E+00  1.50000000E+00  8.00000000E-01
  8.00000000E-01  1.50000000E+00  1.50000000E+00  8.00000000E-01  8.00000000E-01
  1.50000000E+00  1.50000000E+00  8.00000000E-01  8.00000000E-01  1.50000000E+00
  1.50000000E+00  8.00000000E-01  8.00000000E-01  1.50000000E+00  1.50000000E+00
  8.00000000E-01  8.00000000E-01  1.50000000E+00  1.50000000E+00  8.00000000E-01
  8.00000000E-01  1.50000000E+00  1.50000000E+00  8.00000000E-01  8.00000000E-01
  1.50000000E+00  1.50000000E+00  8.00000000E-01  8.00000000E-01  1.50000000E+00
  1.50000000E+00  8.00000000E-01  8.00000000E-01  1.50000000E+00  1.50000000E+00
  8.00000000E-01  8.00000000E-01  1.50000000E+00  1.50000000E+00  8.00000000E-01
  8.00000000E-01  1.50000000E+00  1.50000000E+00  8.00000000E-01  8.00000000E-01
  1.50000000E+00  1.50000000E+00  8.00000000E-01  8.00000000E-01  1.50000000E+00
  1.50000000E+00  8.00000000E-01  8.00000000E-01  1.50000000E+00  1.50000000E+00
  8.00000000E-01  8.00000000E-01  1.50000000E+00  1.50000000E+00  8.00000000E-01
  8.00000000E-01  1.50000000E+00  1.50000000E+00  8.00000000E-01  8.00000000E-01
  1.50000000E+00  1.50000000E+00  8.00000000E-01  8.00000000E-01  1.50000000E+00
  1.50000000E+00  8.00000000E-01  8.00000000E-01  1.50000000E+00  1.50000000E+00
  8.00000000E-01  8.00000000E-01  1.50000000E+00  1.50000000E+00  8.00000000E-01
  8.00000000E-01  1.50000000E+00  1.50000000E+00  8.00000000E-01  8.00000000E-01
  1.50000000E+00  1.50000000E+00  8.00000000E-01  8.00000000E-01  1.50000000E+00
  1.50000000E+00  8.00000000E-01  8.00000000E-01  1.50000000E+00  1.50000000E+00
  8.00000000E-01  8.00000000E-01  1.50000000E+00  1.50000000E+00  8.00000000E-01
  8.00000000E-01  1.50000000E+00  1.50000000E+00  8.00000000E-01  8.00000000E-01
  1.50000000E+00  1.50000000E+00  8.00000000E-01  8.00000000E-01  1.50000000E+00
  1.50000000E+00  8.00000000E-01  8.00000000E-01  1.50000000E+00  1.50000000E+00
  8.00000000E-01  8.00000000E-01  1.50000000E+00  1.50000000E+00  8.00000000E-01
  8.00000000E-01  1.50000000E+00  1.50000000E+00  8.00000000E-01  8.00000000E-01
  1.50000000E+00  1.50000000E+00  8.00000000E-01  8.00000000E-01  1.50000000E+00
  1.50000000E+00  8.00000000E-01  8.00000000E-01  1.50000000E+00  1.50000000E+00
  8.00000000E-01  8.00000000E-01  1.50000000E+00  1.50000000E+00  8.00000000E-01
  8.00000000E-01  1.50000000E+00  1.50000000E+00  8.00000000E-01  8.00000000E-01
  1.50000000E+00  1.50000000E+00  8.00000000E-01  8.00000000E-01  1.50000000E+00
  1.50000000E+00  8.00000000E-01  8.00000000E-01  1.50000000E+00  1.50000000E+00
  8.00000000E-01  8.00000000E-01  1.50000000E+00  1.50000000E+00  8.00000000E-01
  8.00000000E-01  1.50000000E+00  1.50000000E+00  8.00000000E-01  8.00000000E-01
  1.50000000E+00  1.50000000E+00  8.00000000E-01  8.00000000E-01  1.50000000E+00
  1.50000000E+00  8.00000000E-01  8.00000000E-01  1.50000000E+00  1.50000000E+00
  8.00000000E-01  8.00000000E-01  1.50000000E+00  1.50000000E+00  8.00000000E-01
  8.00000000E-01  1.50000000E+00  1.50000000E+00  8.00000000E-01  8.00000000E-01
  1.50000000E+00  1.50000000E+00  8.00000000E-01  8.00000000E-01  1.50000000E+00
  1.50000000E+00  8.00000000E-01  8.00000000E-01  1.50000000E+00  1.50000000E+00
  8.00000000E-01  8.00000000E-01  1.50000000E+00  1.50000000E+00  8.00000000E-01
  8.00000000E-01  1.50000000E+00  1.50000000E+00  8.00000000E-01  8.00000000E-01
  1.50000000E+00  1.50000000E+00  8.00000000E-01  8.00000000E-01  1.50000000E+00
  1.50000000E+00  8.00000000E-01  8.00000000E-01  1.50000000E+00  1.50000000E+00
  8.00000000E-01  8.00000000E-01  1.50000000E+00  1.50000000E+00  8.00000000E-01
  8.00000000E-01  1.50000000E+00  1.50000000E+00  8.00000000E-01  8.00000000E-01
  1.50000000E+00  1.50000000E+00  8.00000000E-01  8.00000000E-01  1.50000000E+00
  1.50000000E+00  8.00000000E-01  8.00000000E-01  1.50000000E+00  1.50000000E+00
  8.00000000E-01  8.00000000E-01  1.50000000E+00  1.50000000E+00  8.00000000E-01
  8.00000000E-01  1.50000000E+00  1.50000000E+00  8.00000000E-01  8.00000000E-01
  1.50000000E+00  1.50000000E+00  8.00000000E-01  8.00000000E-01  1.50000000E+00
  1.50000000E+00  8.00000000E-01  8.00000000E-01  1.50000000E+00  1.50000000E+00
  8.00000000E-01  8.00000000E-01  1.50000000E+00  1.50000000E+00  8.00000000E-01
  8.00000000E-01  1.50000000E+00  1.50000000E+00  8.00000000E-01  8.00000000E-01
  1.50000000E+00  1.50000000E+00  8.00000000E-01  8.00000000E-01  1.50000000E+00
  1.50000000E+00  8.00000000E-01  8.00000000E-01  1.50000000E+00  1.50000000E+00
  8.00000000E-01  8.00000000E-01  1.50000000E+00  1.50000000E+00  8.00000000E-01
  8.00000000E-01  1.50000000E+00  1.50000000E+00  8.00000000E-01  8.00000000E-01
  1.50000000E+00  1.50000000E+00  8.00000000E-01  8.00000000E-01  1.50000000E+00
  1.50000000E+00  8.00000000E-01  8.00000000E-01  1.50000000E+00  1.50000000E+00
  8.00000000E-01  8.00000000E-01  1.50000000E+00  1.50000000E+00  8.00000000E-01
  8.00000000E-01  1.50000000E+00  1.50000000E+00  8.00000000E-01  8.00000000E-01
  1.50000000E+00  1.50000000E+00  8.00000000E-01  8.00000000E-01  1.50000000E+00
  1.50000000E+00  8.00000000E-01  8.00000000E-01  1.50000000E+00  1.50000000E+00
  8.00000000E-01  8.00000000E-01  1.50000000E+00  1.50000000E+00  8.00000000E-01
  8.00000000E-01  1.50000000E+00  1.50000000E+00  8.00000000E-01  8.00000000E-01
  1.50000000E+00  1.50000000E+00  8.00000000E-01  8.00000000E-01  1.50000000E+00
  1.50000000E+00  8.00000000E-01  8.00000000E-01  1.50000000E+00  1.50000000E+00
  8.00000000E-01  8.00000000E-01  1.50000000E+00  1.50000000E+00  8.00000000E-01
  8.00000000E-01  1.50000000E+00  1.50000000E+00  8.00000000E-01  8.00000000E-01
  1.50000000E+00  1.50000000E+00  8.00000000E-01  8.00000000E-01  1.50000000E+00
  1.50000000E+00  8.00000000E-01  8.00000000E-01  1.50000000E+00  1.50000000E+00
  8.00000000E-01  8.00000000E-01  1.50000000E+00  1.50000000E+00  8.00000000E-01
  8.00000000E-01  1.50000000E+00  1.50000000E+00  8.00000000E-01  8.00000000E-01
  1.50000000E+00  1.50000000E+00  8.00000000E-01  8.00000000E-01  1.50000000E+00
  1.50000000E+00  8.00000000E-01  8.00000000E-01  1.50000000E+00  1.50000000E+00
  8.00000000E-01  8.00000000E-01  1.50000000E+00  1.50000000E+00  8.00000000E-01
  8.00000000E-01  1.50000000E+00  1.50000000E+00  8.00000000E-01  8.00000000E-01
  1.50000000E+00  1.50000000E+00  8.00000000E-01  8.00000000E-01  1.50000000E+00
  1.50000000E+00  8.00000000E-01  8.00000000E-01  1.50000000E+00  1.50000000E+00
  8.00000000E-01  8.00000000E-01  1.50000000E+00  1.50000000E+00  8.00000000E-01
  8.00000000E-01  1.50000000E+00  1.50000000E+00  8.00000000E-01  8.00000000E-01
  1.50000000E+00  1.50000000E+00  8.00000000E-01  8.00000000E-01  1.50000000E+00
  1.50000000E+00  8.00000000E-01  8.00000000E-01  1.50000000E+00  1.50000000E+00
  8.00000000E-01  8.00000000E-01  1.50000000E+00  1.50000000E+00  8.00000000E-01
  8.00000000E-01  1.50000000E+00  1.50000000E+00  8.00000000E-01  8.00000000E-01
  1.50000000E+00  1.50000000E+00  8.00000000E-01  8.00000000E-01  1.50000000E+00
  1.50000000E+00  8.00000000E-01  8.00000000E-01  1.50000000E+00  1.50000000E+00
  8.00000000E-01  8.00000000E-01  1.50000000E+00  1.50000000E+00  8.00000000E-01
  8.00000000E-01  1.50000000E+00  1.50000000E+00  8.00000000E-01  8.00000000E-01
  1.50000000E+00  1.50000000E+00  8.00000000E-01  8.00000000E-01  1.50000000E+00
  1.50000000E+00  8.00000000E-01  8.00000000E-01  1.50000000E+00  1.50000000E+00
  8.00000000E-01  8.00000000E-01  1.50000000E+00  1.50000000E+00  8.00000000E-01
  8.00000000E-01  1.50000000E+00  1.50000000E+00  8.00000000E-01  8.00000000E-01
  1.50000000E+00  1.50000000E+00  8.00000000E-01  8.00000000E-01  1.50000000E+00
  1.50000000E+00  8.00000000E-01  8.00000000E-01  1.50000000E+00  1.50000000E+00
  8.00000000E-01  8.00000000E-01  1.50000000E+00  1.50000000E+00  8.00000000E-01
  8.00000000E-01  1.50000000E+00  1.50000000E+00  8.00000000E-01  8.00000000E-01
  1.50000000E+00  1.50000000E+00  8.00000000E-01  8.00000000E-01  1.50000000E+00
  1.50000000E+00  8.00000000E-01  8.00000000E-01  1.50000000E+00  1.50000000E+00
  8.00000000E-01  8.00000000E-01  1.50000000E+00  1.50000000E+00  8.00000000E-01
  8.00000000E-01  1.50000000E+00  1.50000000E+00  8.00000000E-01  8.00000000E-01
  1.50000000E+00  1.50000000E+00  8.00000000E-01  8.00000000E-01  1.50000000E+00
  1.50000000E+00  8.00000000E-01  8.00000000E-01  1.50000000E+00  1.50000000E+00
  8.00000000E-01  8.00000000E-01  1.50000000E+00  1.50000000E+00  8.00000000E-01
  8.00000000E-01  1.50000000E+00  1.50000000E+00  8.00000000E-01  8.00000000E-01
  1.50000000E+00  1.50000000E+00  8.00000000E-01  8.00000000E-01  1.50000000E+00
  1.50000000E+00  8.00000000E-01  8.00000000E-01  1.50000000E+00  1.50000000E+00
  8.00000000E-01  8.00000000E-01  1.50000000E+00  1.50000000E+00  8.00000000E-01
  8.00000000E-01  1.50000000E+00  1.50000000E+00  8.00000000E-01  8.00000000E-01
  1.50000000E+00  1.50000000E+00  8.00000000E-01  8.00000000E-01  1.50000000E+00
  1.50000000E+00  8.00000000E-01  8.00000000E-01  1.50000000E+00  1.50000000E+00
  8.00000000E-01  8.00000000E-01  1.50000000E+00  1.50000000E+00  8.00000000E-01
  8.00000000E-01  1.50000000E+00  1.50000000E+00  8.00000000E-01  8.00000000E-01
  1.50000000E+00  1.50000000E+00  8.00000000E-01  8.00000000E-01  1.50000000E+00
  1.50000000E+00  8.00000000E-01  8.00000000E-01  1.50000000E+00  1.50000000E+00
  8.00000000E-01  8.00000000E-01  1.50000000E+00  1.50000000E+00  8.00000000E-01
  8.00000000E-01  1.50000000E+00  1.50000000E+00  8.00000000E-01  8.00000000E-01
  1.50000000E+00  1.50000000E+00  8.00000000E-01  8.00000000E-01  1.50000000E+00
  1.50000000E+00  8.00000000E-01  8.00000000E-01  1.50000000E+00  1.50000000E+00
  8.00000000E-01  8.00000000E-01  1.50000000E+00  1.50000000E+00  8.00000000E-01
  8.00000000E-01  1.50000000E+00  1.50000000E+00  8.00000000E-01  8.00000000E-01
  1.50000000E+00  1.50000000E+00  8.00000000E-01  8.00000000E-01  1.50000000E+00
  1.50000000E+00  8.00000000E-01  8.00000000E-01  1.50000000E+00  1.50000000E+00
  8.00000000E-01  8.00000000E-01  1.50000000E+00  1.50000000E+00  8.00000000E-01
  8.00000000E-01  1.50000000E+00  1.50000000E+00  8.00000000E-01  8.00000000E-01
  1.50000000E+00  1.50000000E+00  8.00000000E-01  8.00000000E-01  1.50000000E+00
  1.50000000E+00  8.00000000E-01  8.00000000E-01  1.50000000E+00  1.50000000E+00
  8.00000000E-01  8.00000000E-01  1.50000000E+00  1.50000000E+00  8.00000000E-01
  8.00000000E-01  1.50000000E+00  1.50000000E+00  8.00000000E-01  8.00000000E-01
  1.50000000E+00  1.50000000E+00  8.00000000E-01  8.00000000E-01  1.50000000E+00
  1.50000000E+00  8.00000000E-01  8.00000000E-01  1.50000000E+00  1.50000000E+00
  8.00000000E-01  8.00000000E-01  1.50000000E+00  1.50000000E+00  8.00000000E-01
  8.00000000E-01  1.50000000E+00  1.50000000E+00  8.00000000E-01  8.00000000E-01
  1.50000000E+00  1.50000000E+00  8.00000000E-01  8.00000000E-01  1.50000000E+00
  1.50000000E+00  8.00000000E-01  8.00000000E-01  1.50000000E+00  1.50000000E+00
  8.00000000E-01  8.00000000E-01  1.50000000E+00  1.50000000E+00  8.00000000E-01
  8.00000000E-01  1.50000000E+00  1.50000000E+00  8.00000000E-01  8.00000000E-01
  1.50000000E+00  1.50000000E+00  8.00000000E-01  8.00000000E-01  1.50000000E+00
  1.50000000E+00  8.00000000E-01  8.00000000E-01  1.50000000E+00  1.50000000E+00
  8.00000000E-01  8.00000000E-01  1.50000000E+00  1.50000000E+00  8.00000000E-01
  8.00000000E-01  1.50000000E+00  1.50000000E+00  8.00000000E-01  8.00000000E-01
  1.50000000E+00  1.50000000E+00  8.00000000E-01  8.00000000E-01  1.50000000E+00
  1.50000000E+00  8.00000000E-01  8.00000000E-01  1.50000000E+00  1.50000000E+00
  8.00000000E-01  8.00000000E-01  1.50000000E+00  1.50000000E+00  8.00000000E-01
  8.00000000E-01  1.50000000E+00  1.50000000E+00  8.00000000E-01  8.00000000E-01
  1.50000000E+00  1.50000000E+00  8.00000000E-01  8.00000000E-01  1.50000000E+00
  1.50000000E+00  8.00000000E-01  8.00000000E-01  1.50000000E+00  1.50000000E+00
  8.00000000E-01  8.00000000E-01  1.50000000E+00  1.50000000E+00  8.00000000E-01
  8.00000000E-01  1.50000000E+00  1.50000000E+00  8.00000000E-01  8.00000000E-01
  1.50000000E+00  1.50000000E+00  8.00000000E-01  8.00000000E-01  1.50000000E+00
  1.50000000E+00  8.00000000E-01  8.00000000E-01  1.50000000E+00  1.50000000E+00
  8.00000000E-01  8.00000000E-01  1.50000000E+00  1.50000000E+00  8.00000000E-01
  8.00000000E-01  1.50000000E+00  1.50000000E+00  8.00000000E-01  8.00000000E-01
  1.50000000E+00  1.50000000E+00  8.00000000E-01  8.00000000E-01  1.50000000E+00
  1.50000000E+00  8.00000000E-01  8.00000000E-01  1.50000000E+00  1.50000000E+00
  8.00000000E-01  8.00000000E-01  1.50000000E+00  1.50000000E+00  8.00000000E-01
  8.00000000E-01  1.50000000E+00  1.50000000E+00  8.00000000E-01  8.00000000E-01
  1.50000000E+00  1.50000000E+00  8.00000000E-01  8.00000000E-01  1.50000000E+00
  1.50000000E+00  8.00000000E-01  8.00000000E-01  1.50000000E+00  1.50000000E+00
  8.00000000E-01  8.00000000E-01  1.50000000E+00  1.50000000E+00  8.00000000E-01
  8.00000000E-01  1.50000000E+00  1.50000000E+00  8.00000000E-01  8.00000000E-01
  1.50000000E+00  1.50000000E+00  8.00000000E-01  8.00000000E-01  1.50000000E+00
  1.50000000E+00  8.00000000E-01  8.00000000E-01  1.50000000E+00  1.50000000E+00
  8.00000000E-01  8.00000000E-01  1.50000000E+00  1.50000000E+00  8.00000000E-01
  8.00000000E-01  1.50000000E+00  1.50000000E+00  8.00000000E-01  8.00000000E-01
  1.50000000E+00  1.50000000E+00  8.00000000E-01  8.00000000E-01  1.50000000E+00
  1.50000000E+00  8.00000000E-01  8.00000000E-01  1.50000000E+00  1.50000000E+00
  8.00000000E-01  8.00000000E-01  1.50000000E+00  1.50000000E+00  8.00000000E-01
  8.00000000E-01  1.50000000E+00  1.50000000E+00  8.00000000E-01  8.00000000E-01
  1.50000000E+00  1.50000000E+00  8.00000000E-01  8.00000000E-01  1.50000000E+00
  1.50000000E+00  8.00000000E-01  8.00000000E-01  1.50000000E+00  1.50000000E+00
  8.00000000E-01  8.00000000E-01  1.50000000E+00  1.50000000E+00  8.00000000E-01
  8.00000000E-01  1.50000000E+00  1.50000000E+00  8.00000000E-01  8.00000000E-01
  1.50000000E+00  1.50000000E+00  8.00000000E-01  8.00000000E-01  1.50000000E+00
  1.50000000E+00  8.00000000E-01  8.00000000E-01  1.50000000E+00  1.50000000E+00
  8.00000000E-01  8.00000000E-01  1.50000000E+00  1.50000000E+00  8.00000000E-01
  8.00000000E-01  1.50000000E+00  1.50000000E+00  8.00000000E-01  8.00000000E-01
  1.50000000E+00  1.50000000E+00  8.00000000E-01  8.00000000E-01  1.50000000E+00
  1.50000000E+00  8.00000000E-01  8.00000000E-01  1.50000000E+00  1.50000000E+00
  8.00000000E-01  8.00000000E-01  1.50000000E+00  1.50000000E+00  8.00000000E-01
  8.00000000E-01  1.50000000E+00  1.50000000E+00  8.00000000E-01  8.00000000E-01
  1.50000000E+00  1.50000000E+00  8.00000000E-01  8.00000000E-01  1.50000000E+00
  1.50000000E+00  8.00000000E-01  8.00000000E-01  1.50000000E+00  1.50000000E+00
  8.00000000E-01  8.00000000E-01  1.50000000E+00  1.50000000E+00  8.00000000E-01
  8.00000000E-01  1.50000000E+00  1.50000000E+00  8.00000000E-01  8.00000000E-01
  1.50000000E+00  1.50000000E+00  8.00000000E-01  8.00000000E-01  1.50000000E+00
  1.50000000E+00  8.00000000E-01  8.00000000E-01  1.50000000E+00  1.50000000E+00
  8.00000000E-01  8.00000000E-01  1.50000000E+00  1.50000000E+00  8.00000000E-01
  8.00000000E-01  1.50000000E+00  1.50000000E+00  8.00000000E-01  8.00000000E-01
  1.50000000E+00  1.50000000E+00  8.00000000E-01  8.00000000E-01  1.50000000E+00
  1.50000000E+00  8.00000000E-01  8.00000000E-01  1.50000000E+00  1.50000000E+00
  8.00000000E-01  8.00000000E-01  1.50000000E+00  1.50000000E+00  8.00000000E-01
  8.00000000E-01  1.50000000E+00  1.50000000E+00  8.00000000E-01  8.00000000E-01
  1.50000000E+00  1.50000000E+00  8.00000000E-01  8.00000000E-01  1.50000000E+00
  1.50000000E+00  8.00000000E-01  8.00000000E-01  1.50000000E+00  1.50000000E+00
  8.00000000E-01  8.00000000E-01  1.50000000E+00  1.50000000E+00  8.00000000E-01
  8.00000000E-01  1.50000000E+00  1.50000000E+00  8.00000000E-01  8.00000000E-01
  1.50000000E+00  1.50000000E+00  8.00000000E-01  8.00000000E-01  1.50000000E+00
  1.50000000E+00  8.00000000E-01  8.00000000E-01  1.50000000E+00  1.50000000E+00
  8.00000000E-01  8.00000000E-01  1.50000000E+00  1.50000000E+00  8.00000000E-01
  8.00000000E-01  1.50000000E+00  1.50000000E+00  8.00000000E-01  8.00000000E-01
  1.50000000E+00  1.50000000E+00  8.00000000E-01  8.00000000E-01  1.50000000E+00
  1.50000000E+00  8.00000000E-01  8.00000000E-01  1.50000000E+00  1.50000000E+00
  8.00000000E-01  8.00000000E-01  1.50000000E+00  1.50000000E+00  8.00000000E-01
  8.00000000E-01  1.50000000E+00  1.50000000E+00  8.00000000E-01  8.00000000E-01
  1.50000000E+00  1.50000000E+00  8.00000000E-01  8.00000000E-01  1.50000000E+00
  1.50000000E+00  8.00000000E-01  8.00000000E-01  1.50000000E+00  1.50000000E+00
  8.00000000E-01  8.00000000E-01  1.50000000E+00  1.50000000E+00  8.00000000E-01
  8.00000000E-01  1.50000000E+00  1.50000000E+00  8.00000000E-01  8.00000000E-01
  1.50000000E+00  1.50000000E+00  8.00000000E-01  8.00000000E-01  1.50000000E+00
  1.50000000E+00  8.00000000E-01  8.00000000E-01  1.50000000E+00  1.50000000E+00
  8.00000000E-01  8.00000000E-01  1.50000000E+00  1.50000000E+00  8.00000000E-01
  8.00000000E-01  1.50000000E+00  1.50000000E+00  8.00000000E-01  8.00000000E-01
  1.50000000E+00  1.50000000E+00  8.00000000E-01  8.00000000E-01  1.50000000E+00
  1.50000000E+00  8.00000000E-01  8.00000000E-01  1.50000000E+00  1.50000000E+00
  8.00000000E-01  8.00000000E-01  1.50000000E+00  1.50000000E+00  8.00000000E-01
  8.00000000E-01  1.50000000E+00  1.50000000E+00  8.00000000E-01  8.00000000E-01
  1.50000000E+00  1.50000000E+00  8.00000000E-01  8.00000000E-01  1.50000000E+00
  1.50000000E+00  8.00000000E-01  8.00000000E-01  1.50000000E+00  1.50000000E+00
  8.00000000E-01  8.00000000E-01  1.50000000E+00  1.50000000E+00  8.00000000E-01
  8.00000000E-01  1.50000000E+00  1.50000000E+00  8.00000000E-01  8.00000000E-01
  1.50000000E+00  1.50000000E+00  8.00000000E-01  8.00000000E-01  1.50000000E+00
  1.50000000E+00  8.00000000E-01  8.00000000E-01  1.50000000E+00  1.50000000E+00
  8.00000000E-01  8.00000000E-01  1.50000000E+00  1.50000000E+00  8.00000000E-01
  8.00000000E-01  1.50000000E+00  1.50000000E+00  8.00000000E-01  8.00000000E-01
  1.50000000E+00  1.50000000E+00  8.00000000E-01  8.00000000E-01  1.50000000E+00
  1.50000000E+00  8.00000000E-01  8.00000000E-01  1.50000000E+00  1.50000000E+00
  8.00000000E-01  8.00000000E-01  1.50000000E+00  1.50000000E+00  8.00000000E-01
  8.00000000E-01  1.50000000E+00  1.50000000E+00  8.00000000E-01  8.00000000E-01
  1.50000000E+00  1.50000000E+00  8.00000000E-01  8.00000000E-01  1.50000000E+00
  1.50000000E+00  8.00000000E-01  8.00000000E-01  1.50000000E+00  1.50000000E+00
  8.00000000E-01  8.00000000E-01  1.50000000E+00  1.50000000E+00  8.00000000E-01
  8.00000000E-01  1.50000000E+00  1.50000000E+00  8.00000000E-01  8.00000000E-01
  1.50000000E+00  1.50000000E+00  8.00000000E-01  8.00000000E-01  1.50000000E+00
  1.50000000E+00  8.00000000E-01  8.00000000E-01  1.50000000E+00  1.50000000E+00
  8.00000000E-01  8.00000000E-01  1.50000000E+00  1.50000000E+00  8.00000000E-01
  8.00000000E-01  1.50000000E+00  1.50000000E+00  8.00000000E-01  8.00000000E-01
  1.50000000E+00  1.50000000E+00  8.00000000E-01  8.00000000E-01  1.50000000E+00
  1.50000000E+00  8.00000000E-01  8.00000000E-01  1.50000000E+00  1.50000000E+00
  8.00000000E-01  8.00000000E-01  1.50000000E+00  1.50000000E+00  8.00000000E-01
  8.00000000E-01  1.50000000E+00  1.50000000E+00  8.00000000E-01  8.00000000E-01
  1.50000000E+00  1.50000000E+00  8.00000000E-01  8.00000000E-01  1.50000000E+00
  1.50000000E+00  8.00000000E-01  8.00000000E-01  1.50000000E+00  1.50000000E+00
  8.00000000E-01  8.00000000E-01  1.50000000E+00  1.50000000E+00  8.00000000E-01
  8.00000000E-01  1.50000000E+00  1.50000000E+00  8.00000000E-01  8.00000000E-01
  1.50000000E+00  1.50000000E+00  8.00000000E-01  8.00000000E-01  1.50000000E+00
  1.50000000E+00  8.00000000E-01  8.00000000E-01  1.50000000E+00  1.50000000E+00
  8.00000000E-01  8.00000000E-01  1.50000000E+00  1.50000000E+00  8.00000000E-01
  8.00000000E-01  1.50000000E+00  1.50000000E+00  8.00000000E-01  8.00000000E-01
  1.50000000E+00  1.50000000E+00  8.00000000E-01  8.00000000E-01  1.50000000E+00
  1.50000000E+00  8.00000000E-01  8.00000000E-01  1.50000000E+00  1.50000000E+00
  8.00000000E-01  8.00000000E-01  1.50000000E+00  1.50000000E+00  8.00000000E-01
  8.00000000E-01  1.50000000E+00  1.50000000E+00  8.00000000E-01  8.00000000E-01
  1.50000000E+00  1.50000000E+00  8.00000000E-01  8.00000000E-01  1.50000000E+00
  1.50000000E+00  8.00000000E-01  8.00000000E-01  1.50000000E+00  1.50000000E+00
  8.00000000E-01  8.00000000E-01  1.50000000E+00  1.50000000E+00  8.00000000E-01
  8.00000000E-01  1.50000000E+00  1.50000000E+00  8.00000000E-01  8.00000000E-01
  1.50000000E+00  1.50000000E+00  8.00000000E-01  8.00000000E-01  1.50000000E+00
  1.50000000E+00  8.00000000E-01  8.00000000E-01  1.50000000E+00  1.50000000E+00
  8.00000000E-01  8.00000000E-01  1.50000000E+00  1.50000000E+00  8.00000000E-01
  8.00000000E-01  1.50000000E+00  1.50000000E+00  8.00000000E-01  8.00000000E-01
  1.50000000E+00  1.50000000E+00  8.00000000E-01  8.00000000E-01  1.50000000E+00
  1.50000000E+00  8.00000000E-01  8.00000000E-01  1.50000000E+00  1.50000000E+00
  8.00000000E-01  8.00000000E-01  1.50000000E+00  1.50000000E+00  8.00000000E-01
  8.00000000E-01  1.50000000E+00  1.50000000E+00  8.00000000E-01  8.00000000E-01
  1.50000000E+00  1.50000000E+00  8.00000000E-01  8.00000000E-01  1.50000000E+00
  1.50000000E+00  8.00000000E-01  8.00000000E-01  1.50000000E+00  1.50000000E+00
  8.00000000E-01  8.00000000E-01  1.50000000E+00  1.50000000E+00  8.00000000E-01
  8.00000000E-01  1.50000000E+00  1.50000000E+00  8.00000000E-01  8.00000000E-01
  1.50000000E+00  1.50000000E+00  8.00000000E-01  8.00000000E-01  1.50000000E+00
  1.50000000E+00  8.00000000E-01  8.00000000E-01  1.50000000E+00  1.50000000E+00
  8.00000000E-01  8.00000000E-01  1.50000000E+00  1.50000000E+00  8.00000000E-01
  8.00000000E-01  1.50000000E+00  1.50000000E+00  8.00000000E-01  8.00000000E-01
  1.50000000E+00  1.50000000E+00  8.00000000E-01  8.00000000E-01  1.50000000E+00
  1.50000000E+00  8.00000000E-01  8.00000000E-01  1.50000000E+00  1.50000000E+00
  8.00000000E-01  8.00000000E-01  1.50000000E+00  1.50000000E+00  8.00000000E-01
  8.00000000E-01  1.50000000E+00  1.50000000E+00  8.00000000E-01  8.00000000E-01
  1.50000000E+00  1.50000000E+00  8.00000000E-01  8.00000000E-01  1.50000000E+00
  1.50000000E+00  8.00000000E-01  8.00000000E-01  1.50000000E+00  1.50000000E+00
  8.00000000E-01  8.00000000E-01  1.50000000E+00  1.50000000E+00  8.00000000E-01
  8.00000000E-01  1.50000000E+00  1.50000000E+00  8.00000000E-01  8.00000000E-01
  1.50000000E+00  1.50000000E+00  8.00000000E-01  8.00000000E-01  1.50000000E+00
  1.50000000E+00  8.00000000E-01  8.00000000E-01  1.50000000E+00  1.50000000E+00
  8.00000000E-01  8.00000000E-01  1.50000000E+00  1.50000000E+00  8.00000000E-01
  8.00000000E-01  1.50000000E+00  1.50000000E+00  8.00000000E-01  8.00000000E-01
  1.50000000E+00  1.50000000E+00  8.00000000E-01  8.00000000E-01  1.50000000E+00
  1.50000000E+00  8.00000000E-01  8.00000000E-01  1.50000000E+00  1.50000000E+00
  8.00000000E-01  8.00000000E-01  1.50000000E+00  1.50000000E+00  8.00000000E-01
  8.00000000E-01  1.50000000E+00  1.50000000E+00  8.00000000E-01  8.00000000E-01
  1.50000000E+00  1.50000000E+00  8.00000000E-01  8.00000000E-01  1.50000000E+00
  1.50000000E+00  8.00000000E-01  8.00000000E-01  1.50000000E+00  1.50000000E+00
  8.00000000E-01  8.00000000E-01  1.50000000E+00  1.50000000E+00  8.00000000E-01
  8.00000000E-01  1.50000000E+00  1.50000000E+00  8.00000000E-01  8.00000000E-01
  1.50000000E+00  1.50000000E+00  8.00000000E-01  8.00000000E-01  1.50000000E+00
  1.50000000E+00  8.00000000E-01  8.00000000E-01  1.50000000E+00  1.50000000E+00
  8.00000000E-01  8.00000000E-01  1.50000000E+00  1.50000000E+00  8.00000000E-01
  8.00000000E-01  1.50000000E+00  1.50000000E+00  8.00000000E-01  8.00000000E-01
  1.50000000E+00  1.50000000E+00  8.00000000E-01  8.00000000E-01  1.50000000E+00
  1.50000000E+00  8.00000000E-01  8.00000000E-01  1.50000000E+00  1.50000000E+00
  8.00000000E-01  8.00000000E-01  1.50000000E+00  1.50000000E+00  8.00000000E-01
  8.00000000E-01  1.50000000E+00  1.50000000E+00  8.00000000E-01  8.00000000E-01
  1.50000000E+00  1.50000000E+00  8.00000000E-01  8.00000000E-01  1.50000000E+00
  1.50000000E+00  8.00000000E-01  8.00000000E-01  1.50000000E+00  1.50000000E+00
  8.00000000E-01  8.00000000E-01  1.50000000E+00  1.50000000E+00  8.00000000E-01
  8.00000000E-01  1.50000000E+00  1.50000000E+00  8.00000000E-01  8.00000000E-01
  1.50000000E+00  1.50000000E+00  8.00000000E-01  8.00000000E-01  1.50000000E+00
  1.50000000E+00  8.00000000E-01  8.00000000E-01  1.50000000E+00  1.50000000E+00
  8.00000000E-01  8.00000000E-01  1.50000000E+00  1.50000000E+00  8.00000000E-01
  8.00000000E-01  1.50000000E+00  1.50000000E+00  8.00000000E-01  8.00000000E-01
  1.50000000E+00  1.50000000E+00  8.00000000E-01  8.00000000E-01  1.50000000E+00
  1.50000000E+00  8.00000000E-01  8.00000000E-01  1.50000000E+00  1.50000000E+00
  8.00000000E-01  8.00000000E-01  1.50000000E+00  1.50000000E+00  8.00000000E-01
  8.00000000E-01  1.50000000E+00  1.50000000E+00  8.00000000E-01  8.00000000E-01
  1.50000000E+00  1.50000000E+00  8.00000000E-01  8.00000000E-01  1.50000000E+00
  1.50000000E+00  8.00000000E-01  8.00000000E-01  1.50000000E+00  1.50000000E+00
  8.00000000E-01  8.00000000E-01  1.50000000E+00  1.50000000E+00  8.00000000E-01
  8.00000000E-01  1.50000000E+00  1.50000000E+00  8.00000000E-01  8.00000000E-01
  1.50000000E+00  1.50000000E+00  8.00000000E-01  8.00000000E-01  1.50000000E+00
  1.50000000E+00  8.00000000E-01  8.00000000E-01  1.50000000E+00  1.50000000E+00
  8.00000000E-01  8.00000000E-01  1.50000000E+00  1.50000000E+00  8.00000000E-01
  8.00000000E-01  1.50000000E+00  1.50000000E+00  8.00000000E-01  8.00000000E-01
  1.50000000E+00  1.50000000E+00  8.00000000E-01  8.00000000E-01  1.50000000E+00
  1.50000000E+00  8.00000000E-01  8.00000000E-01  1.50000000E+00  1.50000000E+00
  8.00000000E-01  8.00000000E-01  1.50000000E+00  1.50000000E+00  8.00000000E-01
  8.00000000E-01  1.50000000E+00  1.50000000E+00  8.00000000E-01  8.00000000E-01
  1.50000000E+00  1.50000000E+00  8.00000000E-01  8.00000000E-01  1.50000000E+00
  1.50000000E+00  8.00000000E-01  8.00000000E-01  1.50000000E+00  1.50000000E+00
  8.00000000E-01  8.00000000E-01  1.50000000E+00  1.50000000E+00  8.00000000E-01
  8.00000000E-01  1.50000000E+00  1.50000000E+00  8.00000000E-01  8.00000000E-01
  1.50000000E+00  1.50000000E+00  8.00000000E-01  8.00000000E-01  1.50000000E+00
  1.50000000E+00  8.00000000E-01  8.00000000E-01  1.50000000E+00  1.50000000E+00
  8.00000000E-01  8.00000000E-01  1.50000000E+00  1.50000000E+00  8.00000000E-01
  8.00000000E-01  1.50000000E+00  1.50000000E+00  8.00000000E-01  8.00000000E-01
  1.50000000E+00  1.50000000E+00  8.00000000E-01  8.00000000E-01  1.50000000E+00
  1.50000000E+00  8.00000000E-01  8.00000000E-01  1.50000000E+00  1.50000000E+00
  8.00000000E-01  8.00000000E-01  1.50000000E+00  1.50000000E+00  8.00000000E-01
  8.00000000E-01  1.50000000E+00  1.50000000E+00  8.00000000E-01  8.00000000E-01
  1.50000000E+00  1.50000000E+00  8.00000000E-01  8.00000000E-01  1.50000000E+00
  1.50000000E+00  8.00000000E-01  8.00000000E-01  1.50000000E+00  1.50000000E+00
  8.00000000E-01  8.00000000E-01  1.50000000E+00  1.50000000E+00  8.00000000E-01
  8.00000000E-01  1.50000000E+00  1.50000000E+00  8.00000000E-01  8.00000000E-01
  1.50000000E+00  1.50000000E+00  8.00000000E-01  8.00000000E-01  1.50000000E+00
  1.50000000E+00  8.00000000E-01  8.00000000E-01  1.50000000E+00  1.50000000E+00
  8.00000000E-01  8.00000000E-01  1.50000000E+00  1.50000000E+00  8.00000000E-01
  8.00000000E-01  1.50000000E+00  1.50000000E+00  8.00000000E-01  8.00000000E-01
  1.50000000E+00  1.50000000E+00  8.00000000E-01  8.00000000E-01  1.50000000E+00
  1.50000000E+00  8.00000000E-01  8.00000000E-01  1.50000000E+00  1.50000000E+00
  8.00000000E-01  8.00000000E-01  1.50000000E+00  1.50000000E+00  8.00000000E-01
  8.00000000E-01  1.50000000E+00  1.50000000E+00  8.00000000E-01  8.00000000E-01
  1.50000000E+00  1.50000000E+00  8.00000000E-01  8.00000000E-01  1.50000000E+00
  1.50000000E+00  8.00000000E-01  8.00000000E-01  1.50000000E+00  1.50000000E+00
  8.00000000E-01  8.00000000E-01  1.50000000E+00  1.50000000E+00  8.00000000E-01
  8.00000000E-01  1.50000000E+00  1.50000000E+00  8.00000000E-01  8.00000000E-01
  1.50000000E+00  1.50000000E+00  8.00000000E-01  8.00000000E-01  1.50000000E+00
  1.50000000E+00  8.00000000E-01  8.00000000E-01  1.50000000E+00  1.50000000E+00
  8.00000000E-01  8.00000000E-01  1.50000000E+00  1.50000000E+00  8.00000000E-01
  8.00000000E-01  1.50000000E+00  1.50000000E+00  8.00000000E-01  8.00000000E-01
  1.50000000E+00  1.50000000E+00  8.00000000E-01  8.00000000E-01  1.50000000E+00
  1.50000000E+00  8.00000000E-01  8.00000000E-01  1.50000000E+00  1.50000000E+00
  8.00000000E-01  8.00000000E-01  1.50000000E+00  1.50000000E+00  8.00000000E-01
  8.00000000E-01  1.50000000E+00  1.50000000E+00  8.00000000E-01  8.00000000E-01
  1.50000000E+00  1.50000000E+00  8.00000000E-01  8.00000000E-01  1.50000000E+00
  1.50000000E+00  8.00000000E-01  8.00000000E-01  1.50000000E+00  1.50000000E+00
  8.00000000E-01  8.00000000E-01  1.50000000E+00  1.50000000E+00  8.00000000E-01
  8.00000000E-01  1.50000000E+00  1.50000000E+00  8.00000000E-01  8.00000000E-01
  1.50000000E+00  1.50000000E+00  8.00000000E-01  8.00000000E-01  1.50000000E+00
  1.50000000E+00  8.00000000E-01  8.00000000E-01  1.50000000E+00  1.50000000E+00
  8.00000000E-01  8.00000000E-01  1.50000000E+00  1.50000000E+00  8.00000000E-01
  8.00000000E-01  1.50000000E+00  1.50000000E+00  8.00000000E-01  8.00000000E-01
  1.50000000E+00  1.50000000E+00  8.00000000E-01  8.00000000E-01  1.50000000E+00
  1.50000000E+00  8.00000000E-01  8.00000000E-01  1.50000000E+00  1.50000000E+00
  8.00000000E-01  8.00000000E-01  1.50000000E+00  1.50000000E+00  8.00000000E-01
  8.00000000E-01  1.50000000E+00  1.50000000E+00  8.00000000E-01  8.00000000E-01
  1.50000000E+00  1.50000000E+00  8.00000000E-01  8.00000000E-01  1.50000000E+00
  1.50000000E+00  8.00000000E-01  8.00000000E-01  1.50000000E+00  1.50000000E+00
  8.00000000E-01  8.00000000E-01  1.50000000E+00  1.50000000E+00  8.00000000E-01
  8.00000000E-01  1.50000000E+00  1.50000000E+00  8.00000000E-01  8.00000000E-01
  1.50000000E+00  1.50000000E+00  8.00000000E-01  8.00000000E-01  1.50000000E+00
  1.50000000E+00  8.00000000E-01  8.00000000E-01  1.50000000E+00  1.50000000E+00
  8.00000000E-01  8.00000000E-01  1.50000000E+00  1.50000000E+00  8.00000000E-01
  8.00000000E-01  1.50000000E+00  1.50000000E+00  8.00000000E-01  8.00000000E-01
  1.50000000E+00  1.50000000E+00  8.00000000E-01  8.00000000E-01  1.50000000E+00
  1.50000000E+00  8.00000000E-01  8.00000000E-01  1.50000000E+00  1.50000000E+00
  8.00000000E-01  8.00000000E-01  1.50000000E+00  1.50000000E+00  8.00000000E-01
  8.00000000E-01  1.50000000E+00  1.50000000E+00  8.00000000E-01  8.00000000E-01
  1.50000000E+00  1.50000000E+00  8.00000000E-01  8.00000000E-01  1.50000000E+00
  1.50000000E+00  8.00000000E-01  8.00000000E-01  1.50000000E+00  1.50000000E+00
  8.00000000E-01  8.00000000E-01  1.50000000E+00  1.50000000E+00  8.00000000E-01
  8.00000000E-01  1.50000000E+00  1.50000000E+00  8.00000000E-01  8.00000000E-01
  1.50000000E+00  1.50000000E+00  8.00000000E-01  8.00000000E-01  1.50000000E+00
  1.50000000E+00  8.00000000E-01  8.00000000E-01  1.50000000E+00  1.50000000E+00
  8.00000000E-01  8.00000000E-01  1.50000000E+00  1.50000000E+00  8.00000000E-01
  8.00000000E-01  1.50000000E+00  1.50000000E+00  8.00000000E-01  8.00000000E-01
  1.50000000E+00  1.50000000E+00  8.00000000E-01  8.00000000E-01  1.50000000E+00
  1.50000000E+00  8.00000000E-01  8.00000000E-01  1.50000000E+00  1.50000000E+00
  8.00000000E-01  8.00000000E-01  1.50000000E+00  1.50000000E+00  8.00000000E-01
  8.00000000E-01  1.50000000E+00  1.50000000E+00  8.00000000E-01  8.00000000E-01
  1.50000000E+00  1.50000000E+00  8.00000000E-01  8.00000000E-01  1.50000000E+00
  1.50000000E+00  8.00000000E-01  8.00000000E-01  1.50000000E+00  1.50000000E+00
  8.00000000E-01  8.00000000E-01  1.50000000E+00  1.50000000E+00  8.00000000E-01
  8.00000000E-01  1.50000000E+00  1.50000000E+00  8.00000000E-01  8.00000000E-01
  1.50000000E+00  1.50000000E+00  8.00000000E-01  8.00000000E-01  1.50000000E+00
  1.50000000E+00  8.00000000E-01  8.00000000E-01  1.50000000E+00  1.50000000E+00
  8.00000000E-01  8.00000000E-01  1.50000000E+00  1.50000000E+00  8.00000000E-01
  8.00000000E-01  1.50000000E+00  1.50000000E+00  8.00000000E-01  8.00000000E-01
  1.50000000E+00  1.50000000E+00  8.00000000E-01  8.00000000E-01  1.50000000E+00
  1.50000000E+00  8.00000000E-01  8.00000000E-01  1.50000000E+00  1.50000000E+00
  8.00000000E-01  8.00000000E-01  1.50000000E+00  1.50000000E+00  8.00000000E-01
  8.00000000E-01  1.50000000E+00  1.50000000E+00  8.00000000E-01  8.00000000E-01
  1.50000000E+00  1.50000000E+00  8.00000000E-01  8.00000000E-01  1.50000000E+00
  1.50000000E+00  8.00000000E-01  8.00000000E-01  1.50000000E+00  1.50000000E+00
  8.00000000E-01  8.00000000E-01  1.50000000E+00  1.50000000E+00  8.00000000E-01
  8.00000000E-01  1.50000000E+00  1.50000000E+00  8.00000000E-01  8.00000000E-01
  1.50000000E+00  1.50000000E+00  8.00000000E-01  8.00000000E-01  1.50000000E+00
  1.50000000E+00  8.00000000E-01  8.00000000E-01  1.50000000E+00  1.50000000E+00
  8.00000000E-01  8.00000000E-01  1.50000000E+00  1.50000000E+00  8.00000000E-01
  8.00000000E-01  1.50000000E+00  1.50000000E+00  8.00000000E-01  8.00000000E-01
  1.50000000E+00  1.50000000E+00  8.00000000E-01  8.00000000E-01  1.50000000E+00
  1.50000000E+00  8.00000000E-01  8.00000000E-01  1.50000000E+00  1.50000000E+00
  8.00000000E-01  8.00000000E-01  1.50000000E+00  1.50000000E+00  8.00000000E-01
  8.00000000E-01  1.50000000E+00  1.50000000E+00  8.00000000E-01  8.00000000E-01
  1.50000000E+00  1.50000000E+00  8.00000000E-01  8.00000000E-01  1.50000000E+00
  1.50000000E+00  8.00000000E-01  8.00000000E-01  1.50000000E+00  1.50000000E+00
  8.00000000E-01  8.00000000E-01  1.50000000E+00  1.50000000E+00  8.00000000E-01
  8.00000000E-01  1.50000000E+00  1.50000000E+00  8.00000000E-01  8.00000000E-01
  1.50000000E+00  1.50000000E+00  8.00000000E-01  8.00000000E-01  1.50000000E+00
  1.50000000E+00  8.00000000E-01  8.00000000E-01  1.50000000E+00  1.50000000E+00
  8.00000000E-01  8.00000000E-01  1.50000000E+00  1.50000000E+00  8.00000000E-01
  8.00000000E-01  1.50000000E+00  1.50000000E+00  8.00000000E-01  8.00000000E-01
  1.50000000E+00  1.50000000E+00  8.00000000E-01  8.00000000E-01  1.50000000E+00
  1.50000000E+00  8.00000000E-01  8.00000000E-01  1.50000000E+00  1.50000000E+00
  8.00000000E-01  8.00000000E-01  1.50000000E+00  1.50000000E+00  8.00000000E-01
  8.00000000E-01  1.50000000E+00  1.50000000E+00  8.00000000E-01  8.00000000E-01
  1.50000000E+00  1.50000000E+00  8.00000000E-01  8.00000000E-01  1.50000000E+00
  1.50000000E+00  8.00000000E-01  8.00000000E-01  1.50000000E+00  1.50000000E+00
  8.00000000E-01  8.00000000E-01  1.50000000E+00  1.50000000E+00  8.00000000E-01
  8.00000000E-01  1.50000000E+00  1.50000000E+00  8.00000000E-01  8.00000000E-01
  1.50000000E+00  1.50000000E+00  8.00000000E-01  8.00000000E-01  1.50000000E+00
  1.50000000E+00  8.00000000E-01  8.00000000E-01  1.50000000E+00  1.50000000E+00
  8.00000000E-01  8.00000000E-01  1.50000000E+00  1.50000000E+00  8.00000000E-01
  8.00000000E-01  1.50000000E+00  1.50000000E+00  8.00000000E-01  8.00000000E-01
  1.50000000E+00  1.50000000E+00  8.00000000E-01  8.00000000E-01  1.50000000E+00
  1.50000000E+00  8.00000000E-01  8.00000000E-01  1.50000000E+00  1.50000000E+00
  8.00000000E-01  8.00000000E-01  1.50000000E+00  1.50000000E+00  8.00000000E-01
  8.00000000E-01  1.50000000E+00  1.50000000E+00  8.00000000E-01  8.00000000E-01
  1.50000000E+00  1.50000000E+00  8.00000000E-01  8.00000000E-01  1.50000000E+00
  1.50000000E+00  8.00000000E-01  8.00000000E-01  1.50000000E+00  1.50000000E+00
  8.00000000E-01  8.00000000E-01  1.50000000E+00  1.50000000E+00  8.00000000E-01
  8.00000000E-01  1.50000000E+00  1.50000000E+00  8.00000000E-01  8.00000000E-01
  1.50000000E+00  1.50000000E+00  8.00000000E-01  8.00000000E-01  1.50000000E+00
  1.50000000E+00  8.00000000E-01  8.00000000E-01  1.50000000E+00  1.50000000E+00
  8.00000000E-01  8.00000000E-01  1.50000000E+00  1.50000000E+00  8.00000000E-01
  8.00000000E-01  1.50000000E+00  1.50000000E+00  8.00000000E-01  8.00000000E-01
  1.50000000E+00  1.50000000E+00  8.00000000E-01  8.00000000E-01  1.50000000E+00
  1.50000000E+00  8.00000000E-01  8.00000000E-01  1.50000000E+00  1.50000000E+00
  8.00000000E-01  8.00000000E-01  1.50000000E+00  1.50000000E+00  8.00000000E-01
  8.00000000E-01  1.50000000E+00  1.50000000E+00  8.00000000E-01  8.00000000E-01
  1.50000000E+00  1.50000000E+00  8.00000000E-01  8.00000000E-01  1.50000000E+00
  1.50000000E+00  8.00000000E-01  8.00000000E-01  1.50000000E+00  1.50000000E+00
  8.00000000E-01  8.00000000E-01  1.50000000E+00  1.50000000E+00  8.00000000E-01
  8.00000000E-01  1.50000000E+00  1.50000000E+00  8.00000000E-01  8.00000000E-01
  1.50000000E+00  1.50000000E+00  8.00000000E-01  8.00000000E-01  1.50000000E+00
  1.50000000E+00  8.00000000E-01  8.00000000E-01  1.50000000E+00  1.50000000E+00
  8.00000000E-01  8.00000000E-01  1.50000000E+00  1.50000000E+00  8.00000000E-01
  8.00000000E-01  1.50000000E+00  1.50000000E+00  8.00000000E-01  8.00000000E-01
  1.50000000E+00  1.50000000E+00  8.00000000E-01  8.00000000E-01  1.50000000E+00
  1.50000000E+00  8.00000000E-01  8.00000000E-01  1.50000000E+00  1.50000000E+00
  8.00000000E-01  8.00000000E-01  1.50000000E+00  1.50000000E+00  8.00000000E-01
  8.00000000E-01  1.50000000E+00  1.50000000E+00  8.00000000E-01  8.00000000E-01
  1.50000000E+00  1.50000000E+00  8.00000000E-01  8.00000000E-01  1.50000000E+00
  1.50000000E+00  8.00000000E-01  8.00000000E-01  1.50000000E+00  1.50000000E+00
  8.00000000E-01  8.00000000E-01  1.50000000E+00  1.50000000E+00  8.00000000E-01
  8.00000000E-01  1.50000000E+00  1.50000000E+00  8.00000000E-01  8.00000000E-01
  1.50000000E+00  1.50000000E+00  8.00000000E-01  8.00000000E-01  1.50000000E+00
  1.50000000E+00  8.00000000E-01  8.00000000E-01  1.50000000E+00  1.50000000E+00
  8.00000000E-01  8.00000000E-01  1.50000000E+00  1.50000000E+00  8.00000000E-01
  8.00000000E-01  1.50000000E+00  1.50000000E+00  8.00000000E-01  8.00000000E-01
  1.50000000E+00  1.50000000E+00  8.00000000E-01  8.00000000E-01  1.50000000E+00
  1.50000000E+00  8.00000000E-01  8.00000000E-01  1.50000000E+00  1.50000000E+00
  8.00000000E-01  8.00000000E-01  1.50000000E+00  1.50000000E+00  8.00000000E-01
  8.00000000E-01  1.50000000E+00  1.50000000E+00  8.00000000E-01  8.00000000E-01
  1.50000000E+00  1.50000000E+00  8.00000000E-01  8.00000000E-01  1.50000000E+00
  1.50000000E+00  8.00000000E-01  8.00000000E-01  1.50000000E+00  1.50000000E+00
  8.00000000E-01  8.00000000E-01  1.50000000E+00  1.50000000E+00  8.00000000E-01
  8.00000000E-01  1.50000000E+00  1.50000000E+00  8.00000000E-01  8.00000000E-01
  1.50000000E+00  1.50000000E+00  8.00000000E-01  8.00000000E-01  1.50000000E+00
  1.50000000E+00  8.00000000E-01  8.00000000E-01  1.50000000E+00  1.50000000E+00
  8.00000000E-01  8.00000000E-01  1.50000000E+00  1.50000000E+00  8.00000000E-01
  8.00000000E-01  1.50000000E+00  1.50000000E+00  8.00000000E-01  8.00000000E-01
  1.50000000E+00  1.50000000E+00  8.00000000E-01  8.00000000E-01  1.50000000E+00
  1.50000000E+00  8.00000000E-01  8.00000000E-01  1.50000000E+00  1.50000000E+00
  8.00000000E-01  8.00000000E-01  1.50000000E+00  1.50000000E+00  8.00000000E-01
  8.00000000E-01  1.50000000E+00  1.50000000E+00  8.00000000E-01  8.00000000E-01
  1.50000000E+00  1.50000000E+00  8.00000000E-01  8.00000000E-01  1.50000000E+00
  1.50000000E+00  8.00000000E-01  8.00000000E-01  1.50000000E+00  1.50000000E+00
  8.00000000E-01  8.00000000E-01  1.50000000E+00  1.50000000E+00  8.00000000E-01
  8.00000000E-01  1.50000000E+00  1.50000000E+00  8.00000000E-01  8.00000000E-01
  1.50000000E+00  1.50000000E+00  8.00000000E-01  8.00000000E-01  1.50000000E+00
  1.50000000E+00  8.00000000E-01  8.00000000E-01  1.50000000E+00  1.50000000E+00
  8.00000000E-01  8.00000000E-01  1.50000000E+00  1.50000000E+00  8.00000000E-01
  8.00000000E-01  1.50000000E+00  1.50000000E+00  8.00000000E-01  8.00000000E-01
  1.50000000E+00  1.50000000E+00  8.00000000E-01  8.00000000E-01  1.50000000E+00
  1.50000000E+00  8.00000000E-01  8.00000000E-01  1.50000000E+00  1.50000000E+00
  8.00000000E-01  8.00000000E-01  1.50000000E+00  1.50000000E+00  8.00000000E-01
  8.00000000E-01  1.50000000E+00  1.50000000E+00  8.00000000E-01  8.00000000E-01
  1.50000000E+00  1.50000000E+00  8.00000000E-01  8.00000000E-01  1.50000000E+00
  1.50000000E+00  8.00000000E-01  8.00000000E-01  1.50000000E+00  1.50000000E+00
  8.00000000E-01  8.00000000E-01  1.50000000E+00  1.50000000E+00  8.00000000E-01
  8.00000000E-01  1.50000000E+00  1.50000000E+00  8.00000000E-01  8.00000000E-01
  1.50000000E+00  1.50000000E+00  8.00000000E-01  8.00000000E-01  1.50000000E+00
  1.50000000E+00  8.00000000E-01  8.00000000E-01  1.50000000E+00  1.50000000E+00
  8.00000000E-01  8.00000000E-01  1.50000000E+00  1.50000000E+00  8.00000000E-01
  8.00000000E-01  1.50000000E+00  1.50000000E+00  8.00000000E-01  8.00000000E-01
  1.50000000E+00  1.50000000E+00  8.00000000E-01  8.00000000E-01  1.50000000E+00
  1.50000000E+00  8.00000000E-01  8.00000000E-01  1.50000000E+00  1.50000000E+00
  8.00000000E-01  8.00000000E-01  1.50000000E+00  1.50000000E+00  8.00000000E-01
  8.00000000E-01  1.50000000E+00  1.50000000E+00  8.00000000E-01  8.00000000E-01
  1.50000000E+00  1.50000000E+00  8.00000000E-01  8.00000000E-01  1.50000000E+00
  1.50000000E+00  8.00000000E-01  8.00000000E-01  1.50000000E+00  1.50000000E+00
  8.00000000E-01  8.00000000E-01  1.50000000E+00  1.50000000E+00  8.00000000E-01
  8.00000000E-01  1.50000000E+00  1.50000000E+00  8.00000000E-01  8.00000000E-01
  1.50000000E+00  1.50000000E+00  8.00000000E-01  8.00000000E-01  1.50000000E+00
  1.50000000E+00  8.00000000E-01  8.00000000E-01  1.50000000E+00  1.50000000E+00
  8.00000000E-01  8.00000000E-01  1.50000000E+00  1.50000000E+00  8.00000000E-01
  8.00000000E-01  1.50000000E+00  1.50000000E+00  8.00000000E-01  8.00000000E-01
  1.50000000E+00  1.50000000E+00  8.00000000E-01  8.00000000E-01  1.50000000E+00
  1.50000000E+00  8.00000000E-01  8.00000000E-01  1.50000000E+00  1.50000000E+00
  8.00000000E-01  8.00000000E-01  1.50000000E+00  1.50000000E+00  8.00000000E-01
  8.00000000E-01  1.50000000E+00  1.50000000E+00  8.00000000E-01  8.00000000E-01
  1.50000000E+00  1.50000000E+00  8.00000000E-01  8.00000000E-01  1.50000000E+00
  1.50000000E+00  8.00000000E-01  8.00000000E-01  1.50000000E+00  1.50000000E+00
  8.00000000E-01  8.00000000E-01  1.50000000E+00  1.50000000E+00  8.00000000E-01
  8.00000000E-01  1.50000000E+00  1.50000000E+00  8.00000000E-01  8.00000000E-01
  1.50000000E+00  1.50000000E+00  8.00000000E-01  8.00000000E-01  1.50000000E+00
  1.50000000E+00  8.00000000E-01  8.00000000E-01  1.50000000E+00  1.50000000E+00
  8.00000000E-01  8.00000000E-01  1.50000000E+00  1.50000000E+00  8.00000000E-01
  8.00000000E-01  1.50000000E+00  1.50000000E+00  8.00000000E-01  8.00000000E-01
  1.50000000E+00  1.50000000E+00  8.00000000E-01  8.00000000E-01  1.50000000E+00
  1.50000000E+00  8.00000000E-01  8.00000000E-01  1.50000000E+00  1.50000000E+00
  8.00000000E-01  8.00000000E-01  1.50000000E+00  1.50000000E+00  8.00000000E-01
  8.00000000E-01  1.50000000E+00  1.50000000E+00  8.00000000E-01  8.00000000E-01
  1.50000000E+00  1.50000000E+00  8.00000000E-01  8.00000000E-01  1.50000000E+00
  1.50000000E+00  8.00000000E-01  8.00000000E-01  1.50000000E+00  1.50000000E+00
  8.00000000E-01  8.00000000E-01  1.50000000E+00  1.50000000E+00  8.00000000E-01
  8.00000000E-01  1.50000000E+00  1.50000000E+00  8.00000000E-01  8.00000000E-01
  1.50000000E+00  1.50000000E+00  8.00000000E-01  8.00000000E-01  1.50000000E+00
  1.50000000E+00  8.00000000E-01  8.00000000E-01  1.50000000E+00  1.50000000E+00
  8.00000000E-01  8.00000000E-01  1.50000000E+00  1.50000000E+00  8.00000000E-01
  8.00000000E-01  1.50000000E+00  1.50000000E+00  8.00000000E-01  8.00000000E-01
  1.50000000E+00  1.50000000E+00  8.00000000E-01  8.00000000E-01  1.50000000E+00
  1.50000000E+00  8.00000000E-01  8.00000000E-01  1.50000000E+00  1.50000000E+00
  8.00000000E-01  8.00000000E-01  1.50000000E+00  1.50000000E+00  8.00000000E-01
  8.00000000E-01  1.50000000E+00  1.50000000E+00  8.00000000E-01  8.00000000E-01
  1.50000000E+00  1.50000000E+00  8.00000000E-01  8.00000000E-01  1.50000000E+00
  1.50000000E+00  8.00000000E-01  8.00000000E-01  1.50000000E+00  1.50000000E+00
  8.00000000E-01  8.00000000E-01  1.50000000E+00  1.50000000E+00  8.00000000E-01
  8.00000000E-01  1.50000000E+00  1.50000000E+00  8.00000000E-01  8.00000000E-01
  1.50000000E+00  1.50000000E+00  8.00000000E-01  8.00000000E-01  1.50000000E+00
  1.50000000E+00  8.00000000E-01  8.00000000E-01  1.50000000E+00  1.50000000E+00
  8.00000000E-01  8.00000000E-01  1.50000000E+00  1.50000000E+00  8.00000000E-01
  8.00000000E-01  1.50000000E+00  1.50000000E+00  8.00000000E-01  8.00000000E-01
  1.50000000E+00  1.50000000E+00  8.00000000E-01  8.00000000E-01  1.50000000E+00
  1.50000000E+00  8.00000000E-01  8.00000000E-01  1.50000000E+00  1.50000000E+00
  8.00000000E-01  8.00000000E-01  1.50000000E+00  1.50000000E+00  8.00000000E-01
  8.00000000E-01  1.50000000E+00  1.50000000E+00  8.00000000E-01  8.00000000E-01
  1.50000000E+00  1.50000000E+00  8.00000000E-01  8.00000000E-01  1.50000000E+00
  1.50000000E+00  8.00000000E-01  8.00000000E-01  1.50000000E+00  1.50000000E+00
  8.00000000E-01  8.00000000E-01  1.50000000E+00  1.50000000E+00  8.00000000E-01
  8.00000000E-01  1.50000000E+00  1.50000000E+00  8.00000000E-01  8.00000000E-01
  1.50000000E+00  1.50000000E+00  8.00000000E-01  8.00000000E-01  1.50000000E+00
  1.50000000E+00  8.00000000E-01  8.00000000E-01  1.50000000E+00  1.50000000E+00
  8.00000000E-01  8.00000000E-01  1.50000000E+00  1.50000000E+00  8.00000000E-01
  8.00000000E-01  1.50000000E+00  1.50000000E+00  8.00000000E-01  8.00000000E-01
  1.50000000E+00  1.50000000E+00  8.00000000E-01  8.00000000E-01  1.50000000E+00
  1.50000000E+00  8.00000000E-01  8.00000000E-01  1.50000000E+00  1.50000000E+00
  8.00000000E-01  8.00000000E-01  1.50000000E+00  1.50000000E+00  8.00000000E-01
  8.00000000E-01  1.50000000E+00  1.50000000E+00  8.00000000E-01  8.00000000E-01
  1.50000000E+00  1.50000000E+00  8.00000000E-01  8.00000000E-01  1.50000000E+00
  1.50000000E+00  8.00000000E-01  8.00000000E-01  1.50000000E+00  1.50000000E+00
  8.00000000E-01  8.00000000E-01  1.50000000E+00  1.50000000E+00  8.00000000E-01
  8.00000000E-01  1.50000000E+00  1.50000000E+00  8.00000000E-01  8.00000000E-01
  1.50000000E+00  1.50000000E+00  8.00000000E-01  8.00000000E-01  1.50000000E+00
  1.50000000E+00  8.00000000E-01  8.00000000E-01  1.50000000E+00  1.50000000E+00
  8.00000000E-01  8.00000000E-01  1.50000000E+00  1.50000000E+00  8.00000000E-01
  8.00000000E-01  1.50000000E+00  1.50000000E+00  8.00000000E-01  8.00000000E-01
  1.50000000E+00  1.50000000E+00  8.00000000E-01  8.00000000E-01  1.50000000E+00
  1.50000000E+00  8.00000000E-01  8.00000000E-01  1.50000000E+00  1.50000000E+00
  8.00000000E-01  8.00000000E-01  1.50000000E+00  1.50000000E+00  8.00000000E-01
  8.00000000E-01  1.50000000E+00  1.50000000E+00  8.00000000E-01  8.00000000E-01
  1.50000000E+00  1.50000000E+00  8.00000000E-01  8.00000000E-01  1.50000000E+00
  1.50000000E+00  8.00000000E-01  8.00000000E-01  1.50000000E+00  1.50000000E+00
  8.00000000E-01  8.00000000E-01  1.50000000E+00  1.50000000E+00  8.00000000E-01
  8.00000000E-01  1.50000000E+00  1.50000000E+00  8.00000000E-01  8.00000000E-01
  1.50000000E+00  1.50000000E+00  8.00000000E-01  8.00000000E-01  1.50000000E+00
  1.50000000E+00  8.00000000E-01  8.00000000E-01  1.50000000E+00  1.50000000E+00
  8.00000000E-01  8.00000000E-01  1.50000000E+00  1.50000000E+00  8.00000000E-01
  8.00000000E-01  1.50000000E+00  1.50000000E+00  8.00000000E-01  8.00000000E-01
  1.50000000E+00  1.50000000E+00  8.00000000E-01  8.00000000E-01  1.50000000E+00
  1.50000000E+00  8.00000000E-01  8.00000000E-01  1.50000000E+00  1.50000000E+00
  8.00000000E-01  8.00000000E-01  1.50000000E+00  1.50000000E+00  8.00000000E-01
  8.00000000E-01  1.50000000E+00  1.50000000E+00  8.00000000E-01  8.00000000E-01
  1.50000000E+00  1.50000000E+00  8.00000000E-01  8.00000000E-01  1.50000000E+00
  1.50000000E+00  8.00000000E-01  8.00000000E-01  1.50000000E+00  1.50000000E+00
  8.00000000E-01  8.00000000E-01  1.50000000E+00  1.50000000E+00  8.00000000E-01
  8.00000000E-01  1.50000000E+00  1.50000000E+00  8.00000000E-01  8.00000000E-01
  1.50000000E+00  1.50000000E+00  8.00000000E-01  8.00000000E-01  1.50000000E+00
  1.50000000E+00  8.00000000E-01  8.00000000E-01  1.50000000E+00  1.50000000E+00
  8.00000000E-01  8.00000000E-01  1.50000000E+00  1.50000000E+00  8.00000000E-01
  8.00000000E-01  1.50000000E+00  1.50000000E+00  8.00000000E-01  8.00000000E-01
  1.50000000E+00  1.50000000E+00  8.00000000E-01  8.00000000E-01  1.50000000E+00
  1.50000000E+00  8.00000000E-01  8.00000000E-01  1.50000000E+00  1.50000000E+00
  8.00000000E-01  8.00000000E-01  1.50000000E+00  1.50000000E+00  8.00000000E-01
  8.00000000E-01  1.50000000E+00  1.50000000E+00  8.00000000E-01  8.00000000E-01
  1.50000000E+00  1.50000000E+00  8.00000000E-01  8.00000000E-01  1.50000000E+00
  1.50000000E+00  8.00000000E-01  8.00000000E-01  1.50000000E+00  1.50000000E+00
  8.00000000E-01  8.00000000E-01  1.50000000E+00  1.50000000E+00  8.00000000E-01
  8.00000000E-01  1.50000000E+00  1.50000000E+00  8.00000000E-01  8.00000000E-01
  1.50000000E+00  1.50000000E+00  8.00000000E-01  8.00000000E-01  1.50000000E+00
  1.50000000E+00  8.00000000E-01  8.00000000E-01  1.50000000E+00  1.50000000E+00
  8.00000000E-01  8.00000000E-01  1.50000000E+00  1.50000000E+00  8.00000000E-01
  8.00000000E-01  1.50000000E+00  1.50000000E+00  8.00000000E-01  8.00000000E-01
  1.50000000E+00  1.50000000E+00  8.00000000E-01  8.00000000E-01  1.50000000E+00
  1.50000000E+00  8.00000000E-01  8.00000000E-01  1.50000000E+00  1.50000000E+00
  8.00000000E-01  8.00000000E-01  1.50000000E+00  1.50000000E+00  8.00000000E-01
  8.00000000E-01  1.50000000E+00  1.50000000E+00  8.00000000E-01  8.00000000E-01
  1.50000000E+00  1.50000000E+00  8.00000000E-01  8.00000000E-01  1.50000000E+00
  1.50000000E+00  8.00000000E-01  8.00000000E-01  1.50000000E+00  1.50000000E+00
  8.00000000E-01  8.00000000E-01  1.50000000E+00  1.50000000E+00  8.00000000E-01
  8.00000000E-01  1.50000000E+00  1.50000000E+00  8.00000000E-01  8.00000000E-01
  1.50000000E+00  1.50000000E+00  8.00000000E-01  8.00000000E-01  1.50000000E+00
  1.50000000E+00  8.00000000E-01  8.00000000E-01  1.50000000E+00  1.50000000E+00
  8.00000000E-01  8.00000000E-01  1.50000000E+00  1.50000000E+00  8.00000000E-01
  8.00000000E-01  1.50000000E+00  1.50000000E+00  8.00000000E-01  8.00000000E-01
  1.50000000E+00  1.50000000E+00  8.00000000E-01  8.00000000E-01  1.50000000E+00
  1.50000000E+00  8.00000000E-01  8.00000000E-01  1.50000000E+00  1.50000000E+00
  8.00000000E-01  8.00000000E-01  1.50000000E+00  1.50000000E+00  8.00000000E-01
  8.00000000E-01  1.50000000E+00  1.50000000E+00  8.00000000E-01  8.00000000E-01
  1.50000000E+00  1.50000000E+00  8.00000000E-01  8.00000000E-01  1.50000000E+00
  1.50000000E+00  8.00000000E-01  8.00000000E-01  1.50000000E+00  1.50000000E+00
  8.00000000E-01  8.00000000E-01  1.50000000E+00  1.50000000E+00  8.00000000E-01
  8.00000000E-01  1.50000000E+00  1.50000000E+00  8.00000000E-01  8.00000000E-01
  1.50000000E+00  1.50000000E+00  8.00000000E-01  8.00000000E-01  1.50000000E+00
  1.50000000E+00  8.00000000E-01  8.00000000E-01  1.50000000E+00  1.50000000E+00
  8.00000000E-01  8.00000000E-01  1.50000000E+00  1.50000000E+00  8.00000000E-01
  8.00000000E-01  1.50000000E+00  1.50000000E+00  8.00000000E-01  8.00000000E-01
  1.50000000E+00  1.50000000E+00  8.00000000E-01  8.00000000E-01  1.50000000E+00
  1.50000000E+00  8.00000000E-01  8.00000000E-01  1.50000000E+00  1.50000000E+00
  8.00000000E-01  8.00000000E-01  1.50000000E+00  1.50000000E+00  8.00000000E-01
  8.00000000E-01  1.50000000E+00  1.50000000E+00  8.00000000E-01  8.00000000E-01
  1.50000000E+00  1.50000000E+00  8.00000000E-01  8.00000000E-01  1.50000000E+00
  1.50000000E+00  8.00000000E-01  8.00000000E-01  1.50000000E+00  1.50000000E+00
  8.00000000E-01  8.00000000E-01  1.50000000E+00  1.50000000E+00  8.00000000E-01
  8.00000000E-01  1.50000000E+00  1.50000000E+00  8.00000000E-01  8.00000000E-01
  1.50000000E+00  1.50000000E+00  8.00000000E-01  8.00000000E-01  1.50000000E+00
  1.50000000E+00  8.00000000E-01  8.00000000E-01  1.50000000E+00  1.50000000E+00
  8.00000000E-01  8.00000000E-01  1.50000000E+00  1.50000000E+00  8.00000000E-01
  8.00000000E-01  1.50000000E+00  1.50000000E+00  8.00000000E-01  8.00000000E-01
  1.50000000E+00  1.50000000E+00  8.00000000E-01  8.00000000E-01  1.50000000E+00
  1.50000000E+00  8.00000000E-01  8.00000000E-01  1.50000000E+00  1.50000000E+00
  8.00000000E-01  8.00000000E-01  1.50000000E+00  1.50000000E+00  8.00000000E-01
  8.00000000E-01  1.50000000E+00  1.50000000E+00  8.00000000E-01  8.00000000E-01
  1.50000000E+00  1.50000000E+00  8.00000000E-01  8.00000000E-01  1.50000000E+00
  1.50000000E+00  8.00000000E-01  8.00000000E-01  1.50000000E+00  1.50000000E+00
  8.00000000E-01  8.00000000E-01  1.50000000E+00  1.50000000E+00  8.00000000E-01
  8.00000000E-01  1.50000000E+00  1.50000000E+00  8.00000000E-01  8.00000000E-01
  1.50000000E+00  1.50000000E+00  8.00000000E-01  8.00000000E-01  1.50000000E+00
  1.50000000E+00  8.00000000E-01  8.00000000E-01  1.50000000E+00  1.50000000E+00
  8.00000000E-01  8.00000000E-01  1.50000000E+00  1.50000000E+00  8.00000000E-01
  8.00000000E-01  1.50000000E+00  1.50000000E+00  8.00000000E-01  8.00000000E-01
  1.50000000E+00  1.50000000E+00  8.00000000E-01  8.00000000E-01  1.50000000E+00
  1.50000000E+00  8.00000000E-01  8.00000000E-01  1.50000000E+00  1.50000000E+00
  8.00000000E-01  8.00000000E-01  1.50000000E+00  1.50000000E+00  8.00000000E-01
  8.00000000E-01  1.50000000E+00  1.50000000E+00  8.00000000E-01  8.00000000E-01
  1.50000000E+00  1.50000000E+00  8.00000000E-01  8.00000000E-01  1.50000000E+00
  1.50000000E+00  8.00000000E-01  8.00000000E-01  1.50000000E+00  1.50000000E+00
  8.00000000E-01  8.00000000E-01  1.50000000E+00  1.50000000E+00  8.00000000E-01
  8.00000000E-01  1.50000000E+00  1.50000000E+00  8.00000000E-01  8.00000000E-01
  1.50000000E+00  1.50000000E+00  8.00000000E-01  8.00000000E-01  1.50000000E+00
  1.50000000E+00  8.00000000E-01  8.00000000E-01  1.50000000E+00  1.50000000E+00
  8.00000000E-01  8.00000000E-01  1.50000000E+00  1.50000000E+00  8.00000000E-01
  8.00000000E-01  1.50000000E+00  1.50000000E+00  8.00000000E-01  8.00000000E-01
  1.50000000E+00  1.50000000E+00  8.00000000E-01  8.00000000E-01  1.50000000E+00
  1.50000000E+00  8.00000000E-01  8.00000000E-01  1.50000000E+00  1.50000000E+00
  8.00000000E-01  8.00000000E-01  1.50000000E+00  1.50000000E+00  8.00000000E-01
  8.00000000E-01  1.50000000E+00  1.50000000E+00  8.00000000E-01  8.00000000E-01
  1.50000000E+00  1.50000000E+00  8.00000000E-01  8.00000000E-01  1.50000000E+00
  1.50000000E+00  8.00000000E-01  8.00000000E-01  1.50000000E+00  1.50000000E+00
  8.00000000E-01  8.00000000E-01  1.50000000E+00  1.50000000E+00  8.00000000E-01
  8.00000000E-01  1.50000000E+00  1.50000000E+00  8.00000000E-01  8.00000000E-01
  1.50000000E+00  1.50000000E+00  8.00000000E-01  8.00000000E-01  1.50000000E+00
  1.50000000E+00  8.00000000E-01  8.00000000E-01  1.50000000E+00  1.50000000E+00
  8.00000000E-01  8.00000000E-01  1.50000000E+00  1.50000000E+00  8.00000000E-01
  8.00000000E-01  1.50000000E+00  1.50000000E+00  8.00000000E-01  8.00000000E-01
  1.50000000E+00  1.50000000E+00  8.00000000E-01  8.00000000E-01  1.50000000E+00
  1.50000000E+00  8.00000000E-01  8.00000000E-01  1.50000000E+00  1.50000000E+00
  8.00000000E-01  8.00000000E-01  1.50000000E+00  1.50000000E+00  8.00000000E-01
  8.00000000E-01  1.50000000E+00  1.50000000E+00  8.00000000E-01  8.00000000E-01
  1.50000000E+00  1.50000000E+00  8.00000000E-01  8.00000000E-01  1.50000000E+00
  1.50000000E+00  8.00000000E-01  8.00000000E-01  1.50000000E+00  1.50000000E+00
  8.00000000E-01  8.00000000E-01  1.50000000E+00  1.50000000E+00  8.00000000E-01
  8.00000000E-01  1.50000000E+00  1.50000000E+00  8.00000000E-01  8.00000000E-01
  1.50000000E+00  1.50000000E+00  8.00000000E-01  8.00000000E-01  1.50000000E+00
  1.50000000E+00  8.00000000E-01  8.00000000E-01  1.50000000E+00  1.50000000E+00
  8.00000000E-01  8.00000000E-01  1.50000000E+00  1.50000000E+00  8.00000000E-01
  8.00000000E-01  1.50000000E+00  1.50000000E+00  8.00000000E-01  8.00000000E-01
  1.50000000E+00  1.50000000E+00  8.00000000E-01  8.00000000E-01  1.50000000E+00
  1.50000000E+00  8.00000000E-01  8.00000000E-01  1.50000000E+00  1.50000000E+00
  8.00000000E-01  8.00000000E-01  1.50000000E+00  1.50000000E+00  8.00000000E-01
  8.00000000E-01  1.50000000E+00  1.50000000E+00  8.00000000E-01  8.00000000E-01
  1.50000000E+00  1.50000000E+00  8.00000000E-01  8.00000000E-01  1.50000000E+00
  1.50000000E+00  8.00000000E-01  8.00000000E-01  1.50000000E+00  1.50000000E+00
  8.00000000E-01  8.00000000E-01  1.50000000E+00  1.50000000E+00  8.00000000E-01
  8.00000000E-01  1.50000000E+00  1.50000000E+00  8.00000000E-01  8.00000000E-01
  1.50000000E+00  1.50000000E+00  8.00000000E-01  8.00000000E-01  1.50000000E+00
  1.50000000E+00  8.00000000E-01  8.00000000E-01  1.50000000E+00  1.50000000E+00
  8.00000000E-01  8.00000000E-01  1.50000000E+00  1.50000000E+00  8.00000000E-01
  8.00000000E-01  1.50000000E+00  1.50000000E+00  8.00000000E-01  8.00000000E-01
  1.50000000E+00  1.50000000E+00  8.00000000E-01  8.00000000E-01  1.50000000E+00
  1.50000000E+00  8.00000000E-01  8.00000000E-01  1.50000000E+00  1.50000000E+00
  8.00000000E-01  8.00000000E-01  1.50000000E+00  1.50000000E+00  8.00000000E-01
  8.00000000E-01  1.50000000E+00  1.50000000E+00  8.00000000E-01  8.00000000E-01
  1.50000000E+00  1.50000000E+00  8.00000000E-01  8.00000000E-01  1.50000000E+00
  1.50000000E+00  8.00000000E-01  8.00000000E-01  1.50000000E+00  1.50000000E+00
  8.00000000E-01  8.00000000E-01  1.50000000E+00  1.50000000E+00  8.00000000E-01
  8.00000000E-01  1.50000000E+00  1.50000000E+00  8.00000000E-01  8.00000000E-01
  1.50000000E+00  1.50000000E+00  8.00000000E-01  8.00000000E-01  1.50000000E+00
  1.50000000E+00  8.00000000E-01  8.00000000E-01  1.50000000E+00  1.50000000E+00
  8.00000000E-01  8.00000000E-01  1.50000000E+00  1.50000000E+00  8.00000000E-01
  8.00000000E-01  1.50000000E+00  1.50000000E+00  8.00000000E-01  8.00000000E-01
  1.50000000E+00  1.50000000E+00  8.00000000E-01  8.00000000E-01  1.50000000E+00
  1.50000000E+00  8.00000000E-01  8.00000000E-01  1.50000000E+00  1.50000000E+00
  8.00000000E-01  8.00000000E-01  1.50000000E+00  1.50000000E+00  8.00000000E-01
  8.00000000E-01  1.50000000E+00  1.50000000E+00  8.00000000E-01  8.00000000E-01
  1.50000000E+00  1.50000000E+00  8.00000000E-01  8.00000000E-01  1.50000000E+00
  1.50000000E+00  8.00000000E-01  8.00000000E-01  1.50000000E+00  1.50000000E+00
  8.00000000E-01  8.00000000E-01  1.50000000E+00  1.50000000E+00  8.00000000E-01
  8.00000000E-01  1.50000000E+00  1.50000000E+00  8.00000000E-01  8.00000000E-01
  1.50000000E+00  1.50000000E+00  8.00000000E-01  8.00000000E-01  1.50000000E+00
  1.50000000E+00  8.00000000E-01  8.00000000E-01  1.50000000E+00  1.50000000E+00
  8.00000000E-01  8.00000000E-01  1.50000000E+00  1.50000000E+00  8.00000000E-01
  8.00000000E-01  1.50000000E+00  1.50000000E+00  8.00000000E-01  8.00000000E-01
  1.50000000E+00  1.50000000E+00  8.00000000E-01  8.00000000E-01  1.50000000E+00
  1.50000000E+00  8.00000000E-01  8.00000000E-01  1.50000000E+00  1.50000000E+00
  8.00000000E-01  8.00000000E-01  1.50000000E+00  1.50000000E+00  8.00000000E-01
  8.00000000E-01  1.50000000E+00  1.50000000E+00  8.00000000E-01  8.00000000E-01
  1.50000000E+00  1.50000000E+00  8.00000000E-01  8.00000000E-01  1.50000000E+00
  1.50000000E+00  8.00000000E-01  8.00000000E-01  1.50000000E+00  1.50000000E+00
  8.00000000E-01  8.00000000E-01  1.50000000E+00  1.50000000E+00  8.00000000E-01
  8.00000000E-01  1.50000000E+00  1.50000000E+00  8.00000000E-01  8.00000000E-01
  1.50000000E+00  1.50000000E+00  8.00000000E-01  8.00000000E-01  1.50000000E+00
  1.50000000E+00  8.00000000E-01  8.00000000E-01  1.50000000E+00  1.50000000E+00
  8.00000000E-01  8.00000000E-01  1.50000000E+00  1.50000000E+00  8.00000000E-01
  8.00000000E-01  1.50000000E+00  1.50000000E+00  8.00000000E-01  8.00000000E-01
  1.50000000E+00  1.50000000E+00  8.00000000E-01  8.00000000E-01  1.50000000E+00
  1.50000000E+00  8.00000000E-01  8.00000000E-01  1.50000000E+00  1.50000000E+00
  8.00000000E-01  8.00000000E-01  1.50000000E+00  1.50000000E+00  8.00000000E-01
  8.00000000E-01  1.50000000E+00  1.50000000E+00  8.00000000E-01  8.00000000E-01
  1.50000000E+00  1.50000000E+00  8.00000000E-01  8.00000000E-01  1.50000000E+00
  1.50000000E+00  8.00000000E-01  8.00000000E-01  1.50000000E+00  1.50000000E+00
  8.00000000E-01  8.00000000E-01  1.50000000E+00  1.50000000E+00  8.00000000E-01
  8.00000000E-01  1.50000000E+00  1.50000000E+00  8.00000000E-01  8.00000000E-01
  1.50000000E+00  1.50000000E+00  8.00000000E-01  8.00000000E-01  1.50000000E+00
  1.50000000E+00  8.00000000E-01  8.00000000E-01  1.50000000E+00  1.50000000E+00
  8.00000000E-01  8.00000000E-01  1.50000000E+00  1.50000000E+00  8.00000000E-01
  8.00000000E-01  1.50000000E+00  1.50000000E+00  8.00000000E-01  8.00000000E-01
  1.50000000E+00  1.50000000E+00  8.00000000E-01  8.00000000E-01  1.50000000E+00
  1.50000000E+00  8.00000000E-01  8.00000000E-01  1.50000000E+00  1.50000000E+00
  8.00000000E-01  8.00000000E-01  1.50000000E+00  1.50000000E+00  8.00000000E-01
  8.00000000E-01  1.50000000E+00  1.50000000E+00  8.00000000E-01  8.00000000E-01
  1.50000000E+00  1.50000000E+00  8.00000000E-01  8.00000000E-01  1.50000000E+00
  1.50000000E+00  8.00000000E-01  8.00000000E-01  1.50000000E+00  1.50000000E+00
  8.00000000E-01  8.00000000E-01  1.50000000E+00  1.50000000E+00  8.00000000E-01
  8.00000000E-01  1.50000000E+00  1.50000000E+00  8.00000000E-01  8.00000000E-01
  1.50000000E+00  1.50000000E+00  8.00000000E-01  8.00000000E-01  1.50000000E+00
  1.50000000E+00  8.00000000E-01  8.00000000E-01  1.50000000E+00  1.50000000E+00
  8.00000000E-01  8.00000000E-01  1.50000000E+00  1.50000000E+00  8.00000000E-01
  8.00000000E-01  1.50000000E+00  1.50000000E+00  8.00000000E-01  8.00000000E-01
  1.50000000E+00  1.50000000E+00  8.00000000E-01  8.00000000E-01  1.50000000E+00
  1.50000000E+00  8.00000000E-01  8.00000000E-01  1.50000000E+00  1.50000000E+00
  8.00000000E-01  8.00000000E-01  1.50000000E+00  1.50000000E+00  8.00000000E-01
  8.00000000E-01  1.50000000E+00  1.50000000E+00  8.00000000E-01  8.00000000E-01
  1.50000000E+00  1.50000000E+00  8.00000000E-01  8.00000000E-01  1.50000000E+00
  1.50000000E+00  8.00000000E-01  8.00000000E-01  1.50000000E+00  1.50000000E+00
  8.00000000E-01  8.00000000E-01  1.50000000E+00  1.50000000E+00  8.00000000E-01
  8.00000000E-01  1.50000000E+00  1.50000000E+00  8.00000000E-01  8.00000000E-01
  1.50000000E+00  1.50000000E+00  8.00000000E-01  8.00000000E-01  1.50000000E+00
  1.50000000E+00  8.00000000E-01  8.00000000E-01  1.50000000E+00  1.50000000E+00
  8.00000000E-01  8.00000000E-01  1.50000000E+00  1.50000000E+00  8.00000000E-01
  8.00000000E-01  1.50000000E+00  1.50000000E+00  8.00000000E-01  8.00000000E-01
  1.50000000E+00  1.50000000E+00  8.00000000E-01  8.00000000E-01  1.50000000E+00
  1.50000000E+00  8.00000000E-01  8.00000000E-01  1.50000000E+00  1.50000000E+00
  8.00000000E-01  8.00000000E-01  1.50000000E+00  1.50000000E+00  8.00000000E-01
  8.00000000E-01  1.50000000E+00  1.50000000E+00  8.00000000E-01  8.00000000E-01
  1.50000000E+00  1.50000000E+00  8.00000000E-01  8.00000000E-01  1.50000000E+00
  1.50000000E+00  8.00000000E-01  8.00000000E-01  1.50000000E+00  1.50000000E+00
  8.00000000E-01  8.00000000E-01  1.50000000E+00  1.50000000E+00  8.00000000E-01
  8.00000000E-01  1.50000000E+00  1.50000000E+00  8.00000000E-01  8.00000000E-01
  1.50000000E+00  1.50000000E+00  8.00000000E-01  8.00000000E-01  1.50000000E+00
  1.50000000E+00  8.00000000E-01  8.00000000E-01  1.50000000E+00  1.50000000E+00
  8.00000000E-01  8.00000000E-01  1.50000000E+00  1.50000000E+00  8.00000000E-01
  8.00000000E-01  1.50000000E+00  1.50000000E+00  8.00000000E-01  8.00000000E-01
  1.50000000E+00  1.50000000E+00  8.00000000E-01  8.00000000E-01  1.50000000E+00
  1.50000000E+00  8.00000000E-01  8.00000000E-01  1.50000000E+00  1.50000000E+00
  8.00000000E-01  8.00000000E-01  1.50000000E+00  1.50000000E+00  8.00000000E-01
  8.00000000E-01  1.50000000E+00  1.50000000E+00  8.00000000E-01  8.00000000E-01
  1.50000000E+00  1.50000000E+00  8.00000000E-01  8.00000000E-01  1.50000000E+00
  1.50000000E+00  8.00000000E-01  8.00000000E-01  1.50000000E+00  1.50000000E+00
  8.00000000E-01  8.00000000E-01  1.50000000E+00  1.50000000E+00  8.00000000E-01
  8.00000000E-01  1.50000000E+00  1.50000000E+00  8.00000000E-01  8.00000000E-01
  1.50000000E+00  1.50000000E+00  8.00000000E-01  8.00000000E-01  1.50000000E+00
  1.50000000E+00  8.00000000E-01  8.00000000E-01  1.50000000E+00  1.50000000E+00
  8.00000000E-01  8.00000000E-01  1.50000000E+00  1.50000000E+00  8.00000000E-01
  8.00000000E-01  1.50000000E+00  1.50000000E+00  8.00000000E-01  8.00000000E-01
  1.50000000E+00  1.50000000E+00  8.00000000E-01  8.00000000E-01  1.50000000E+00
  1.50000000E+00  8.00000000E-01  8.00000000E-01  1.50000000E+00  1.50000000E+00
  8.00000000E-01  8.00000000E-01  1.50000000E+00  1.50000000E+00  8.00000000E-01
  8.00000000E-01  1.50000000E+00  1.50000000E+00  8.00000000E-01  8.00000000E-01
  1.50000000E+00  1.50000000E+00  8.00000000E-01  8.00000000E-01  1.50000000E+00
  1.50000000E+00  8.00000000E-01  8.00000000E-01  1.50000000E+00  1.50000000E+00
  8.00000000E-01  8.00000000E-01  1.50000000E+00  1.50000000E+00  8.00000000E-01
  8.00000000E-01  1.50000000E+00  1.50000000E+00  8.00000000E-01  8.00000000E-01
  1.50000000E+00  1.50000000E+00  8.00000000E-01  8.00000000E-01  1.50000000E+00
  1.50000000E+00  8.00000000E-01  8.00000000E-01  1.50000000E+00  1.50000000E+00
  8.00000000E-01  8.00000000E-01  1.50000000E+00  1.50000000E+00  8.00000000E-01
  8.00000000E-01  1.50000000E+00  1.50000000E+00  8.00000000E-01  8.00000000E-01
  1.50000000E+00  1.50000000E+00  8.00000000E-01  8.00000000E-01  1.50000000E+00
  1.50000000E+00  8.00000000E-01  8.00000000E-01  1.50000000E+00  1.50000000E+00
  8.00000000E-01  8.00000000E-01  1.50000000E+00  1.50000000E+00  8.00000000E-01
  8.00000000E-01  1.50000000E+00  1.50000000E+00  8.00000000E-01  8.00000000E-01
  1.50000000E+00  1.50000000E+00  8.00000000E-01  8.00000000E-01  1.50000000E+00
  1.50000000E+00  8.00000000E-01  8.00000000E-01  1.50000000E+00  1.50000000E+00
  8.00000000E-01  8.00000000E-01  1.50000000E+00  1.50000000E+00  8.00000000E-01
  8.00000000E-01  1.50000000E+00  1.50000000E+00  8.00000000E-01  8.00000000E-01
  1.50000000E+00  1.50000000E+00  8.00000000E-01  8.00000000E-01  1.50000000E+00
  1.50000000E+00  8.00000000E-01  8.00000000E-01  1.50000000E+00  1.50000000E+00
  8.00000000E-01  8.00000000E-01  1.50000000E+00  1.50000000E+00  8.00000000E-01
  8.00000000E-01  1.50000000E+00  1.50000000E+00  8.00000000E-01  8.00000000E-01
  1.50000000E+00  1.50000000E+00  8.00000000E-01  8.00000000E-01  1.50000000E+00
  1.50000000E+00  8.00000000E-01  8.00000000E-01  1.50000000E+00  1.50000000E+00
  8.00000000E-01  8.00000000E-01  1.50000000E+00  1.50000000E+00  8.00000000E-01
  8.00000000E-01  1.50000000E+00  1.50000000E+00  8.00000000E-01  8.00000000E-01
  1.50000000E+00  1.50000000E+00  8.00000000E-01  8.00000000E-01  1.50000000E+00
  1.50000000E+00  8.00000000E-01  8.00000000E-01  1.50000000E+00  1.50000000E+00
  8.00000000E-01  8.00000000E-01  1.50000000E+00  1.50000000E+00  8.00000000E-01
  8.00000000E-01  1.50000000E+00  1.50000000E+00  8.00000000E-01  8.00000000E-01
  1.50000000E+00  1.50000000E+00  8.00000000E-01  8.00000000E-01  1.50000000E+00
  1.50000000E+00  8.00000000E-01  8.00000000E-01  1.50000000E+00  1.50000000E+00
  8.00000000E-01  8.00000000E-01  1.50000000E+00  1.50000000E+00  8.00000000E-01
  8.00000000E-01  1.50000000E+00  1.50000000E+00  8.00000000E-01  8.00000000E-01
  1.50000000E+00  1.50000000E+00  8.00000000E-01  8.00000000E-01  1.50000000E+00
  1.50000000E+00  8.00000000E-01  8.00000000E-01  1.50000000E+00  1.50000000E+00
  8.00000000E-01  8.00000000E-01  1.50000000E+00  1.50000000E+00  8.00000000E-01
  8.00000000E-01  1.50000000E+00  1.50000000E+00  8.00000000E-01  8.00000000E-01
  1.50000000E+00  1.50000000E+00  8.00000000E-01  8.00000000E-01  1.50000000E+00
  1.50000000E+00  8.00000000E-01  8.00000000E-01  1.50000000E+00  1.50000000E+00
  8.00000000E-01  8.00000000E-01  1.50000000E+00  1.50000000E+00  8.00000000E-01
  8.00000000E-01  1.50000000E+00  1.50000000E+00  8.00000000E-01  8.00000000E-01
  1.50000000E+00  1.50000000E+00  8.00000000E-01  8.00000000E-01  1.50000000E+00
  1.50000000E+00  8.00000000E-01  8.00000000E-01  1.50000000E+00  1.50000000E+00
  8.00000000E-01  8.00000000E-01  1.50000000E+00  1.50000000E+00  8.00000000E-01
  8.00000000E-01  1.50000000E+00  1.50000000E+00  8.00000000E-01  8.00000000E-01
  1.50000000E+00  1.50000000E+00  8.00000000E-01  8.00000000E-01  1.50000000E+00
  1.50000000E+00  8.00000000E-01  8.00000000E-01  1.50000000E+00  1.50000000E+00
  8.00000000E-01  8.00000000E-01  1.50000000E+00  1.50000000E+00  8.00000000E-01
  8.00000000E-01  1.50000000E+00  1.50000000E+00  8.00000000E-01  8.00000000E-01
  1.50000000E+00  1.50000000E+00  8.00000000E-01  8.00000000E-01  1.50000000E+00
  1.50000000E+00  8.00000000E-01  8.00000000E-01  1.50000000E+00  1.50000000E+00
  8.00000000E-01  8.00000000E-01  1.50000000E+00  1.50000000E+00  8.00000000E-01
  8.00000000E-01  1.50000000E+00  1.50000000E+00  8.00000000E-01  8.00000000E-01
  1.50000000E+00  1.50000000E+00  8.00000000E-01  8.00000000E-01  1.50000000E+00
  1.50000000E+00  8.00000000E-01  8.00000000E-01  1.50000000E+00  1.50000000E+00
  8.00000000E-01  8.00000000E-01  1.50000000E+00  1.50000000E+00  8.00000000E-01
  8.00000000E-01  1.50000000E+00  1.50000000E+00  8.00000000E-01  8.00000000E-01
  1.50000000E+00  1.50000000E+00  8.00000000E-01  8.00000000E-01  1.50000000E+00
  1.50000000E+00  8.00000000E-01  8.00000000E-01  1.50000000E+00  1.50000000E+00
  8.00000000E-01  8.00000000E-01  1.50000000E+00  1.50000000E+00  8.00000000E-01
  8.00000000E-01  1.50000000E+00  1.50000000E+00  8.00000000E-01  8.00000000E-01
  1.50000000E+00  1.50000000E+00  8.00000000E-01  8.00000000E-01  1.50000000E+00
  1.50000000E+00  8.00000000E-01  8.00000000E-01  1.50000000E+00  1.50000000E+00
  8.00000000E-01  8.00000000E-01  1.50000000E+00  1.50000000E+00  8.00000000E-01
  8.00000000E-01  1.50000000E+00  1.50000000E+00  8.00000000E-01  8.00000000E-01
  1.50000000E+00  1.50000000E+00  8.00000000E-01  8.00000000E-01  1.50000000E+00
  1.50000000E+00  8.00000000E-01  8.00000000E-01  1.50000000E+00  1.50000000E+00
  8.00000000E-01  8.00000000E-01  1.50000000E+00  1.50000000E+00  8.00000000E-01
  8.00000000E-01  1.50000000E+00  1.50000000E+00  8.00000000E-01  8.00000000E-01
  1.50000000E+00  1.50000000E+00  8.00000000E-01  8.00000000E-01  1.50000000E+00
  1.50000000E+00  8.00000000E-01  8.00000000E-01  1.50000000E+00  1.50000000E+00
  8.00000000E-01  8.00000000E-01  1.50000000E+00  1.50000000E+00  8.00000000E-01
  8.00000000E-01  1.50000000E+00  1.50000000E+00  8.00000000E-01  8.00000000E-01
  1.50000000E+00  1.50000000E+00  8.00000000E-01  8.00000000E-01  1.50000000E+00
  1.50000000E+00  8.00000000E-01  8.00000000E-01  1.50000000E+00  1.50000000E+00
  8.00000000E-01  8.00000000E-01  1.50000000E+00  1.50000000E+00  8.00000000E-01
  8.00000000E-01  1.50000000E+00  1.50000000E+00  8.00000000E-01  8.00000000E-01
  1.50000000E+00  1.50000000E+00  8.00000000E-01  8.00000000E-01  1.50000000E+00
  1.50000000E+00  8.00000000E-01  8.00000000E-01  1.50000000E+00  1.50000000E+00
  8.00000000E-01  8.00000000E-01  1.50000000E+00  1.50000000E+00  8.00000000E-01
  8.00000000E-01  1.50000000E+00  1.50000000E+00  8.00000000E-01  8.00000000E-01
  1.50000000E+00  1.50000000E+00  8.00000000E-01  8.00000000E-01  1.50000000E+00
  1.50000000E+00  8.00000000E-01  8.00000000E-01  1.50000000E+00  1.50000000E+00
  8.00000000E-01  8.00000000E-01  1.50000000E+00  1.50000000E+00  8.00000000E-01
  8.00000000E-01  1.50000000E+00  1.50000000E+00  8.00000000E-01  8.00000000E-01
  1.50000000E+00  1.50000000E+00  8.00000000E-01  8.00000000E-01  1.50000000E+00
  1.50000000E+00  8.00000000E-01  8.00000000E-01  1.50000000E+00  1.50000000E+00
  8.00000000E-01  8.00000000E-01  1.50000000E+00  1.50000000E+00  8.00000000E-01
  8.00000000E-01  1.50000000E+00  1.50000000E+00  8.00000000E-01  8.00000000E-01
  1.50000000E+00  1.50000000E+00  8.00000000E-01  8.00000000E-01  1.50000000E+00
  1.50000000E+00  8.00000000E-01  8.00000000E-01  1.50000000E+00  1.50000000E+00
  8.00000000E-01  8.00000000E-01  1.50000000E+00  1.50000000E+00  8.00000000E-01
  8.00000000E-01  1.50000000E+00  1.50000000E+00  8.00000000E-01  8.00000000E-01
  1.50000000E+00  1.50000000E+00  8.00000000E-01  8.00000000E-01  1.50000000E+00
  1.50000000E+00  8.00000000E-01  8.00000000E-01  1.50000000E+00  1.50000000E+00
  8.00000000E-01  8.00000000E-01  1.50000000E+00  1.50000000E+00  8.00000000E-01
  8.00000000E-01  1.50000000E+00  1.50000000E+00  8.00000000E-01  8.00000000E-01
  1.50000000E+00  1.50000000E+00  8.00000000E-01  8.00000000E-01  1.50000000E+00
  1.50000000E+00  8.00000000E-01  8.00000000E-01  1.50000000E+00  1.50000000E+00
  8.00000000E-01  8.00000000E-01  1.50000000E+00  1.50000000E+00  8.00000000E-01
  8.00000000E-01  1.50000000E+00  1.50000000E+00  8.00000000E-01  8.00000000E-01
  1.50000000E+00  1.50000000E+00  8.00000000E-01  8.00000000E-01  1.50000000E+00
  1.50000000E+00  8.00000000E-01  8.00000000E-01  1.50000000E+00  1.50000000E+00
  8.00000000E-01  8.00000000E-01  1.50000000E+00  1.50000000E+00  8.00000000E-01
  8.00000000E-01  1.50000000E+00  1.50000000E+00  8.00000000E-01  8.00000000E-01
  1.50000000E+00  1.50000000E+00  8.00000000E-01  8.00000000E-01  1.50000000E+00
  1.50000000E+00  8.00000000E-01  8.00000000E-01  1.50000000E+00  1.50000000E+00
  8.00000000E-01  8.00000000E-01  1.50000000E+00  1.50000000E+00  8.00000000E-01
  8.00000000E-01  1.50000000E+00  1.50000000E+00  8.00000000E-01  8.00000000E-01
  1.50000000E+00  1.50000000E+00  8.00000000E-01  8.00000000E-01  1.50000000E+00
  1.50000000E+00  8.00000000E-01  8.00000000E-01  1.50000000E+00  1.50000000E+00
  8.00000000E-01  8.00000000E-01  1.50000000E+00  1.50000000E+00  8.00000000E-01
  8.00000000E-01  1.50000000E+00  1.50000000E+00  8.00000000E-01  8.00000000E-01
  1.50000000E+00  1.50000000E+00  8.00000000E-01  8.00000000E-01  1.50000000E+00
  1.50000000E+00  8.00000000E-01  8.00000000E-01  1.50000000E+00  1.50000000E+00
  8.00000000E-01  8.00000000E-01  1.50000000E+00  1.50000000E+00  8.00000000E-01
  8.00000000E-01  1.50000000E+00  1.50000000E+00  8.00000000E-01  8.00000000E-01
  1.50000000E+00  1.50000000E+00  8.00000000E-01  8.00000000E-01  1.50000000E+00
  1.50000000E+00  8.00000000E-01  8.00000000E-01  1.50000000E+00  1.50000000E+00
  8.00000000E-01  8.00000000E-01  1.50000000E+00  1.50000000E+00  8.00000000E-01
  8.00000000E-01  1.50000000E+00  1.50000000E+00  8.00000000E-01  8.00000000E-01
  1.50000000E+00  1.50000000E+00  8.00000000E-01  8.00000000E-01  1.50000000E+00
  1.50000000E+00  8.00000000E-01  8.00000000E-01  1.50000000E+00  1.50000000E+00
  8.00000000E-01  8.00000000E-01  1.50000000E+00  1.50000000E+00  8.00000000E-01
  8.00000000E-01  1.50000000E+00  1.50000000E+00  8.00000000E-01  8.00000000E-01
  1.50000000E+00  1.50000000E+00  8.00000000E-01  8.00000000E-01  1.50000000E+00
  1.50000000E+00  8.00000000E-01  8.00000000E-01  1.50000000E+00  1.50000000E+00
  8.00000000E-01  8.00000000E-01  1.50000000E+00  1.50000000E+00  8.00000000E-01
  8.00000000E-01  1.50000000E+00  1.50000000E+00  8.00000000E-01  8.00000000E-01
  1.50000000E+00  1.50000000E+00  8.00000000E-01  8.00000000E-01  1.50000000E+00
  1.50000000E+00  8.00000000E-01  8.00000000E-01  1.50000000E+00  1.50000000E+00
  8.00000000E-01  8.00000000E-01  1.50000000E+00  1.50000000E+00  8.00000000E-01
  8.00000000E-01  1.50000000E+00  1.50000000E+00  8.00000000E-01  8.00000000E-01
  1.50000000E+00  1.50000000E+00  8.00000000E-01  8.00000000E-01  1.50000000E+00
  1.50000000E+00  8.00000000E-01  8.00000000E-01  1.50000000E+00  1.50000000E+00
  8.00000000E-01  8.00000000E-01  1.50000000E+00  1.50000000E+00  8.00000000E-01
  8.00000000E-01  1.50000000E+00  1.50000000E+00  8.00000000E-01  8.00000000E-01
  1.50000000E+00  1.50000000E+00  8.00000000E-01  8.00000000E-01  1.50000000E+00
  1.50000000E+00  8.00000000E-01  8.00000000E-01  1.50000000E+00  1.50000000E+00
  8.00000000E-01  8.00000000E-01  1.50000000E+00  1.50000000E+00  8.00000000E-01
  8.00000000E-01  1.50000000E+00  1.50000000E+00  8.00000000E-01  8.00000000E-01
  1.50000000E+00  1.50000000E+00  8.00000000E-01  8.00000000E-01  1.50000000E+00
  1.50000000E+00  8.00000000E-01  8.00000000E-01  1.50000000E+00  1.50000000E+00
  8.00000000E-01  8.00000000E-01  1.50000000E+00  1.50000000E+00  8.00000000E-01
  8.00000000E-01  1.50000000E+00  1.50000000E+00  8.00000000E-01  8.00000000E-01
  1.50000000E+00  1.50000000E+00  8.00000000E-01  8.00000000E-01  1.50000000E+00
  1.50000000E+00  8.00000000E-01  8.00000000E-01  1.50000000E+00  1.50000000E+00
  8.00000000E-01  8.00000000E-01  1.50000000E+00  1.50000000E+00  8.00000000E-01
  8.00000000E-01  1.50000000E+00  1.50000000E+00  8.00000000E-01  8.00000000E-01
  1.50000000E+00  1.50000000E+00  8.00000000E-01  8.00000000E-01  1.50000000E+00
  1.50000000E+00  8.00000000E-01  8.00000000E-01  1.50000000E+00  1.50000000E+00
  8.00000000E-01  8.00000000E-01  1.50000000E+00  1.50000000E+00  8.00000000E-01
  8.00000000E-01  1.50000000E+00  1.50000000E+00  8.00000000E-01  8.00000000E-01
  1.50000000E+00  1.50000000E+00  8.00000000E-01  8.00000000E-01  1.50000000E+00
  1.50000000E+00  8.00000000E-01  8.00000000E-01  1.50000000E+00  1.50000000E+00
  8.00000000E-01  8.00000000E-01  1.50000000E+00  1.50000000E+00  8.00000000E-01
  8.00000000E-01  1.50000000E+00  1.50000000E+00  8.00000000E-01  8.00000000E-01
  1.50000000E+00  1.50000000E+00  8.00000000E-01  8.00000000E-01  1.50000000E+00
  1.50000000E+00  8.00000000E-01  8.00000000E-01  1.50000000E+00  1.50000000E+00
  8.00000000E-01  8.00000000E-01  1.50000000E+00  1.50000000E+00  8.00000000E-01
  8.00000000E-01  1.50000000E+00  1.50000000E+00  8.00000000E-01  8.00000000E-01
  1.50000000E+00  1.50000000E+00  8.00000000E-01  8.00000000E-01  1.50000000E+00
  1.50000000E+00  8.00000000E-01  8.00000000E-01  1.50000000E+00  1.50000000E+00
  8.00000000E-01  8.00000000E-01  1.50000000E+00  1.50000000E+00  8.00000000E-01
  8.00000000E-01  1.50000000E+00  1.50000000E+00  8.00000000E-01  8.00000000E-01
  1.50000000E+00  1.50000000E+00  8.00000000E-01  8.00000000E-01  1.50000000E+00
  1.50000000E+00  8.00000000E-01  8.00000000E-01  1.50000000E+00  1.50000000E+00
  8.00000000E-01  8.00000000E-01  1.50000000E+00  1.50000000E+00  8.00000000E-01
  8.00000000E-01  1.50000000E+00  1.50000000E+00  8.00000000E-01  8.00000000E-01
  1.50000000E+00  1.50000000E+00  8.00000000E-01  8.00000000E-01  1.50000000E+00
  1.50000000E+00  8.00000000E-01  8.00000000E-01  1.50000000E+00  1.50000000E+00
  8.00000000E-01  8.00000000E-01  1.50000000E+00  1.50000000E+00  8.00000000E-01
  8.00000000E-01  1.50000000E+00  1.50000000E+00  8.00000000E-01  8.00000000E-01
  1.50000000E+00  1.50000000E+00  8.00000000E-01  8.00000000E-01  1.50000000E+00
  1.50000000E+00  8.00000000E-01  8.00000000E-01  1.50000000E+00  1.50000000E+00
  8.00000000E-01  8.00000000E-01  1.50000000E+00  1.50000000E+00  8.00000000E-01
  8.00000000E-01  1.50000000E+00  1.50000000E+00  8.00000000E-01  8.00000000E-01
  1.50000000E+00  1.50000000E+00  8.00000000E-01  8.00000000E-01  1.50000000E+00
  1.50000000E+00  8.00000000E-01  8.00000000E-01  1.50000000E+00  1.50000000E+00
  8.00000000E-01  8.00000000E-01  1.50000000E+00  1.50000000E+00  8.00000000E-01
  8.00000000E-01  1.50000000E+00  1.50000000E+00  8.00000000E-01  8.00000000E-01
  1.50000000E+00  1.50000000E+00  8.00000000E-01  8.00000000E-01  1.50000000E+00
  1.50000000E+00  8.00000000E-01  8.00000000E-01  1.50000000E+00  1.50000000E+00
  8.00000000E-01  8.00000000E-01  1.50000000E+00  1.50000000E+00  8.00000000E-01
  8.00000000E-01  1.50000000E+00  1.50000000E+00  8.00000000E-01  8.00000000E-01
  1.50000000E+00  1.50000000E+00  8.00000000E-01  8.00000000E-01  1.50000000E+00
  1.50000000E+00  8.00000000E-01  8.00000000E-01  1.50000000E+00  1.50000000E+00
  8.00000000E-01  8.00000000E-01  1.50000000E+00  1.50000000E+00  8.00000000E-01
  8.00000000E-01  1.50000000E+00  1.50000000E+00  8.00000000E-01  8.00000000E-01
  1.50000000E+00  1.50000000E+00  8.00000000E-01  8.00000000E-01  1.50000000E+00
  1.50000000E+00  8.00000000E-01  8.00000000E-01  1.50000000E+00  1.50000000E+00
  8.00000000E-01  8.00000000E-01  1.50000000E+00  1.50000000E+00  8.00000000E-01
  8.00000000E-01  1.50000000E+00  1.50000000E+00  8.00000000E-01  8.00000000E-01
  1.50000000E+00  1.50000000E+00  8.00000000E-01  8.00000000E-01  1.50000000E+00
  1.50000000E+00  8.00000000E-01  8.00000000E-01  1.50000000E+00  1.50000000E+00
  8.00000000E-01  8.00000000E-01  1.50000000E+00  1.50000000E+00  8.00000000E-01
  8.00000000E-01  1.50000000E+00  1.50000000E+00  8.00000000E-01  8.00000000E-01
  1.50000000E+00  1.50000000E+00  8.00000000E-01  8.00000000E-01  1.50000000E+00
  1.50000000E+00  8.00000000E-01  8.00000000E-01  1.50000000E+00  1.50000000E+00
  8.00000000E-01  8.00000000E-01  1.50000000E+00  1.50000000E+00  8.00000000E-01
  8.00000000E-01  1.50000000E+00  1.50000000E+00  8.00000000E-01  8.00000000E-01
  1.50000000E+00  1.50000000E+00  8.00000000E-01  8.00000000E-01  1.50000000E+00
  1.50000000E+00  8.00000000E-01  8.00000000E-01  1.50000000E+00  1.50000000E+00
  8.00000000E-01  8.00000000E-01  1.50000000E+00  1.50000000E+00  8.00000000E-01
  8.00000000E-01  1.50000000E+00  1.50000000E+00  8.00000000E-01  8.00000000E-01
  1.50000000E+00  1.50000000E+00  8.00000000E-01  8.00000000E-01  1.50000000E+00
  1.50000000E+00  8.00000000E-01  8.00000000E-01  1.50000000E+00  1.50000000E+00
  8.00000000E-01  8.00000000E-01  1.50000000E+00  1.50000000E+00  8.00000000E-01
  8.00000000E-01  1.50000000E+00  1.50000000E+00  8.00000000E-01  8.00000000E-01
  1.50000000E+00  1.50000000E+00  8.00000000E-01  8.00000000E-01  1.50000000E+00
  1.50000000E+00  8.00000000E-01  8.00000000E-01  1.50000000E+00  1.50000000E+00
  8.00000000E-01  8.00000000E-01  1.50000000E+00  1.50000000E+00  8.00000000E-01
  8.00000000E-01  1.50000000E+00  1.50000000E+00  8.00000000E-01  8.00000000E-01
  1.50000000E+00  1.50000000E+00  8.00000000E-01  8.00000000E-01  1.50000000E+00
  1.50000000E+00  8.00000000E-01  8.00000000E-01  1.50000000E+00  1.50000000E+00
  8.00000000E-01  8.00000000E-01  1.50000000E+00  1.50000000E+00  8.00000000E-01
  8.00000000E-01  1.50000000E+00  1.50000000E+00  8.00000000E-01  8.00000000E-01
  1.50000000E+00  1.50000000E+00  8.00000000E-01  8.00000000E-01  1.50000000E+00
  1.50000000E+00  8.00000000E-01  8.00000000E-01  1.50000000E+00  1.50000000E+00
  8.00000000E-01  8.00000000E-01  1.50000000E+00  1.50000000E+00  8.00000000E-01
  8.00000000E-01  1.50000000E+00  1.50000000E+00  8.00000000E-01  8.00000000E-01
  1.50000000E+00  1.50000000E+00  8.00000000E-01  8.00000000E-01  1.50000000E+00
  1.50000000E+00  8.00000000E-01  8.00000000E-01  1.50000000E+00  1.50000000E+00
  8.00000000E-01  8.00000000E-01  1.50000000E+00  1.50000000E+00  8.00000000E-01
  8.00000000E-01  1.50000000E+00  1.50000000E+00  8.00000000E-01  8.00000000E-01
  1.50000000E+00  1.50000000E+00  8.00000000E-01  8.00000000E-01  1.50000000E+00
  1.50000000E+00  8.00000000E-01  8.00000000E-01  1.50000000E+00  1.50000000E+00
  8.00000000E-01  8.00000000E-01  1.50000000E+00  1.50000000E+00  8.00000000E-01
  8.00000000E-01  1.50000000E+00  1.50000000E+00  8.00000000E-01  8.00000000E-01
  1.50000000E+00  1.50000000E+00  8.00000000E-01  8.00000000E-01  1.50000000E+00
  1.50000000E+00  8.00000000E-01  8.00000000E-01  1.50000000E+00  1.50000000E+00
  8.00000000E-01  8.00000000E-01  1.50000000E+00  1.50000000E+00  8.00000000E-01
  8.00000000E-01  1.50000000E+00  1.50000000E+00  8.00000000E-01  8.00000000E-01
  1.50000000E+00  1.50000000E+00  8.00000000E-01  8.00000000E-01  1.50000000E+00
  1.50000000E+00  8.00000000E-01  8.00000000E-01  1.50000000E+00  1.50000000E+00
  8.00000000E-01  8.00000000E-01  1.50000000E+00  1.50000000E+00  8.00000000E-01
  8.00000000E-01  1.50000000E+00  1.50000000E+00  8.00000000E-01  8.00000000E-01
  1.50000000E+00  1.50000000E+00  8.00000000E-01  8.00000000E-01  1.50000000E+00
  1.50000000E+00  8.00000000E-01  8.00000000E-01  1.50000000E+00  1.50000000E+00
  8.00000000E-01  8.00000000E-01  1.50000000E+00  1.50000000E+00  8.00000000E-01
  8.00000000E-01  1.50000000E+00  1.50000000E+00  8.00000000E-01  8.00000000E-01
  1.50000000E+00  1.50000000E+00  8.00000000E-01  8.00000000E-01  1.50000000E+00
  1.50000000E+00  8.00000000E-01  8.00000000E-01  1.50000000E+00  1.50000000E+00
  8.00000000E-01  8.00000000E-01  1.50000000E+00  1.50000000E+00  8.00000000E-01
  8.00000000E-01  1.50000000E+00  1.50000000E+00  8.00000000E-01  8.00000000E-01
  1.50000000E+00  1.50000000E+00  8.00000000E-01  8.00000000E-01  1.50000000E+00
  1.50000000E+00  8.00000000E-01  8.00000000E-01  1.50000000E+00  1.50000000E+00
  8.00000000E-01  8.00000000E-01  1.50000000E+00  1.50000000E+00  8.00000000E-01
  8.00000000E-01  1.50000000E+00  1.50000000E+00  8.00000000E-01  8.00000000E-01
  1.50000000E+00  1.50000000E+00  8.00000000E-01  8.00000000E-01  1.50000000E+00
  1.50000000E+00  8.00000000E-01  8.00000000E-01  1.50000000E+00  1.50000000E+00
  8.00000000E-01  8.00000000E-01  1.50000000E+00  1.50000000E+00  8.00000000E-01
  8.00000000E-01  1.50000000E+00  1.50000000E+00  8.00000000E-01  8.00000000E-01
  1.50000000E+00  1.50000000E+00  8.00000000E-01  8.00000000E-01  1.50000000E+00
  1.50000000E+00  8.00000000E-01  8.00000000E-01  1.50000000E+00  1.50000000E+00
  8.00000000E-01  8.00000000E-01  1.50000000E+00  1.50000000E+00  8.00000000E-01
  8.00000000E-01  1.50000000E+00  1.50000000E+00  8.00000000E-01  8.00000000E-01
  1.50000000E+00  1.50000000E+00  8.00000000E-01  8.00000000E-01  1.50000000E+00
  1.50000000E+00  8.00000000E-01  8.00000000E-01  1.50000000E+00  1.50000000E+00
  8.00000000E-01  8.00000000E-01  1.50000000E+00  1.50000000E+00  8.00000000E-01
  8.00000000E-01  1.50000000E+00  1.50000000E+00  8.00000000E-01  8.00000000E-01
  1.50000000E+00  1.50000000E+00  8.00000000E-01  8.00000000E-01  1.50000000E+00
  1.50000000E+00  8.00000000E-01  8.00000000E-01  1.50000000E+00  1.50000000E+00
  8.00000000E-01  8.00000000E-01  1.50000000E+00  1.50000000E+00  8.00000000E-01
  8.00000000E-01  1.50000000E+00  1.50000000E+00  8.00000000E-01  8.00000000E-01
  1.50000000E+00  1.50000000E+00  8.00000000E-01  8.00000000E-01  1.50000000E+00
  1.50000000E+00  8.00000000E-01  8.00000000E-01  1.50000000E+00  1.50000000E+00
  8.00000000E-01  8.00000000E-01  1.50000000E+00  1.50000000E+00  8.00000000E-01
  8.00000000E-01  1.50000000E+00  1.50000000E+00  8.00000000E-01  8.00000000E-01
  1.50000000E+00  1.50000000E+00  8.00000000E-01  8.00000000E-01  1.50000000E+00
  1.50000000E+00  8.00000000E-01  8.00000000E-01  1.50000000E+00  1.50000000E+00
  8.00000000E-01  8.00000000E-01  1.50000000E+00  1.50000000E+00  8.00000000E-01
  8.00000000E-01  1.50000000E+00  1.50000000E+00  8.00000000E-01  8.00000000E-01
  1.50000000E+00  1.50000000E+00  8.00000000E-01  8.00000000E-01  1.50000000E+00
  1.50000000E+00  8.00000000E-01  8.00000000E-01  1.50000000E+00  1.50000000E+00
  8.00000000E-01  8.00000000E-01  1.50000000E+00  1.50000000E+00  8.00000000E-01
  8.00000000E-01  1.50000000E+00  1.50000000E+00  8.00000000E-01  8.00000000E-01
  1.50000000E+00  1.50000000E+00  8.00000000E-01  8.00000000E-01  1.50000000E+00
  1.50000000E+00  8.00000000E-01  8.00000000E-01  1.50000000E+00  1.50000000E+00
  8.00000000E-01  8.00000000E-01  1.50000000E+00  1.50000000E+00  8.00000000E-01
  8.00000000E-01  1.50000000E+00  1.50000000E+00  8.00000000E-01  8.00000000E-01
  1.50000000E+00  1.50000000E+00  8.00000000E-01  8.00000000E-01  1.50000000E+00
  1.50000000E+00  8.00000000E-01  8.00000000E-01  1.50000000E+00  1.50000000E+00
  8.00000000E-01  8.00000000E-01  1.50000000E+00  1.50000000E+00  8.00000000E-01
  8.00000000E-01  1.50000000E+00  1.50000000E+00  8.00000000E-01  8.00000000E-01
  1.50000000E+00  1.50000000E+00  8.00000000E-01  8.00000000E-01  1.50000000E+00
  1.50000000E+00  8.00000000E-01  8.00000000E-01  1.50000000E+00  1.50000000E+00
  8.00000000E-01  8.00000000E-01  1.50000000E+00  1.50000000E+00  8.00000000E-01
  8.00000000E-01  1.50000000E+00  1.50000000E+00  8.00000000E-01  8.00000000E-01
  1.50000000E+00  1.50000000E+00  8.00000000E-01  8.00000000E-01  1.50000000E+00
  1.50000000E+00  8.00000000E-01  8.00000000E-01  1.50000000E+00  1.50000000E+00
  8.00000000E-01  8.00000000E-01  1.50000000E+00  1.50000000E+00  8.00000000E-01
  8.00000000E-01  1.50000000E+00  1.50000000E+00  8.00000000E-01  8.00000000E-01
  1.50000000E+00  1.50000000E+00  8.00000000E-01  8.00000000E-01  1.50000000E+00
  1.50000000E+00  8.00000000E-01  8.00000000E-01  1.50000000E+00  1.50000000E+00
  8.00000000E-01  8.00000000E-01  1.50000000E+00  1.50000000E+00  8.00000000E-01
  8.00000000E-01  1.50000000E+00  1.50000000E+00  8.00000000E-01  8.00000000E-01
  1.50000000E+00  1.50000000E+00  8.00000000E-01  8.00000000E-01  1.50000000E+00
  1.50000000E+00  8.00000000E-01  8.00000000E-01  1.50000000E+00  1.50000000E+00
  8.00000000E-01  8.00000000E-01  1.50000000E+00  1.50000000E+00  8.00000000E-01
  8.00000000E-01  1.50000000E+00  1.50000000E+00  8.00000000E-01  8.00000000E-01
  1.50000000E+00  1.50000000E+00  8.00000000E-01  8.00000000E-01  1.50000000E+00
  1.50000000E+00  8.00000000E-01  8.00000000E-01  1.50000000E+00  1.50000000E+00
  8.00000000E-01  8.00000000E-01  1.50000000E+00  1.50000000E+00  8.00000000E-01
  8.00000000E-01  1.50000000E+00  1.50000000E+00  8.00000000E-01  8.00000000E-01
  1.50000000E+00  1.50000000E+00  8.00000000E-01  8.00000000E-01  1.50000000E+00
  1.50000000E+00  8.00000000E-01  8.00000000E-01  1.50000000E+00  1.50000000E+00
  8.00000000E-01  8.00000000E-01  1.50000000E+00  1.50000000E+00  8.00000000E-01
  8.00000000E-01  1.50000000E+00  1.50000000E+00  8.00000000E-01  8.00000000E-01
  1.50000000E+00  1.50000000E+00  8.00000000E-01  8.00000000E-01  1.50000000E+00
  1.50000000E+00  8.00000000E-01  8.00000000E-01  1.50000000E+00  1.50000000E+00
  8.00000000E-01  8.00000000E-01  1.50000000E+00  1.50000000E+00  8.00000000E-01
  8.00000000E-01  1.50000000E+00  1.50000000E+00  8.00000000E-01  8.00000000E-01
  1.50000000E+00  1.50000000E+00  8.00000000E-01  8.00000000E-01  1.50000000E+00
  1.50000000E+00  8.00000000E-01  8.00000000E-01  1.50000000E+00  1.50000000E+00
  8.00000000E-01  8.00000000E-01  1.50000000E+00  1.50000000E+00  8.00000000E-01
  8.00000000E-01  1.50000000E+00  1.50000000E+00  8.00000000E-01  8.00000000E-01
  1.50000000E+00  1.50000000E+00  8.00000000E-01  8.00000000E-01  1.50000000E+00
  1.50000000E+00  8.00000000E-01  8.00000000E-01  1.50000000E+00  1.50000000E+00
  8.00000000E-01  8.00000000E-01  1.50000000E+00  1.50000000E+00  8.00000000E-01
  8.00000000E-01  1.50000000E+00  1.50000000E+00  8.00000000E-01  8.00000000E-01
  1.50000000E+00  1.50000000E+00  8.00000000E-01  8.00000000E-01  1.50000000E+00
  1.50000000E+00  8.00000000E-01  8.00000000E-01  1.50000000E+00  1.50000000E+00
  8.00000000E-01  8.00000000E-01  1.50000000E+00  1.50000000E+00  8.00000000E-01
  8.00000000E-01  1.50000000E+00  1.50000000E+00  8.00000000E-01  8.00000000E-01
  1.50000000E+00  1.50000000E+00  8.00000000E-01  8.00000000E-01  1.50000000E+00
  1.50000000E+00  8.00000000E-01  8.00000000E-01  1.50000000E+00  1.50000000E+00
  8.00000000E-01  8.00000000E-01  1.50000000E+00  1.50000000E+00  8.00000000E-01
  8.00000000E-01  1.50000000E+00  1.50000000E+00  8.00000000E-01  8.00000000E-01
  1.50000000E+00  1.50000000E+00  8.00000000E-01  8.00000000E-01  1.50000000E+00
  1.50000000E+00  8.00000000E-01  8.00000000E-01  1.50000000E+00  1.50000000E+00
  8.00000000E-01  8.00000000E-01  1.50000000E+00  1.50000000E+00  8.00000000E-01
  8.00000000E-01  1.50000000E+00  1.50000000E+00  8.00000000E-01  8.00000000E-01
  1.50000000E+00  1.50000000E+00  8.00000000E-01  8.00000000E-01  1.50000000E+00
  1.50000000E+00  8.00000000E-01  8.00000000E-01  1.50000000E+00  1.50000000E+00
  8.00000000E-01  8.00000000E-01  1.50000000E+00  1.50000000E+00  8.00000000E-01
  8.00000000E-01  1.50000000E+00  1.50000000E+00  8.00000000E-01  8.00000000E-01
  1.50000000E+00  1.50000000E+00  8.00000000E-01  8.00000000E-01  1.50000000E+00
  1.50000000E+00  8.00000000E-01  8.00000000E-01  1.50000000E+00  1.50000000E+00
  8.00000000E-01  8.00000000E-01  1.50000000E+00  1.50000000E+00  8.00000000E-01
  8.00000000E-01  1.50000000E+00  1.50000000E+00  8.00000000E-01  8.00000000E-01
  1.50000000E+00  1.50000000E+00  8.00000000E-01  8.00000000E-01  1.50000000E+00
  1.50000000E+00  8.00000000E-01  8.00000000E-01  1.50000000E+00  1.50000000E+00
  8.00000000E-01  8.00000000E-01  1.50000000E+00  1.50000000E+00  8.00000000E-01
  8.00000000E-01  1.50000000E+00  1.50000000E+00  8.00000000E-01  8.00000000E-01
  1.50000000E+00  1.50000000E+00  8.00000000E-01  8.00000000E-01  1.50000000E+00
  1.50000000E+00  8.00000000E-01  8.00000000E-01  1.50000000E+00  1.50000000E+00
  8.00000000E-01  8.00000000E-01  1.50000000E+00  1.50000000E+00  8.00000000E-01
  8.00000000E-01  1.50000000E+00  1.50000000E+00  8.00000000E-01  8.00000000E-01
  1.50000000E+00  1.50000000E+00  8.00000000E-01  8.00000000E-01  1.50000000E+00
  1.50000000E+00  8.00000000E-01  8.00000000E-01  1.50000000E+00  1.50000000E+00
  8.00000000E-01  8.00000000E-01  1.50000000E+00  1.50000000E+00  8.00000000E-01
  8.00000000E-01  1.50000000E+00  1.50000000E+00  8.00000000E-01  8.00000000E-01
  1.50000000E+00  1.50000000E+00  8.00000000E-01  8.00000000E-01  1.50000000E+00
  1.50000000E+00  8.00000000E-01  8.00000000E-01  1.50000000E+00  1.50000000E+00
  8.00000000E-01  8.00000000E-01  1.50000000E+00  1.50000000E+00  8.00000000E-01
  8.00000000E-01  1.50000000E+00  1.50000000E+00  8.00000000E-01  8.00000000E-01
  1.50000000E+00  1.50000000E+00  8.00000000E-01  8.00000000E-01  1.50000000E+00
  1.50000000E+00  8.00000000E-01  8.00000000E-01  1.50000000E+00  1.50000000E+00
  8.00000000E-01  8.00000000E-01  1.50000000E+00  1.50000000E+00  8.00000000E-01
  8.00000000E-01  1.50000000E+00  1.50000000E+00  8.00000000E-01  8.00000000E-01
  1.50000000E+00  1.50000000E+00  8.00000000E-01  8.00000000E-01  1.50000000E+00
  1.50000000E+00  8.00000000E-01  8.00000000E-01  1.50000000E+00  1.50000000E+00
  8.00000000E-01  8.00000000E-01  1.50000000E+00  1.50000000E+00  8.00000000E-01
  8.00000000E-01  1.50000000E+00  1.50000000E+00  8.00000000E-01  8.00000000E-01
  1.50000000E+00  1.50000000E+00  8.00000000E-01  8.00000000E-01  1.50000000E+00
  1.50000000E+00  8.00000000E-01  8.00000000E-01  1.50000000E+00  1.50000000E+00
  8.00000000E-01  8.00000000E-01  1.50000000E+00  1.50000000E+00  8.00000000E-01
  8.00000000E-01  1.50000000E+00  1.50000000E+00  8.00000000E-01  8.00000000E-01
  1.50000000E+00  1.50000000E+00  8.00000000E-01  8.00000000E-01  1.50000000E+00
  1.50000000E+00  8.00000000E-01  8.00000000E-01  1.50000000E+00  1.50000000E+00
  8.00000000E-01  8.00000000E-01  1.50000000E+00  1.50000000E+00  8.00000000E-01
  8.00000000E-01  1.50000000E+00  1.50000000E+00  8.00000000E-01  8.00000000E-01
  1.50000000E+00  1.50000000E+00  8.00000000E-01  8.00000000E-01  1.50000000E+00
  1.50000000E+00  8.00000000E-01  8.00000000E-01  1.50000000E+00  1.50000000E+00
  8.00000000E-01  8.00000000E-01  1.50000000E+00  1.50000000E+00  8.00000000E-01
  8.00000000E-01  1.50000000E+00  1.50000000E+00  8.00000000E-01  8.00000000E-01
  1.50000000E+00  1.50000000E+00  8.00000000E-01  8.00000000E-01  1.50000000E+00
  1.50000000E+00  8.00000000E-01  8.00000000E-01  1.50000000E+00  1.50000000E+00
  8.00000000E-01  8.00000000E-01  1.50000000E+00  1.50000000E+00  8.00000000E-01
  8.00000000E-01  1.50000000E+00  1.50000000E+00  8.00000000E-01  8.00000000E-01
  1.50000000E+00  1.50000000E+00  8.00000000E-01  8.00000000E-01  1.50000000E+00
  1.50000000E+00  8.00000000E-01  8.00000000E-01  1.50000000E+00  1.50000000E+00
  8.00000000E-01  8.00000000E-01  1.50000000E+00  1.50000000E+00  8.00000000E-01
  8.00000000E-01  1.50000000E+00  1.50000000E+00  8.00000000E-01  8.00000000E-01
  1.50000000E+00  1.50000000E+00  8.00000000E-01  8.00000000E-01  1.50000000E+00
  1.50000000E+00  8.00000000E-01  8.00000000E-01  1.50000000E+00  1.50000000E+00
  8.00000000E-01  8.00000000E-01  1.50000000E+00  1.50000000E+00  8.00000000E-01
  8.00000000E-01  1.50000000E+00  1.50000000E+00  8.00000000E-01  8.00000000E-01
  1.50000000E+00  1.50000000E+00  8.00000000E-01  8.00000000E-01  1.50000000E+00
  1.50000000E+00  8.00000000E-01  8.00000000E-01  1.50000000E+00  1.50000000E+00
  8.00000000E-01  8.00000000E-01  1.50000000E+00  1.50000000E+00  8.00000000E-01
  8.00000000E-01  1.50000000E+00  1.50000000E+00  8.00000000E-01  8.00000000E-01
  1.50000000E+00  1.50000000E+00  8.00000000E-01  8.00000000E-01  1.50000000E+00
  1.50000000E+00  8.00000000E-01  8.00000000E-01  1.50000000E+00  1.50000000E+00
  8.00000000E-01  8.00000000E-01  1.50000000E+00  1.50000000E+00  8.00000000E-01
  8.00000000E-01  1.50000000E+00  1.50000000E+00  8.00000000E-01  8.00000000E-01
  1.50000000E+00  1.50000000E+00  8.00000000E-01  8.00000000E-01  1.50000000E+00
  1.50000000E+00  8.00000000E-01  8.00000000E-01  1.50000000E+00  1.50000000E+00
  8.00000000E-01  8.00000000E-01  1.50000000E+00  1.50000000E+00  8.00000000E-01
  8.00000000E-01  1.50000000E+00  1.50000000E+00  8.00000000E-01  8.00000000E-01
  1.50000000E+00  1.50000000E+00  8.00000000E-01  8.00000000E-01  1.50000000E+00
  1.50000000E+00  8.00000000E-01  8.00000000E-01  1.50000000E+00  1.50000000E+00
  8.00000000E-01  8.00000000E-01  1.50000000E+00  1.50000000E+00  8.00000000E-01
  8.00000000E-01  1.50000000E+00  1.50000000E+00  8.00000000E-01  8.00000000E-01
  1.50000000E+00  1.50000000E+00  8.00000000E-01  8.00000000E-01  1.50000000E+00
  1.50000000E+00  8.00000000E-01  8.00000000E-01  1.50000000E+00  1.50000000E+00
  8.00000000E-01  8.00000000E-01  1.50000000E+00  1.50000000E+00  8.00000000E-01
  8.00000000E-01  1.50000000E+00  1.50000000E+00  8.00000000E-01  8.00000000E-01
  1.50000000E+00  1.50000000E+00  8.00000000E-01  8.00000000E-01  1.50000000E+00
  1.50000000E+00  8.00000000E-01  8.00000000E-01  1.50000000E+00  1.50000000E+00
  8.00000000E-01  8.00000000E-01  1.50000000E+00  1.50000000E+00  8.00000000E-01
  8.00000000E-01  1.50000000E+00  1.50000000E+00  8.00000000E-01  8.00000000E-01
  1.50000000E+00  1.50000000E+00  8.00000000E-01  8.00000000E-01  1.50000000E+00
  1.50000000E+00  8.00000000E-01  8.00000000E-01  1.50000000E+00  1.50000000E+00
  8.00000000E-01  8.00000000E-01  1.50000000E+00  1.50000000E+00  8.00000000E-01
  8.00000000E-01  1.50000000E+00  1.50000000E+00  8.00000000E-01  8.00000000E-01
  1.50000000E+00  1.50000000E+00  8.00000000E-01  8.00000000E-01  1.50000000E+00
  1.50000000E+00  8.00000000E-01  8.00000000E-01  1.50000000E+00  1.50000000E+00
  8.00000000E-01  8.00000000E-01  1.50000000E+00  1.50000000E+00  8.00000000E-01
  8.00000000E-01  1.50000000E+00  1.50000000E+00  8.00000000E-01  8.00000000E-01
  1.50000000E+00  1.50000000E+00  8.00000000E-01  8.00000000E-01  1.50000000E+00
  1.50000000E+00  8.00000000E-01  8.00000000E-01  1.50000000E+00  1.50000000E+00
  8.00000000E-01  8.00000000E-01  1.50000000E+00  1.50000000E+00  8.00000000E-01
  8.00000000E-01  1.50000000E+00  1.50000000E+00  8.00000000E-01  8.00000000E-01
  1.50000000E+00  1.50000000E+00  8.00000000E-01  8.00000000E-01  1.50000000E+00
  1.50000000E+00  8.00000000E-01  8.00000000E-01  1.50000000E+00  1.50000000E+00
  8.00000000E-01  8.00000000E-01  1.50000000E+00  1.50000000E+00  8.00000000E-01
  8.00000000E-01  1.50000000E+00  1.50000000E+00  8.00000000E-01  8.00000000E-01
  1.50000000E+00  1.50000000E+00  8.00000000E-01  8.00000000E-01  1.50000000E+00
  1.50000000E+00  8.00000000E-01  8.00000000E-01  1.50000000E+00  1.50000000E+00
  8.00000000E-01  8.00000000E-01  1.50000000E+00  1.50000000E+00  8.00000000E-01
  8.00000000E-01  1.50000000E+00  1.50000000E+00  8.00000000E-01  8.00000000E-01
  1.50000000E+00  1.50000000E+00  8.00000000E-01  8.00000000E-01  1.50000000E+00
  1.50000000E+00  8.00000000E-01  8.00000000E-01  1.50000000E+00  1.50000000E+00
  8.00000000E-01  8.00000000E-01  1.50000000E+00  1.50000000E+00  8.00000000E-01
  8.00000000E-01  1.50000000E+00  1.50000000E+00  8.00000000E-01  8.00000000E-01
  1.50000000E+00  1.50000000E+00  8.00000000E-01  8.00000000E-01  1.50000000E+00
  1.50000000E+00  8.00000000E-01  8.00000000E-01  1.50000000E+00  1.50000000E+00
  8.00000000E-01  8.00000000E-01  1.50000000E+00  1.50000000E+00  8.00000000E-01
  8.00000000E-01  1.50000000E+00  1.50000000E+00  8.00000000E-01  8.00000000E-01
  1.50000000E+00  1.50000000E+00  8.00000000E-01  8.00000000E-01  1.50000000E+00
  1.50000000E+00  8.00000000E-01  8.00000000E-01  1.50000000E+00  1.50000000E+00
  8.00000000E-01  8.00000000E-01  1.50000000E+00  1.50000000E+00  8.00000000E-01
  8.00000000E-01  1.50000000E+00  1.50000000E+00  8.00000000E-01  8.00000000E-01
  1.50000000E+00  1.50000000E+00  8.00000000E-01  8.00000000E-01  1.50000000E+00
  1.50000000E+00  8.00000000E-01  8.00000000E-01  1.50000000E+00  1.50000000E+00
  8.00000000E-01  8.00000000E-01  1.50000000E+00  1.50000000E+00  8.00000000E-01
  8.00000000E-01  1.50000000E+00  1.50000000E+00  8.00000000E-01  8.00000000E-01
  1.50000000E+00  1.50000000E+00  8.00000000E-01  8.00000000E-01  1.50000000E+00
  1.50000000E+00  8.00000000E-01  8.00000000E-01  1.50000000E+00  1.50000000E+00
  8.00000000E-01  8.00000000E-01  1.50000000E+00  1.50000000E+00  8.00000000E-01
  8.00000000E-01  1.50000000E+00  1.50000000E+00  8.00000000E-01  8.00000000E-01
  1.50000000E+00  1.50000000E+00  8.00000000E-01  8.00000000E-01  1.50000000E+00
  1.50000000E+00  8.00000000E-01  8.00000000E-01  1.50000000E+00  1.50000000E+00
  8.00000000E-01  8.00000000E-01  1.50000000E+00  1.50000000E+00  8.00000000E-01
  8.00000000E-01  1.50000000E+00  1.50000000E+00  8.00000000E-01  8.00000000E-01
  1.50000000E+00  1.50000000E+00  8.00000000E-01  8.00000000E-01  1.50000000E+00
  1.50000000E+00  8.00000000E-01  8.00000000E-01  1.50000000E+00  1.50000000E+00
  8.00000000E-01  8.00000000E-01  1.50000000E+00  1.50000000E+00  8.00000000E-01
  8.00000000E-01  1.50000000E+00  1.50000000E+00  8.00000000E-01  8.00000000E-01
  1.50000000E+00  1.50000000E+00  8.00000000E-01  8.00000000E-01  1.50000000E+00
  1.50000000E+00  8.00000000E-01  8.00000000E-01  1.50000000E+00  1.50000000E+00
  8.00000000E-01  8.00000000E-01  1.50000000E+00  1.50000000E+00  8.00000000E-01
  8.00000000E-01  1.50000000E+00  1.50000000E+00  8.00000000E-01  8.00000000E-01
  1.50000000E+00  1.50000000E+00  8.00000000E-01  8.00000000E-01  1.50000000E+00
  1.50000000E+00  8.00000000E-01  8.00000000E-01  1.50000000E+00  1.50000000E+00
  8.00000000E-01  8.00000000E-01  1.50000000E+00  1.50000000E+00  8.00000000E-01
  8.00000000E-01  1.50000000E+00  1.50000000E+00  8.00000000E-01  8.00000000E-01
  1.50000000E+00  1.50000000E+00  8.00000000E-01  8.00000000E-01  1.50000000E+00
  1.50000000E+00  8.00000000E-01  8.00000000E-01  1.50000000E+00  1.50000000E+00
  8.00000000E-01  8.00000000E-01  1.50000000E+00  1.50000000E+00  8.00000000E-01
  8.00000000E-01  1.50000000E+00  1.50000000E+00  8.00000000E-01  8.00000000E-01
  1.50000000E+00  1.50000000E+00  8.00000000E-01  8.00000000E-01  1.50000000E+00
  1.50000000E+00  8.00000000E-01  8.00000000E-01  1.50000000E+00  1.50000000E+00
  8.00000000E-01  8.00000000E-01  1.50000000E+00  1.50000000E+00  8.00000000E-01
  8.00000000E-01  1.50000000E+00  1.50000000E+00  8.00000000E-01  8.00000000E-01
  1.50000000E+00  1.50000000E+00  8.00000000E-01  8.00000000E-01  1.50000000E+00
  1.50000000E+00  8.00000000E-01  8.00000000E-01  1.50000000E+00  1.50000000E+00
  8.00000000E-01  8.00000000E-01  1.50000000E+00  1.50000000E+00  8.00000000E-01
  8.00000000E-01  1.50000000E+00  1.50000000E+00  8.00000000E-01  8.00000000E-01
  1.50000000E+00  1.50000000E+00  8.00000000E-01  8.00000000E-01  1.50000000E+00
  1.50000000E+00  8.00000000E-01  8.00000000E-01  1.50000000E+00  1.50000000E+00
  8.00000000E-01  8.00000000E-01  1.50000000E+00  1.50000000E+00  8.00000000E-01
  8.00000000E-01  1.50000000E+00  1.50000000E+00  8.00000000E-01  8.00000000E-01
  1.50000000E+00  1.50000000E+00  8.00000000E-01  8.00000000E-01  1.50000000E+00
  1.50000000E+00  8.00000000E-01  8.00000000E-01  1.50000000E+00  1.50000000E+00
  8.00000000E-01  8.00000000E-01  1.50000000E+00  1.50000000E+00  8.00000000E-01
  8.00000000E-01  1.50000000E+00  1.50000000E+00  8.00000000E-01  8.00000000E-01
  1.50000000E+00  1.50000000E+00  8.00000000E-01  8.00000000E-01  1.50000000E+00
  1.50000000E+00  8.00000000E-01  8.00000000E-01  1.50000000E+00  1.50000000E+00
  8.00000000E-01  8.00000000E-01  1.50000000E+00  1.50000000E+00  8.00000000E-01
  8.00000000E-01  1.50000000E+00  1.50000000E+00  8.00000000E-01  8.00000000E-01
  1.50000000E+00  1.50000000E+00  8.00000000E-01  8.00000000E-01  1.50000000E+00
  1.50000000E+00  8.00000000E-01  8.00000000E-01  1.50000000E+00  1.50000000E+00
  8.00000000E-01  8.00000000E-01  1.50000000E+00  1.50000000E+00  8.00000000E-01
  8.00000000E-01  1.50000000E+00  1.50000000E+00  8.00000000E-01  8.00000000E-01
  1.50000000E+00  1.50000000E+00  8.00000000E-01  8.00000000E-01  1.50000000E+00
  1.50000000E+00  8.00000000E-01  8.00000000E-01  1.50000000E+00  1.50000000E+00
  8.00000000E-01  8.00000000E-01  1.50000000E+00  1.50000000E+00  8.00000000E-01
  8.00000000E-01  1.50000000E+00  1.50000000E+00  8.00000000E-01  8.00000000E-01
  1.50000000E+00  1.50000000E+00  8.00000000E-01  8.00000000E-01  1.50000000E+00
  1.50000000E+00  8.00000000E-01  8.00000000E-01  1.50000000E+00  1.50000000E+00
  8.00000000E-01  8.00000000E-01  1.50000000E+00  1.50000000E+00  8.00000000E-01
  8.00000000E-01  1.50000000E+00  1.50000000E+00  8.00000000E-01  8.00000000E-01
  1.50000000E+00  1.50000000E+00  8.00000000E-01  8.00000000E-01  1.50000000E+00
  1.50000000E+00  8.00000000E-01  8.00000000E-01  1.50000000E+00  1.50000000E+00
  8.00000000E-01  8.00000000E-01  1.50000000E+00  1.50000000E+00  8.00000000E-01
  8.00000000E-01  1.50000000E+00  1.50000000E+00  8.00000000E-01  8.00000000E-01
  1.50000000E+00  1.50000000E+00  8.00000000E-01  8.00000000E-01  1.50000000E+00
  1.50000000E+00  8.00000000E-01  8.00000000E-01  1.50000000E+00  1.50000000E+00
  8.00000000E-01  8.00000000E-01  1.50000000E+00  1.50000000E+00  8.00000000E-01
  8.00000000E-01  1.50000000E+00  1.50000000E+00  8.00000000E-01  8.00000000E-01
  1.50000000E+00  1.50000000E+00  8.00000000E-01  8.00000000E-01  1.50000000E+00
  1.50000000E+00  8.00000000E-01  8.00000000E-01  1.50000000E+00  1.50000000E+00
  8.00000000E-01  8.00000000E-01  1.50000000E+00  1.50000000E+00  8.00000000E-01
  8.00000000E-01  1.50000000E+00  1.50000000E+00  8.00000000E-01  8.00000000E-01
  1.50000000E+00  1.50000000E+00  8.00000000E-01  8.00000000E-01  1.50000000E+00
  1.50000000E+00  8.00000000E-01  8.00000000E-01  1.50000000E+00  1.50000000E+00
  8.00000000E-01  8.00000000E-01  1.50000000E+00  1.50000000E+00  8.00000000E-01
  8.00000000E-01  1.50000000E+00  1.50000000E+00  8.00000000E-01  8.00000000E-01
  1.50000000E+00  1.50000000E+00  8.00000000E-01  8.00000000E-01  1.50000000E+00
  1.50000000E+00  8.00000000E-01  8.00000000E-01  1.50000000E+00  1.50000000E+00
  8.00000000E-01  8.00000000E-01  1.50000000E+00  1.50000000E+00  8.00000000E-01
  8.00000000E-01  1.50000000E+00  1.50000000E+00  8.00000000E-01  8.00000000E-01
  1.50000000E+00  1.50000000E+00  8.00000000E-01  8.00000000E-01  1.50000000E+00
  1.50000000E+00  8.00000000E-01  8.00000000E-01  1.50000000E+00  1.50000000E+00
  8.00000000E-01  8.00000000E-01  1.50000000E+00  1.50000000E+00  8.00000000E-01
  8.00000000E-01  1.50000000E+00  1.50000000E+00  8.00000000E-01  8.00000000E-01
  1.50000000E+00  1.50000000E+00  8.00000000E-01  8.00000000E-01  1.50000000E+00
  1.50000000E+00  8.00000000E-01  8.00000000E-01  1.50000000E+00  1.50000000E+00
  8.00000000E-01  8.00000000E-01  1.50000000E+00  1.50000000E+00  8.00000000E-01
  8.00000000E-01  1.50000000E+00  1.50000000E+00  8.00000000E-01  8.00000000E-01
  1.50000000E+00  1.50000000E+00  8.00000000E-01  8.00000000E-01  1.50000000E+00
  1.50000000E+00  8.00000000E-01  8.00000000E-01  1.50000000E+00  1.50000000E+00
  8.00000000E-01  8.00000000E-01  1.50000000E+00  1.50000000E+00  8.00000000E-01
  8.00000000E-01  1.50000000E+00  1.50000000E+00  8.00000000E-01  8.00000000E-01
  1.50000000E+00  1.50000000E+00  8.00000000E-01  8.00000000E-01  1.50000000E+00
  1.50000000E+00  8.00000000E-01  8.00000000E-01  1.50000000E+00  1.50000000E+00
  8.00000000E-01  8.00000000E-01  1.50000000E+00  1.50000000E+00  8.00000000E-01
  8.00000000E-01  1.50000000E+00  1.50000000E+00  8.00000000E-01  8.00000000E-01
  1.50000000E+00  1.50000000E+00  8.00000000E-01  8.00000000E-01  1.50000000E+00
  1.50000000E+00  8.00000000E-01  8.00000000E-01  1.50000000E+00  1.50000000E+00
  8.00000000E-01  8.00000000E-01  1.50000000E+00  1.50000000E+00  8.00000000E-01
  8.00000000E-01  1.50000000E+00  1.50000000E+00  8.00000000E-01  8.00000000E-01
  1.50000000E+00  1.50000000E+00  8.00000000E-01  8.00000000E-01  1.50000000E+00
  1.50000000E+00  8.00000000E-01  8.00000000E-01  1.50000000E+00  1.50000000E+00
  8.00000000E-01  8.00000000E-01  1.50000000E+00  1.50000000E+00  8.00000000E-01
  8.00000000E-01  1.50000000E+00  1.50000000E+00  8.00000000E-01  8.00000000E-01
  1.50000000E+00  1.50000000E+00  8.00000000E-01  8.00000000E-01  1.50000000E+00
  1.50000000E+00  8.00000000E-01  8.00000000E-01  1.50000000E+00  1.50000000E+00
  8.00000000E-01  8.00000000E-01  1.50000000E+00  1.50000000E+00  8.00000000E-01
  8.00000000E-01  1.50000000E+00  1.50000000E+00  8.00000000E-01  8.00000000E-01
  1.50000000E+00  1.50000000E+00  8.00000000E-01  8.00000000E-01  1.50000000E+00
  1.50000000E+00  8.00000000E-01  8.00000000E-01  1.50000000E+00  1.50000000E+00
  8.00000000E-01  8.00000000E-01  1.50000000E+00  1.50000000E+00  8.00000000E-01
  8.00000000E-01  1.50000000E+00  1.50000000E+00  8.00000000E-01  8.00000000E-01
  1.50000000E+00  1.50000000E+00  8.00000000E-01  8.00000000E-01  1.50000000E+00
  1.50000000E+00  8.00000000E-01  8.00000000E-01  1.50000000E+00  1.50000000E+00
  8.00000000E-01  8.00000000E-01  1.50000000E+00  1.50000000E+00  8.00000000E-01
  8.00000000E-01  1.50000000E+00  1.50000000E+00  8.00000000E-01  8.00000000E-01
  1.50000000E+00  1.50000000E+00  8.00000000E-01  8.00000000E-01  1.50000000E+00
  1.50000000E+00  8.00000000E-01  8.00000000E-01  1.50000000E+00  1.50000000E+00
  8.00000000E-01  8.00000000E-01  1.50000000E+00  1.50000000E+00  8.00000000E-01
  8.00000000E-01  1.50000000E+00  1.50000000E+00  8.00000000E-01  8.00000000E-01
  1.50000000E+00  1.50000000E+00  8.00000000E-01  8.00000000E-01  1.50000000E+00
  1.50000000E+00  8.00000000E-01  8.00000000E-01  1.50000000E+00  1.50000000E+00
  8.00000000E-01  8.00000000E-01  1.50000000E+00  1.50000000E+00  8.00000000E-01
  8.00000000E-01  1.50000000E+00  1.50000000E+00  8.00000000E-01  8.00000000E-01
  1.50000000E+00  1.50000000E+00  8.00000000E-01  8.00000000E-01  1.50000000E+00
  1.50000000E+00  8.00000000E-01  8.00000000E-01  1.50000000E+00  1.50000000E+00
  8.00000000E-01  8.00000000E-01  1.50000000E+00  1.50000000E+00  8.00000000E-01
  8.00000000E-01  1.50000000E+00  1.50000000E+00  8.00000000E-01  8.00000000E-01
  1.50000000E+00  1.50000000E+00  8.00000000E-01  8.00000000E-01  1.50000000E+00
  1.50000000E+00  8.00000000E-01  8.00000000E-01  1.50000000E+00  1.50000000E+00
  8.00000000E-01  8.00000000E-01  1.50000000E+00  1.50000000E+00  8.00000000E-01
  8.00000000E-01  1.50000000E+00  1.50000000E+00  8.00000000E-01  8.00000000E-01
  1.50000000E+00  1.50000000E+00  8.00000000E-01  8.00000000E-01  1.50000000E+00
  1.50000000E+00  8.00000000E-01  8.00000000E-01  1.50000000E+00  1.50000000E+00
  8.00000000E-01  8.00000000E-01  1.50000000E+00  1.50000000E+00  8.00000000E-01
  8.00000000E-01  1.50000000E+00  1.50000000E+00  8.00000000E-01  8.00000000E-01
  1.50000000E+00  1.50000000E+00  8.00000000E-01  8.00000000E-01  1.50000000E+00
  1.50000000E+00  8.00000000E-01  8.00000000E-01  1.50000000E+00  1.50000000E+00
  8.00000000E-01  8.00000000E-01  1.50000000E+00  1.50000000E+00  8.00000000E-01
  8.00000000E-01  1.50000000E+00  1.50000000E+00  8.00000000E-01  8.00000000E-01
  1.50000000E+00  1.50000000E+00  8.00000000E-01  8.00000000E-01  1.50000000E+00
  1.50000000E+00  8.00000000E-01  8.00000000E-01  1.50000000E+00  1.50000000E+00
  8.00000000E-01  8.00000000E-01  1.50000000E+00  1.50000000E+00  8.00000000E-01
  8.00000000E-01  1.50000000E+00  1.50000000E+00  8.00000000E-01  8.00000000E-01
  1.50000000E+00  1.50000000E+00  8.00000000E-01  8.00000000E-01  1.50000000E+00
  1.50000000E+00  8.00000000E-01  8.00000000E-01  1.50000000E+00  1.50000000E+00
  8.00000000E-01  8.00000000E-01  1.50000000E+00  1.50000000E+00  8.00000000E-01
  8.00000000E-01  1.50000000E+00  1.50000000E+00  8.00000000E-01  8.00000000E-01
  1.50000000E+00  1.50000000E+00  8.00000000E-01  8.00000000E-01  1.50000000E+00
  1.50000000E+00  8.00000000E-01  8.00000000E-01  1.50000000E+00  1.50000000E+00
  8.00000000E-01  8.00000000E-01  1.50000000E+00  1.50000000E+00  8.00000000E-01
  8.00000000E-01  1.50000000E+00  1.50000000E+00  8.00000000E-01  8.00000000E-01
  1.50000000E+00  1.50000000E+00  8.00000000E-01  8.00000000E-01  1.50000000E+00
  1.50000000E+00  8.00000000E-01  8.00000000E-01  1.50000000E+00  1.50000000E+00
  8.00000000E-01  8.00000000E-01  1.50000000E+00  1.50000000E+00  8.00000000E-01
  8.00000000E-01  1.50000000E+00  1.50000000E+00  8.00000000E-01  8.00000000E-01
  1.50000000E+00  1.50000000E+00  8.00000000E-01  8.00000000E-01  1.50000000E+00
  1.50000000E+00  8.00000000E-01  8.00000000E-01  1.50000000E+00  1.50000000E+00
  8.00000000E-01  8.00000000E-01  1.50000000E+00  1.50000000E+00  8.00000000E-01
  8.00000000E-01  1.50000000E+00  1.50000000E+00  8.00000000E-01  8.00000000E-01
  1.50000000E+00  1.50000000E+00  8.00000000E-01  8.00000000E-01  1.50000000E+00
  1.50000000E+00  8.00000000E-01  8.00000000E-01  1.50000000E+00  1.50000000E+00
  8.00000000E-01  8.00000000E-01  1.50000000E+00  1.50000000E+00  8.00000000E-01
  8.00000000E-01  1.50000000E+00  1.50000000E+00  8.00000000E-01  8.00000000E-01
  1.50000000E+00  1.50000000E+00  8.00000000E-01  8.00000000E-01  1.50000000E+00
  1.50000000E+00  8.00000000E-01  8.00000000E-01  1.50000000E+00  1.50000000E+00
  8.00000000E-01  8.00000000E-01  1.50000000E+00  1.50000000E+00  8.00000000E-01
  8.00000000E-01  1.50000000E+00  1.50000000E+00  8.00000000E-01  8.00000000E-01
  1.50000000E+00  1.50000000E+00  8.00000000E-01  8.00000000E-01  1.50000000E+00
  1.50000000E+00  8.00000000E-01  8.00000000E-01  1.50000000E+00  1.50000000E+00
  8.00000000E-01  8.00000000E-01  1.50000000E+00  1.50000000E+00  8.00000000E-01
  8.00000000E-01  1.50000000E+00  1.50000000E+00  8.00000000E-01  8.00000000E-01
  1.50000000E+00  1.50000000E+00  8.00000000E-01  8.00000000E-01  1.50000000E+00
  1.50000000E+00  8.00000000E-01  8.00000000E-01  1.50000000E+00  1.50000000E+00
  8.00000000E-01  8.00000000E-01  1.50000000E+00  1.50000000E+00  8.00000000E-01
  8.00000000E-01  1.50000000E+00  1.50000000E+00  8.00000000E-01  8.00000000E-01
  1.50000000E+00  1.50000000E+00  8.00000000E-01  8.00000000E-01  1.50000000E+00
  1.50000000E+00  8.00000000E-01  8.00000000E-01  1.50000000E+00  1.50000000E+00
  8.00000000E-01  8.00000000E-01  1.50000000E+00  1.50000000E+00  8.00000000E-01
  8.00000000E-01  1.50000000E+00  1.50000000E+00  8.00000000E-01  8.00000000E-01
  1.50000000E+00  1.50000000E+00  8.00000000E-01  8.00000000E-01  1.50000000E+00
  1.50000000E+00  8.00000000E-01  8.00000000E-01  1.50000000E+00  1.50000000E+00
  8.00000000E-01  8.00000000E-01  1.50000000E+00  1.50000000E+00  8.00000000E-01
  8.00000000E-01  1.50000000E+00  1.50000000E+00  8.00000000E-01  8.00000000E-01
  1.50000000E+00  1.50000000E+00  8.00000000E-01  8.00000000E-01  1.50000000E+00
  1.50000000E+00  8.00000000E-01  8.00000000E-01  1.50000000E+00  1.50000000E+00
  8.00000000E-01  8.00000000E-01  1.50000000E+00  1.50000000E+00  8.00000000E-01
  8.00000000E-01  1.50000000E+00  1.50000000E+00  8.00000000E-01  8.00000000E-01
  1.50000000E+00  1.50000000E+00  8.00000000E-01  8.00000000E-01  1.50000000E+00
  1.50000000E+00  8.00000000E-01  8.00000000E-01  1.50000000E+00  1.50000000E+00
  8.00000000E-01  8.00000000E-01  1.50000000E+00  1.50000000E+00  8.00000000E-01
  8.00000000E-01  1.50000000E+00  1.50000000E+00  8.00000000E-01  8.00000000E-01
  1.50000000E+00  1.50000000E+00  8.00000000E-01  8.00000000E-01  1.50000000E+00
  1.50000000E+00  8.00000000E-01  8.00000000E-01  1.50000000E+00  1.50000000E+00
  8.00000000E-01  8.00000000E-01  1.50000000E+00  1.50000000E+00  8.00000000E-01
  8.00000000E-01  1.50000000E+00  1.50000000E+00  8.00000000E-01  8.00000000E-01
  1.50000000E+00  1.50000000E+00  8.00000000E-01  8.00000000E-01  1.50000000E+00
  1.50000000E+00  8.00000000E-01  8.00000000E-01  1.50000000E+00  1.50000000E+00
  8.00000000E-01  8.00000000E-01  1.50000000E+00  1.50000000E+00  8.00000000E-01
  8.00000000E-01  1.50000000E+00  1.50000000E+00  8.00000000E-01  8.00000000E-01
  1.50000000E+00  1.50000000E+00  8.00000000E-01  8.00000000E-01  1.50000000E+00
  1.50000000E+00  8.00000000E-01  8.00000000E-01  1.50000000E+00  1.50000000E+00
  8.00000000E-01  8.00000000E-01  1.50000000E+00  1.50000000E+00  8.00000000E-01
  8.00000000E-01  1.50000000E+00  1.50000000E+00  8.00000000E-01  8.00000000E-01
  1.50000000E+00  1.50000000E+00  8.00000000E-01  8.00000000E-01  1.50000000E+00
  1.50000000E+00  8.00000000E-01  8.00000000E-01  1.50000000E+00  1.50000000E+00
  8.00000000E-01  8.00000000E-01  1.50000000E+00  1.50000000E+00  8.00000000E-01
  8.00000000E-01  1.50000000E+00  1.50000000E+00  8.00000000E-01  8.00000000E-01
  1.50000000E+00  1.50000000E+00  8.00000000E-01  8.00000000E-01  1.50000000E+00
  1.50000000E+00  8.00000000E-01  8.00000000E-01  1.50000000E+00  1.50000000E+00
  8.00000000E-01  8.00000000E-01  1.50000000E+00  1.50000000E+00  8.00000000E-01
  8.00000000E-01  1.50000000E+00  1.50000000E+00  8.00000000E-01  8.00000000E-01
  1.50000000E+00  1.50000000E+00  8.00000000E-01  8.00000000E-01  1.50000000E+00
  1.50000000E+00  8.00000000E-01  8.00000000E-01  1.50000000E+00  1.50000000E+00
  8.00000000E-01  8.00000000E-01  1.50000000E+00  1.50000000E+00  8.00000000E-01
  8.00000000E-01  1.50000000E+00  1.50000000E+00  8.00000000E-01  8.00000000E-01
  1.50000000E+00  1.50000000E+00  8.00000000E-01  8.00000000E-01  1.50000000E+00
  1.50000000E+00  8.00000000E-01  8.00000000E-01  1.50000000E+00  1.50000000E+00
  8.00000000E-01  8.00000000E-01  1.50000000E+00  1.50000000E+00  8.00000000E-01
  8.00000000E-01  1.50000000E+00  1.50000000E+00  8.00000000E-01  8.00000000E-01
  1.50000000E+00  1.50000000E+00  8.00000000E-01  8.00000000E-01  1.50000000E+00
  1.50000000E+00  8.00000000E-01  8.00000000E-01  1.50000000E+00  1.50000000E+00
  8.00000000E-01  8.00000000E-01  1.50000000E+00  1.50000000E+00  8.00000000E-01
  8.00000000E-01  1.50000000E+00  1.50000000E+00  8.00000000E-01  8.00000000E-01
  1.50000000E+00  1.50000000E+00  8.00000000E-01  8.00000000E-01  1.50000000E+00
  1.50000000E+00  8.00000000E-01  8.00000000E-01  1.50000000E+00  1.50000000E+00
  8.00000000E-01  8.00000000E-01  1.50000000E+00  1.50000000E+00  8.00000000E-01
  8.00000000E-01  1.50000000E+00  1.50000000E+00  8.00000000E-01  8.00000000E-01
  1.50000000E+00  1.50000000E+00  8.00000000E-01  8.00000000E-01  1.50000000E+00
  1.50000000E+00  8.00000000E-01  8.00000000E-01  1.50000000E+00  1.50000000E+00
  8.00000000E-01  8.00000000E-01  1.50000000E+00  1.50000000E+00  8.00000000E-01
  8.00000000E-01  1.50000000E+00  1.50000000E+00  8.00000000E-01  8.00000000E-01
  1.50000000E+00  1.50000000E+00  8.00000000E-01  8.00000000E-01  1.50000000E+00
  1.50000000E+00  8.00000000E-01  8.00000000E-01  1.50000000E+00  1.50000000E+00
  8.00000000E-01  8.00000000E-01  1.50000000E+00  1.50000000E+00  8.00000000E-01
  8.00000000E-01  1.50000000E+00  1.50000000E+00  8.00000000E-01  8.00000000E-01
  1.50000000E+00  1.50000000E+00  8.00000000E-01  8.00000000E-01  1.50000000E+00
  1.50000000E+00  8.00000000E-01  8.00000000E-01  1.50000000E+00  1.50000000E+00
  8.00000000E-01  8.00000000E-01  1.50000000E+00  1.50000000E+00  8.00000000E-01
  8.00000000E-01  1.50000000E+00  1.50000000E+00  8.00000000E-01  8.00000000E-01
  1.50000000E+00  1.50000000E+00  8.00000000E-01  8.00000000E-01  1.50000000E+00
  1.50000000E+00  8.00000000E-01  8.00000000E-01  1.50000000E+00  1.50000000E+00
  8.00000000E-01  8.00000000E-01  1.50000000E+00  1.50000000E+00  8.00000000E-01
  8.00000000E-01  1.50000000E+00  1.50000000E+00  8.00000000E-01  8.00000000E-01
  1.50000000E+00  1.50000000E+00  8.00000000E-01  8.00000000E-01  1.50000000E+00
  1.50000000E+00  8.00000000E-01  8.00000000E-01  1.50000000E+00  1.50000000E+00
  8.00000000E-01  8.00000000E-01  1.50000000E+00  1.50000000E+00  8.00000000E-01
  8.00000000E-01  1.50000000E+00  1.50000000E+00  8.00000000E-01  8.00000000E-01
  1.50000000E+00  1.50000000E+00  8.00000000E-01  8.00000000E-01  1.50000000E+00
  1.50000000E+00  8.00000000E-01  8.00000000E-01  1.50000000E+00  1.50000000E+00
  8.00000000E-01  8.00000000E-01  1.50000000E+00  1.50000000E+00  8.00000000E-01
  8.00000000E-01  1.50000000E+00  1.50000000E+00  8.00000000E-01  8.00000000E-01
  1.50000000E+00  1.50000000E+00  8.00000000E-01  8.00000000E-01  1.50000000E+00
  1.50000000E+00  8.00000000E-01  8.00000000E-01  1.50000000E+00  1.50000000E+00
  8.00000000E-01  8.00000000E-01  1.50000000E+00  1.50000000E+00  8.00000000E-01
  8.00000000E-01  1.50000000E+00  1.50000000E+00  8.00000000E-01  8.00000000E-01
  1.50000000E+00  1.50000000E+00  8.00000000E-01  8.00000000E-01  1.50000000E+00
  1.50000000E+00  8.00000000E-01  8.00000000E-01  1.50000000E+00  1.50000000E+00
  8.00000000E-01  8.00000000E-01  1.50000000E+00  1.50000000E+00  8.00000000E-01
  8.00000000E-01  1.50000000E+00  1.50000000E+00  8.00000000E-01  8.00000000E-01
  1.50000000E+00  1.50000000E+00  8.00000000E-01  8.00000000E-01  1.50000000E+00
  1.50000000E+00  8.00000000E-01  8.00000000E-01  1.50000000E+00  1.50000000E+00
  8.00000000E-01  8.00000000E-01  1.50000000E+00  1.50000000E+00  8.00000000E-01
  8.00000000E-01  1.50000000E+00  1.50000000E+00  8.00000000E-01  8.00000000E-01
  1.50000000E+00  1.50000000E+00  8.00000000E-01  8.00000000E-01  1.50000000E+00
  1.50000000E+00  8.00000000E-01  8.00000000E-01  1.50000000E+00  1.50000000E+00
  8.00000000E-01  8.00000000E-01  1.50000000E+00  1.50000000E+00  8.00000000E-01
  8.00000000E-01  1.50000000E+00  1.50000000E+00  8.00000000E-01  8.00000000E-01
  1.50000000E+00  1.50000000E+00  8.00000000E-01  8.00000000E-01  1.50000000E+00
  1.50000000E+00  8.00000000E-01  8.00000000E-01  1.50000000E+00  1.50000000E+00
  8.00000000E-01  8.00000000E-01  1.50000000E+00  1.50000000E+00  8.00000000E-01
  8.00000000E-01  1.50000000E+00  1.50000000E+00  8.00000000E-01  8.00000000E-01
  1.50000000E+00  1.50000000E+00  8.00000000E-01  8.00000000E-01  1.50000000E+00
  1.50000000E+00  8.00000000E-01  8.00000000E-01  1.50000000E+00  1.50000000E+00
  8.00000000E-01  8.00000000E-01  1.50000000E+00  1.50000000E+00  8.00000000E-01
  8.00000000E-01  1.50000000E+00  1.50000000E+00  8.00000000E-01  8.00000000E-01
  1.50000000E+00  1.50000000E+00  8.00000000E-01  8.00000000E-01  1.50000000E+00
  1.50000000E+00  8.00000000E-01  8.00000000E-01  1.50000000E+00  1.50000000E+00
  8.00000000E-01  8.00000000E-01  1.50000000E+00  1.50000000E+00  8.00000000E-01
  8.00000000E-01  1.50000000E+00  1.50000000E+00  8.00000000E-01  8.00000000E-01
  1.50000000E+00  1.50000000E+00  8.00000000E-01  8.00000000E-01  1.50000000E+00
  1.50000000E+00  8.00000000E-01  8.00000000E-01  1.50000000E+00  1.50000000E+00
  8.00000000E-01  8.00000000E-01  1.50000000E+00  1.50000000E+00  8.00000000E-01
  8.00000000E-01  1.50000000E+00  1.50000000E+00  8.00000000E-01  8.00000000E-01
  1.50000000E+00  1.50000000E+00  8.00000000E-01  8.00000000E-01  1.50000000E+00
  1.50000000E+00  8.00000000E-01  8.00000000E-01  1.50000000E+00  1.50000000E+00
  8.00000000E-01  8.00000000E-01  1.50000000E+00  1.50000000E+00  8.00000000E-01
  8.00000000E-01  1.50000000E+00  1.50000000E+00  8.00000000E-01  8.00000000E-01
  1.50000000E+00  1.50000000E+00  8.00000000E-01  8.00000000E-01  1.50000000E+00
  1.50000000E+00  8.00000000E-01  8.00000000E-01  1.50000000E+00  1.50000000E+00
  8.00000000E-01  8.00000000E-01  1.50000000E+00  1.50000000E+00  8.00000000E-01
  8.00000000E-01  1.50000000E+00  1.50000000E+00  8.00000000E-01  8.00000000E-01
  1.50000000E+00  1.50000000E+00  8.00000000E-01  8.00000000E-01  1.50000000E+00
  1.50000000E+00  8.00000000E-01  8.00000000E-01  1.50000000E+00  1.50000000E+00
  8.00000000E-01  8.00000000E-01  1.50000000E+00  1.50000000E+00  8.00000000E-01
  8.00000000E-01  1.50000000E+00  1.50000000E+00  8.00000000E-01  8.00000000E-01
  1.50000000E+00  1.50000000E+00  8.00000000E-01  8.00000000E-01  1.50000000E+00
  1.50000000E+00  8.00000000E-01  8.00000000E-01  1.50000000E+00  1.50000000E+00
  8.00000000E-01  8.00000000E-01  1.50000000E+00  1.50000000E+00  8.00000000E-01
  8.00000000E-01  1.50000000E+00  1.50000000E+00  8.00000000E-01  8.00000000E-01
  1.50000000E+00  1.50000000E+00  8.00000000E-01  8.00000000E-01  1.50000000E+00
  1.50000000E+00  8.00000000E-01  8.00000000E-01  1.50000000E+00  1.50000000E+00
  8.00000000E-01  8.00000000E-01  1.50000000E+00  1.50000000E+00  8.00000000E-01
  8.00000000E-01  1.50000000E+00  1.50000000E+00  8.00000000E-01  8.00000000E-01
  1.50000000E+00  1.50000000E+00  8.00000000E-01  8.00000000E-01  1.50000000E+00
  1.50000000E+00  8.00000000E-01  8.00000000E-01  1.50000000E+00  1.50000000E+00
  8.00000000E-01  8.00000000E-01  1.50000000E+00  1.50000000E+00  8.00000000E-01
  8.00000000E-01  1.50000000E+00  1.50000000E+00  8.00000000E-01  8.00000000E-01
  1.50000000E+00  1.50000000E+00  8.00000000E-01  8.00000000E-01  1.50000000E+00
  1.50000000E+00  8.00000000E-01  8.00000000E-01  1.50000000E+00  1.50000000E+00
  8.00000000E-01  8.00000000E-01  1.50000000E+00  1.50000000E+00  8.00000000E-01
  8.00000000E-01  1.50000000E+00  1.50000000E+00  8.00000000E-01  8.00000000E-01
  1.50000000E+00  1.50000000E+00  8.00000000E-01  8.00000000E-01  1.50000000E+00
  1.50000000E+00  8.00000000E-01  8.00000000E-01  1.50000000E+00  1.50000000E+00
  8.00000000E-01  8.00000000E-01  1.50000000E+00  1.50000000E+00  8.00000000E-01
  8.00000000E-01  1.50000000E+00  1.50000000E+00  8.00000000E-01  8.00000000E-01
  1.50000000E+00  1.50000000E+00  8.00000000E-01  8.00000000E-01  1.50000000E+00
  1.50000000E+00  8.00000000E-01  8.00000000E-01  1.50000000E+00  1.50000000E+00
  8.00000000E-01  8.00000000E-01  1.50000000E+00  1.50000000E+00  8.00000000E-01
  8.00000000E-01  1.50000000E+00  1.50000000E+00  8.00000000E-01  8.00000000E-01
  1.50000000E+00  1.50000000E+00  8.00000000E-01  8.00000000E-01  1.50000000E+00
  1.50000000E+00  8.00000000E-01  8.00000000E-01  1.50000000E+00  1.50000000E+00
  8.00000000E-01  8.00000000E-01  1.50000000E+00  1.50000000E+00  8.00000000E-01
  8.00000000E-01  1.50000000E+00  1.50000000E+00  8.00000000E-01  8.00000000E-01
  1.50000000E+00  1.50000000E+00  8.00000000E-01  8.00000000E-01  1.50000000E+00
  1.50000000E+00  8.00000000E-01  8.00000000E-01  1.50000000E+00  1.50000000E+00
  8.00000000E-01  8.00000000E-01  1.50000000E+00  1.50000000E+00  8.00000000E-01
  8.00000000E-01  1.50000000E+00  1.50000000E+00  8.00000000E-01  8.00000000E-01
  1.50000000E+00  1.50000000E+00  8.00000000E-01  8.00000000E-01  1.50000000E+00
  1.50000000E+00  8.00000000E-01  8.00000000E-01  1.50000000E+00  1.50000000E+00
  8.00000000E-01  8.00000000E-01  1.50000000E+00  1.50000000E+00  8.00000000E-01
  8.00000000E-01  1.50000000E+00  1.50000000E+00  8.00000000E-01  8.00000000E-01
  1.50000000E+00  1.50000000E+00  8.00000000E-01  8.00000000E-01  1.50000000E+00
  1.50000000E+00  8.00000000E-01  8.00000000E-01  1.50000000E+00  1.50000000E+00
  8.00000000E-01  8.00000000E-01  1.50000000E+00  1.50000000E+00  8.00000000E-01
  8.00000000E-01  1.50000000E+00  1.50000000E+00  8.00000000E-01  8.00000000E-01
  1.50000000E+00  1.50000000E+00  8.00000000E-01  8.00000000E-01  1.50000000E+00
  1.50000000E+00  8.00000000E-01  8.00000000E-01  1.50000000E+00  1.50000000E+00
  8.00000000E-01  8.00000000E-01  1.50000000E+00  1.50000000E+00  8.00000000E-01
  8.00000000E-01  1.50000000E+00  1.50000000E+00  8.00000000E-01  8.00000000E-01
  1.50000000E+00  1.50000000E+00  8.00000000E-01  8.00000000E-01  1.50000000E+00
  1.50000000E+00  8.00000000E-01  8.00000000E-01  1.50000000E+00  1.50000000E+00
  8.00000000E-01  8.00000000E-01  1.50000000E+00  1.50000000E+00  8.00000000E-01
  8.00000000E-01  1.50000000E+00  1.50000000E+00  8.00000000E-01  8.00000000E-01
  1.50000000E+00  1.50000000E+00  8.00000000E-01  8.00000000E-01  1.50000000E+00
  1.50000000E+00  8.00000000E-01  8.00000000E-01  1.50000000E+00  1.50000000E+00
  8.00000000E-01  8.00000000E-01  1.50000000E+00  1.50000000E+00  8.00000000E-01
  8.00000000E-01  1.50000000E+00  1.50000000E+00  8.00000000E-01  8.00000000E-01
  1.50000000E+00  1.50000000E+00  8.00000000E-01  8.00000000E-01  1.50000000E+00
  1.50000000E+00  8.00000000E-01  8.00000000E-01  1.50000000E+00  1.50000000E+00
  8.00000000E-01  8.00000000E-01  1.50000000E+00  1.50000000E+00  8.00000000E-01
  8.00000000E-01  1.50000000E+00  1.50000000E+00  8.00000000E-01  8.00000000E-01
  1.50000000E+00  1.50000000E+00  8.00000000E-01  8.00000000E-01  1.50000000E+00
  1.50000000E+00  8.00000000E-01  8.00000000E-01  1.50000000E+00  1.50000000E+00
  8.00000000E-01  8.00000000E-01  1.50000000E+00  1.50000000E+00  8.00000000E-01
  8.00000000E-01  1.50000000E+00  1.50000000E+00  8.00000000E-01  8.00000000E-01
  1.50000000E+00  1.50000000E+00  8.00000000E-01  8.00000000E-01  1.50000000E+00
  1.50000000E+00  8.00000000E-01  8.00000000E-01  1.50000000E+00  1.50000000E+00
  8.00000000E-01  8.00000000E-01  1.50000000E+00  1.50000000E+00  8.00000000E-01
  8.00000000E-01  1.50000000E+00  1.50000000E+00  8.00000000E-01  8.00000000E-01
  1.50000000E+00  1.50000000E+00  8.00000000E-01  8.00000000E-01  1.50000000E+00
  1.50000000E+00  8.00000000E-01  8.00000000E-01  1.50000000E+00  1.50000000E+00
  8.00000000E-01  8.00000000E-01  1.50000000E+00  1.50000000E+00  8.00000000E-01
  8.00000000E-01  1.50000000E+00  1.50000000E+00  8.00000000E-01  8.00000000E-01
  1.50000000E+00  1.50000000E+00  8.00000000E-01  8.00000000E-01  1.50000000E+00
  1.50000000E+00  8.00000000E-01  8.00000000E-01  1.50000000E+00  1.50000000E+00
  8.00000000E-01  8.00000000E-01  1.50000000E+00  1.50000000E+00  8.00000000E-01
  8.00000000E-01  1.50000000E+00  1.50000000E+00  8.00000000E-01  8.00000000E-01
  1.50000000E+00  1.50000000E+00  8.00000000E-01  8.00000000E-01  1.50000000E+00
  1.50000000E+00  8.00000000E-01  8.00000000E-01  1.50000000E+00  1.50000000E+00
  8.00000000E-01  8.00000000E-01  1.50000000E+00  1.50000000E+00  8.00000000E-01
  8.00000000E-01  1.50000000E+00  1.50000000E+00  8.00000000E-01  8.00000000E-01
  1.50000000E+00  1.50000000E+00  8.00000000E-01  8.00000000E-01  1.50000000E+00
  1.50000000E+00  8.00000000E-01  8.00000000E-01  1.50000000E+00  1.50000000E+00
  8.00000000E-01  8.00000000E-01  1.50000000E+00  1.50000000E+00  8.00000000E-01
  8.00000000E-01  1.50000000E+00  1.50000000E+00  8.00000000E-01  8.00000000E-01
  1.50000000E+00  1.50000000E+00  8.00000000E-01  8.00000000E-01  1.50000000E+00
  1.50000000E+00  8.00000000E-01  8.00000000E-01  1.50000000E+00  1.50000000E+00
  8.00000000E-01  8.00000000E-01  1.50000000E+00  1.50000000E+00  8.00000000E-01
  8.00000000E-01  1.50000000E+00  1.50000000E+00  8.00000000E-01  8.00000000E-01
  1.50000000E+00  1.50000000E+00  8.00000000E-01  8.00000000E-01  1.50000000E+00
  1.50000000E+00  8.00000000E-01  8.00000000E-01  1.50000000E+00  1.50000000E+00
  8.00000000E-01  8.00000000E-01  1.50000000E+00  1.50000000E+00  8.00000000E-01
  8.00000000E-01  1.50000000E+00  1.50000000E+00  8.00000000E-01  8.00000000E-01
  1.50000000E+00  1.50000000E+00  8.00000000E-01  8.00000000E-01  1.50000000E+00
  1.50000000E+00  8.00000000E-01  8.00000000E-01  1.50000000E+00  1.50000000E+00
  8.00000000E-01  8.00000000E-01  1.50000000E+00  1.50000000E+00  8.00000000E-01
  8.00000000E-01  1.50000000E+00  1.50000000E+00  8.00000000E-01  8.00000000E-01
  1.50000000E+00  1.50000000E+00  8.00000000E-01  8.00000000E-01  1.50000000E+00
  1.50000000E+00  8.00000000E-01  8.00000000E-01  1.50000000E+00  1.50000000E+00
  8.00000000E-01  8.00000000E-01  1.50000000E+00  1.50000000E+00  8.00000000E-01
  8.00000000E-01  1.50000000E+00  1.50000000E+00  8.00000000E-01  8.00000000E-01
  1.50000000E+00  1.50000000E+00  8.00000000E-01  8.00000000E-01  1.50000000E+00
  1.50000000E+00  8.00000000E-01  8.00000000E-01  1.50000000E+00  1.50000000E+00
  8.00000000E-01  8.00000000E-01  1.50000000E+00  1.50000000E+00  8.00000000E-01
  8.00000000E-01  1.50000000E+00  1.50000000E+00  8.00000000E-01  8.00000000E-01
  1.50000000E+00  1.50000000E+00  8.00000000E-01  8.00000000E-01  1.50000000E+00
  1.50000000E+00  8.00000000E-01  8.00000000E-01  1.50000000E+00  1.50000000E+00
  8.00000000E-01  8.00000000E-01  1.50000000E+00  1.50000000E+00  8.00000000E-01
  8.00000000E-01  1.50000000E+00  1.50000000E+00  8.00000000E-01  8.00000000E-01
  1.50000000E+00  1.50000000E+00  8.00000000E-01  8.00000000E-01  1.50000000E+00
  1.50000000E+00  8.00000000E-01  8.00000000E-01  1.50000000E+00  1.50000000E+00
  8.00000000E-01  8.00000000E-01  1.50000000E+00  1.50000000E+00  8.00000000E-01
  8.00000000E-01  1.50000000E+00  1.50000000E+00  8.00000000E-01  8.00000000E-01
  1.50000000E+00  1.50000000E+00  8.00000000E-01  8.00000000E-01  1.50000000E+00
  1.50000000E+00  8.00000000E-01  8.00000000E-01  1.50000000E+00  1.50000000E+00
  8.00000000E-01  8.00000000E-01  1.50000000E+00  1.50000000E+00  8.00000000E-01
  8.00000000E-01  1.50000000E+00  1.50000000E+00  8.00000000E-01  8.00000000E-01
  1.50000000E+00  1.50000000E+00  8.00000000E-01  8.00000000E-01  1.50000000E+00
  1.50000000E+00  8.00000000E-01  8.00000000E-01  1.50000000E+00  1.50000000E+00
  8.00000000E-01  8.00000000E-01  1.50000000E+00  1.50000000E+00  8.00000000E-01
  8.00000000E-01  1.50000000E+00  1.50000000E+00  8.00000000E-01  8.00000000E-01
  1.50000000E+00  1.50000000E+00  8.00000000E-01  8.00000000E-01  1.50000000E+00
  1.50000000E+00  8.00000000E-01  8.00000000E-01  1.50000000E+00  1.50000000E+00
  8.00000000E-01  8.00000000E-01  1.50000000E+00  1.50000000E+00  8.00000000E-01
  8.00000000E-01  1.50000000E+00  1.50000000E+00  8.00000000E-01  8.00000000E-01
  1.50000000E+00  1.50000000E+00  8.00000000E-01  8.00000000E-01  1.50000000E+00
  1.50000000E+00  8.00000000E-01  8.00000000E-01  1.50000000E+00  1.50000000E+00
  8.00000000E-01  8.00000000E-01  1.50000000E+00  1.50000000E+00  8.00000000E-01
  8.00000000E-01  1.50000000E+00  1.50000000E+00  8.00000000E-01  8.00000000E-01
  1.50000000E+00  1.50000000E+00  8.00000000E-01  8.00000000E-01  1.50000000E+00
  1.50000000E+00  8.00000000E-01  8.00000000E-01  1.50000000E+00  1.50000000E+00
  8.00000000E-01  8.00000000E-01  1.50000000E+00  1.50000000E+00  8.00000000E-01
  8.00000000E-01  1.50000000E+00  1.50000000E+00  8.00000000E-01  8.00000000E-01
  1.50000000E+00  1.50000000E+00  8.00000000E-01  8.00000000E-01  1.50000000E+00
  1.50000000E+00  8.00000000E-01  8.00000000E-01  1.50000000E+00  1.50000000E+00
  8.00000000E-01  8.00000000E-01  1.50000000E+00  1.50000000E+00  8.00000000E-01
  8.00000000E-01  1.50000000E+00  1.50000000E+00  8.00000000E-01  8.00000000E-01
  1.50000000E+00  1.50000000E+00  8.00000000E-01  8.00000000E-01  1.50000000E+00
  1.50000000E+00  8.00000000E-01  8.00000000E-01  1.50000000E+00  1.50000000E+00
  8.00000000E-01  8.00000000E-01  1.50000000E+00  1.50000000E+00  8.00000000E-01
  8.00000000E-01  1.50000000E+00  1.50000000E+00  8.00000000E-01  8.00000000E-01
  1.50000000E+00  1.50000000E+00  8.00000000E-01  8.00000000E-01  1.50000000E+00
  1.50000000E+00  8.00000000E-01  8.00000000E-01  1.50000000E+00  1.50000000E+00
  8.00000000E-01  8.00000000E-01  1.50000000E+00  1.50000000E+00  8.00000000E-01
  8.00000000E-01  1.50000000E+00  1.50000000E+00  8.00000000E-01  8.00000000E-01
  1.50000000E+00  1.50000000E+00  8.00000000E-01  8.00000000E-01  1.50000000E+00
  1.50000000E+00  8.00000000E-01  8.00000000E-01  1.50000000E+00  1.50000000E+00
  8.00000000E-01  8.00000000E-01  1.50000000E+00  1.50000000E+00  8.00000000E-01
  8.00000000E-01  1.50000000E+00  1.50000000E+00  8.00000000E-01  8.00000000E-01
  1.50000000E+00  1.50000000E+00  8.00000000E-01  8.00000000E-01  1.50000000E+00
  1.50000000E+00  8.00000000E-01  8.00000000E-01  1.50000000E+00  1.50000000E+00
  8.00000000E-01  8.00000000E-01  1.50000000E+00  1.50000000E+00  8.00000000E-01
  8.00000000E-01  1.50000000E+00  1.50000000E+00  8.00000000E-01  8.00000000E-01
  1.50000000E+00  1.50000000E+00  8.00000000E-01  8.00000000E-01  1.50000000E+00
  1.50000000E+00  8.00000000E-01  8.00000000E-01  1.50000000E+00  1.50000000E+00
  8.00000000E-01  8.00000000E-01  1.50000000E+00  1.50000000E+00  8.00000000E-01
  8.00000000E-01  1.50000000E+00  1.50000000E+00  8.00000000E-01  8.00000000E-01
  1.50000000E+00  1.50000000E+00  8.00000000E-01  8.00000000E-01  1.50000000E+00
  1.50000000E+00  8.00000000E-01  8.00000000E-01  1.50000000E+00  1.50000000E+00
  8.00000000E-01  8.00000000E-01  1.50000000E+00  1.50000000E+00  8.00000000E-01
  8.00000000E-01  1.50000000E+00  1.50000000E+00  8.00000000E-01  8.00000000E-01
  1.50000000E+00  1.50000000E+00  8.00000000E-01  8.00000000E-01  1.50000000E+00
  1.50000000E+00  8.00000000E-01  8.00000000E-01  1.50000000E+00  1.50000000E+00
  8.00000000E-01  8.00000000E-01  1.50000000E+00  1.50000000E+00  8.00000000E-01
  8.00000000E-01  1.50000000E+00  1.50000000E+00  8.00000000E-01  8.00000000E-01
  1.50000000E+00  1.50000000E+00  8.00000000E-01  8.00000000E-01  1.50000000E+00
  1.50000000E+00  8.00000000E-01  8.00000000E-01  1.50000000E+00  1.50000000E+00
  8.00000000E-01  8.00000000E-01  1.50000000E+00  1.50000000E+00  8.00000000E-01
  8.00000000E-01  1.50000000E+00  1.50000000E+00  8.00000000E-01  8.00000000E-01
  1.50000000E+00  1.50000000E+00  8.00000000E-01  8.00000000E-01  1.50000000E+00
  1.50000000E+00  8.00000000E-01  8.00000000E-01  1.50000000E+00  1.50000000E+00
  8.00000000E-01  8.00000000E-01  1.50000000E+00  1.50000000E+00  8.00000000E-01
  8.00000000E-01  1.50000000E+00  1.50000000E+00  8.00000000E-01  8.00000000E-01
  1.50000000E+00  1.50000000E+00  8.00000000E-01  8.00000000E-01  1.50000000E+00
  1.50000000E+00  8.00000000E-01  8.00000000E-01  1.50000000E+00  1.50000000E+00
  8.00000000E-01  8.00000000E-01  1.50000000E+00  1.50000000E+00  8.00000000E-01
  8.00000000E-01  1.50000000E+00  1.50000000E+00  8.00000000E-01  8.00000000E-01
  1.50000000E+00  1.50000000E+00  8.00000000E-01  8.00000000E-01  1.50000000E+00
  1.50000000E+00  8.00000000E-01  8.00000000E-01  1.50000000E+00  1.50000000E+00
  8.00000000E-01  8.00000000E-01  1.50000000E+00  1.50000000E+00  8.00000000E-01
  8.00000000E-01  1.50000000E+00  1.50000000E+00  8.00000000E-01  8.00000000E-01
  1.50000000E+00  1.50000000E+00  8.00000000E-01  8.00000000E-01  1.50000000E+00
  1.50000000E+00  8.00000000E-01  8.00000000E-01  1.50000000E+00  1.50000000E+00
  8.00000000E-01  8.00000000E-01  1.50000000E+00  1.50000000E+00  8.00000000E-01
  8.00000000E-01  1.50000000E+00  1.50000000E+00  8.00000000E-01  8.00000000E-01
  1.50000000E+00  1.50000000E+00  8.00000000E-01  8.00000000E-01  1.50000000E+00
  1.50000000E+00  8.00000000E-01  8.00000000E-01  1.50000000E+00  1.50000000E+00
  8.00000000E-01  8.00000000E-01  1.50000000E+00  1.50000000E+00  8.00000000E-01
  8.00000000E-01  1.50000000E+00  1.50000000E+00  8.00000000E-01  8.00000000E-01
  1.50000000E+00  1.50000000E+00  8.00000000E-01  8.00000000E-01  1.50000000E+00
  1.50000000E+00  8.00000000E-01  8.00000000E-01  1.50000000E+00  1.50000000E+00
  8.00000000E-01  8.00000000E-01  1.50000000E+00  1.50000000E+00  8.00000000E-01
  8.00000000E-01  1.50000000E+00  1.50000000E+00  8.00000000E-01  8.00000000E-01
  1.50000000E+00  1.50000000E+00  8.00000000E-01  8.00000000E-01  1.50000000E+00
  1.50000000E+00  8.00000000E-01  8.00000000E-01  1.50000000E+00  1.50000000E+00
  8.00000000E-01  8.00000000E-01  1.50000000E+00  1.50000000E+00  8.00000000E-01
  8.00000000E-01  1.50000000E+00  1.50000000E+00  8.00000000E-01  8.00000000E-01
  1.50000000E+00  1.50000000E+00  8.00000000E-01  8.00000000E-01  1.50000000E+00
  1.50000000E+00  8.00000000E-01  8.00000000E-01  1.50000000E+00  1.50000000E+00
  8.00000000E-01  8.00000000E-01  1.50000000E+00  1.50000000E+00  8.00000000E-01
  8.00000000E-01  1.50000000E+00  1.50000000E+00  8.00000000E-01  8.00000000E-01
  1.50000000E+00  1.50000000E+00  8.00000000E-01  8.00000000E-01  1.50000000E+00
  1.50000000E+00  8.00000000E-01  8.00000000E-01  1.50000000E+00  1.50000000E+00
  8.00000000E-01  8.00000000E-01  1.50000000E+00  1.50000000E+00  8.00000000E-01
  8.00000000E-01  1.50000000E+00  1.50000000E+00  8.00000000E-01  8.00000000E-01
  1.50000000E+00  1.50000000E+00  8.00000000E-01  8.00000000E-01  1.50000000E+00
  1.50000000E+00  8.00000000E-01  8.00000000E-01  1.50000000E+00  1.50000000E+00
  8.00000000E-01  8.00000000E-01  1.50000000E+00  1.50000000E+00  8.00000000E-01
  8.00000000E-01  1.50000000E+00  1.50000000E+00  8.00000000E-01  8.00000000E-01
  1.50000000E+00  1.50000000E+00  8.00000000E-01  8.00000000E-01  1.50000000E+00
  1.50000000E+00  8.00000000E-01  8.00000000E-01  1.50000000E+00  1.50000000E+00
  8.00000000E-01  8.00000000E-01  1.50000000E+00  1.50000000E+00  8.00000000E-01
  8.00000000E-01  1.50000000E+00  1.50000000E+00  8.00000000E-01  8.00000000E-01
  1.50000000E+00  1.50000000E+00  8.00000000E-01  8.00000000E-01  1.50000000E+00
  1.50000000E+00  8.00000000E-01  8.00000000E-01  1.50000000E+00  1.50000000E+00
  8.00000000E-01  8.00000000E-01  1.50000000E+00  1.50000000E+00  8.00000000E-01
  8.00000000E-01  1.50000000E+00  1.50000000E+00  8.00000000E-01  8.00000000E-01
  1.50000000E+00  1.50000000E+00  8.00000000E-01  8.00000000E-01  1.50000000E+00
  1.50000000E+00  8.00000000E-01  8.00000000E-01  1.50000000E+00  1.50000000E+00
  8.00000000E-01  8.00000000E-01  1.50000000E+00  1.50000000E+00  8.00000000E-01
  8.00000000E-01  1.50000000E+00  1.50000000E+00  8.00000000E-01  8.00000000E-01
  1.50000000E+00  1.50000000E+00  8.00000000E-01  8.00000000E-01  1.50000000E+00
  1.50000000E+00  8.00000000E-01  8.00000000E-01  1.50000000E+00  1.50000000E+00
  8.00000000E-01  8.00000000E-01  1.50000000E+00  1.50000000E+00  8.00000000E-01
  8.00000000E-01  1.50000000E+00  1.50000000E+00  8.00000000E-01  8.00000000E-01
  1.50000000E+00  1.50000000E+00  8.00000000E-01  8.00000000E-01  1.50000000E+00
  1.50000000E+00  8.00000000E-01  8.00000000E-01  1.50000000E+00  1.50000000E+00
  8.00000000E-01  8.00000000E-01  1.50000000E+00  1.50000000E+00  8.00000000E-01
  8.00000000E-01  1.50000000E+00  1.50000000E+00  8.00000000E-01  8.00000000E-01
  1.50000000E+00  1.50000000E+00  8.00000000E-01  8.00000000E-01  1.50000000E+00
  1.50000000E+00  8.00000000E-01  8.00000000E-01  1.50000000E+00  1.50000000E+00
  8.00000000E-01  8.00000000E-01  1.50000000E+00  1.50000000E+00  8.00000000E-01
  8.00000000E-01  1.50000000E+00  1.50000000E+00  8.00000000E-01  8.00000000E-01
  1.50000000E+00  1.50000000E+00  8.00000000E-01  8.00000000E-01  1.50000000E+00
  1.50000000E+00  8.00000000E-01  8.00000000E-01  1.50000000E+00  1.50000000E+00
  8.00000000E-01  8.00000000E-01  1.50000000E+00  1.50000000E+00  8.00000000E-01
  8.00000000E-01  1.50000000E+00  1.50000000E+00  8.00000000E-01  8.00000000E-01
  1.50000000E+00  1.50000000E+00  8.00000000E-01  8.00000000E-01  1.50000000E+00
  1.50000000E+00  8.00000000E-01  8.00000000E-01  1.50000000E+00  1.50000000E+00
  8.00000000E-01  8.00000000E-01  1.50000000E+00  1.50000000E+00  8.00000000E-01
  8.00000000E-01  1.50000000E+00  1.50000000E+00  8.00000000E-01  8.00000000E-01
  1.50000000E+00  1.50000000E+00  8.00000000E-01  8.00000000E-01  1.50000000E+00
  1.50000000E+00  8.00000000E-01  8.00000000E-01  1.50000000E+00  1.50000000E+00
  8.00000000E-01  8.00000000E-01  1.50000000E+00  1.50000000E+00  8.00000000E-01
  8.00000000E-01  1.50000000E+00  1.50000000E+00  8.00000000E-01  8.00000000E-01
  1.50000000E+00  1.50000000E+00  8.00000000E-01  8.00000000E-01  1.50000000E+00
  1.50000000E+00  8.00000000E-01  8.00000000E-01  1.50000000E+00  1.50000000E+00
  8.00000000E-01  8.00000000E-01  1.50000000E+00  1.50000000E+00  8.00000000E-01
  8.00000000E-01  1.50000000E+00  1.50000000E+00  8.00000000E-01  8.00000000E-01
  1.50000000E+00  1.50000000E+00  8.00000000E-01  8.00000000E-01  1.50000000E+00
  1.50000000E+00  8.00000000E-01  8.00000000E-01  1.50000000E+00  1.50000000E+00
  8.00000000E-01  8.00000000E-01  1.50000000E+00  1.50000000E+00  8.00000000E-01
  8.00000000E-01  1.50000000E+00  1.50000000E+00  8.00000000E-01  8.00000000E-01
  1.50000000E+00  1.50000000E+00  8.00000000E-01  8.00000000E-01  1.50000000E+00
  1.50000000E+00  8.00000000E-01  8.00000000E-01  1.50000000E+00  1.50000000E+00
  8.00000000E-01  8.00000000E-01  1.50000000E+00  1.50000000E+00  8.00000000E-01
  8.00000000E-01  1.50000000E+00  1.50000000E+00  8.00000000E-01  8.00000000E-01
  1.50000000E+00  1.50000000E+00  8.00000000E-01  8.00000000E-01  1.50000000E+00
  1.50000000E+00  8.00000000E-01  8.00000000E-01  1.50000000E+00  1.50000000E+00
  8.00000000E-01  8.00000000E-01  1.50000000E+00  1.50000000E+00  8.00000000E-01
  8.00000000E-01  1.50000000E+00  1.50000000E+00  8.00000000E-01  8.00000000E-01
  1.50000000E+00  1.50000000E+00  8.00000000E-01  8.00000000E-01  1.50000000E+00
  1.50000000E+00  8.00000000E-01  8.00000000E-01  1.50000000E+00  1.50000000E+00
  8.00000000E-01  8.00000000E-01  1.50000000E+00  1.50000000E+00  8.00000000E-01
  8.00000000E-01  1.50000000E+00  1.50000000E+00  8.00000000E-01  8.00000000E-01
  1.50000000E+00  1.50000000E+00  8.00000000E-01  8.00000000E-01  1.50000000E+00
  1.50000000E+00  8.00000000E-01  8.00000000E-01  1.50000000E+00  1.50000000E+00
  8.00000000E-01  8.00000000E-01  1.50000000E+00  1.50000000E+00  8.00000000E-01
  8.00000000E-01  1.50000000E+00  1.50000000E+00  8.00000000E-01  8.00000000E-01
  1.50000000E+00  1.50000000E+00  8.00000000E-01  8.00000000E-01  1.50000000E+00
  1.50000000E+00  8.00000000E-01  8.00000000E-01  1.50000000E+00  1.50000000E+00
  8.00000000E-01  8.00000000E-01  1.50000000E+00  1.50000000E+00  8.00000000E-01
  8.00000000E-01  1.50000000E+00  1.50000000E+00  8.00000000E-01  8.00000000E-01
  1.50000000E+00  1.50000000E+00  8.00000000E-01  8.00000000E-01  1.50000000E+00
  1.50000000E+00  8.00000000E-01  8.00000000E-01  1.50000000E+00  1.50000000E+00
  8.00000000E-01  8.00000000E-01  1.50000000E+00  1.50000000E+00  8.00000000E-01
  8.00000000E-01  1.50000000E+00  1.50000000E+00  8.00000000E-01  8.00000000E-01
  1.50000000E+00  1.50000000E+00  8.00000000E-01  8.00000000E-01  1.50000000E+00
  1.50000000E+00  8.00000000E-01  8.00000000E-01  1.50000000E+00  1.50000000E+00
  8.00000000E-01  8.00000000E-01  1.50000000E+00  1.50000000E+00  8.00000000E-01
  8.00000000E-01  1.50000000E+00  1.50000000E+00  8.00000000E-01  8.00000000E-01
  1.50000000E+00  1.50000000E+00  8.00000000E-01  8.00000000E-01  1.50000000E+00
  1.50000000E+00  8.00000000E-01  8.00000000E-01  1.50000000E+00  1.50000000E+00
  8.00000000E-01  8.00000000E-01  1.50000000E+00  1.50000000E+00  8.00000000E-01
  8.00000000E-01  1.50000000E+00  1.50000000E+00  8.00000000E-01  8.00000000E-01
  1.50000000E+00  1.50000000E+00  8.00000000E-01  8.00000000E-01  1.50000000E+00
  1.50000000E+00  8.00000000E-01  8.00000000E-01  1.50000000E+00  1.50000000E+00
  8.00000000E-01  8.00000000E-01  1.50000000E+00  1.50000000E+00  8.00000000E-01
  8.00000000E-01  1.50000000E+00  1.50000000E+00  8.00000000E-01  8.00000000E-01
  1.50000000E+00  1.50000000E+00  8.00000000E-01  8.00000000E-01  1.50000000E+00
  1.50000000E+00  8.00000000E-01  8.00000000E-01  1.50000000E+00  1.50000000E+00
  8.00000000E-01  8.00000000E-01  1.50000000E+00  1.50000000E+00  8.00000000E-01
  8.00000000E-01  1.50000000E+00  1.50000000E+00  8.00000000E-01  8.00000000E-01
  1.50000000E+00  1.50000000E+00  8.00000000E-01  8.00000000E-01  1.50000000E+00
  1.50000000E+00  8.00000000E-01  8.00000000E-01  1.50000000E+00  1.50000000E+00
  8.00000000E-01  8.00000000E-01  1.50000000E+00  1.50000000E+00  8.00000000E-01
  8.00000000E-01  1.50000000E+00  1.50000000E+00  8.00000000E-01  8.00000000E-01
  1.50000000E+00  1.50000000E+00  8.00000000E-01  8.00000000E-01  1.50000000E+00
  1.50000000E+00  8.00000000E-01  8.00000000E-01  1.50000000E+00  1.50000000E+00
  8.00000000E-01  8.00000000E-01  1.50000000E+00  1.50000000E+00  8.00000000E-01
  8.00000000E-01  1.50000000E+00  1.50000000E+00  8.00000000E-01  8.00000000E-01
  1.50000000E+00  1.50000000E+00  8.00000000E-01  8.00000000E-01  1.50000000E+00
  1.50000000E+00  8.00000000E-01  8.00000000E-01  1.50000000E+00  1.50000000E+00
  8.00000000E-01  8.00000000E-01  1.50000000E+00  1.50000000E+00  8.00000000E-01
  8.00000000E-01  1.50000000E+00  1.50000000E+00  8.00000000E-01  8.00000000E-01
  1.50000000E+00  1.50000000E+00  8.00000000E-01  8.00000000E-01  1.50000000E+00
  1.50000000E+00  8.00000000E-01  8.00000000E-01  1.50000000E+00  1.50000000E+00
  8.00000000E-01  8.00000000E-01  1.50000000E+00  1.50000000E+00  8.00000000E-01
  8.00000000E-01  1.50000000E+00  1.50000000E+00  8.00000000E-01  8.00000000E-01
  1.50000000E+00  1.50000000E+00  8.00000000E-01  8.00000000E-01  1.50000000E+00
  1.50000000E+00  8.00000000E-01  8.00000000E-01  1.50000000E+00  1.50000000E+00
  8.00000000E-01  8.00000000E-01  1.50000000E+00  1.50000000E+00  8.00000000E-01
  8.00000000E-01  1.50000000E+00  1.50000000E+00  8.00000000E-01  8.00000000E-01
  1.50000000E+00  1.50000000E+00  8.00000000E-01  8.00000000E-01  1.50000000E+00
  1.50000000E+00  8.00000000E-01  8.00000000E-01  1.50000000E+00  1.50000000E+00
  8.00000000E-01  8.00000000E-01  1.50000000E+00  1.50000000E+00  8.00000000E-01
  8.00000000E-01  1.50000000E+00  1.50000000E+00  8.00000000E-01  8.00000000E-01
  1.50000000E+00  1.50000000E+00  8.00000000E-01  8.00000000E-01  1.50000000E+00
  1.50000000E+00  8.00000000E-01  8.00000000E-01  1.50000000E+00  1.50000000E+00
  8.00000000E-01  8.00000000E-01  1.50000000E+00  1.50000000E+00  8.00000000E-01
  8.00000000E-01  1.50000000E+00  1.50000000E+00  8.00000000E-01  8.00000000E-01
  1.50000000E+00  1.50000000E+00  8.00000000E-01  8.00000000E-01  1.50000000E+00
  1.50000000E+00  8.00000000E-01  8.00000000E-01  1.50000000E+00  1.50000000E+00
  8.00000000E-01  8.00000000E-01  1.50000000E+00  1.50000000E+00  8.00000000E-01
  8.00000000E-01  1.50000000E+00  1.50000000E+00  8.00000000E-01  8.00000000E-01
  1.50000000E+00  1.50000000E+00  8.00000000E-01  8.00000000E-01  1.50000000E+00
  1.50000000E+00  8.00000000E-01  8.00000000E-01  1.50000000E+00  1.50000000E+00
  8.00000000E-01  8.00000000E-01  1.50000000E+00  1.50000000E+00  8.00000000E-01
  8.00000000E-01  1.50000000E+00  1.50000000E+00  8.00000000E-01  8.00000000E-01
  1.50000000E+00  1.50000000E+00  8.00000000E-01  8.00000000E-01  1.50000000E+00
  1.50000000E+00  8.00000000E-01  8.00000000E-01  1.50000000E+00  1.50000000E+00
  8.00000000E-01  8.00000000E-01  1.50000000E+00  1.50000000E+00  8.00000000E-01
  8.00000000E-01  1.50000000E+00  1.50000000E+00  8.00000000E-01  8.00000000E-01
  1.50000000E+00  1.50000000E+00  8.00000000E-01  8.00000000E-01  1.50000000E+00
  1.50000000E+00  8.00000000E-01  8.00000000E-01  1.50000000E+00  1.50000000E+00
  8.00000000E-01  8.00000000E-01  1.50000000E+00  1.50000000E+00  8.00000000E-01
  8.00000000E-01  1.50000000E+00  1.50000000E+00  8.00000000E-01  8.00000000E-01
  1.50000000E+00  1.50000000E+00  8.00000000E-01  8.00000000E-01  1.50000000E+00
  1.50000000E+00  8.00000000E-01  8.00000000E-01  1.50000000E+00  1.50000000E+00
  8.00000000E-01  8.00000000E-01  1.50000000E+00  1.50000000E+00  8.00000000E-01
  8.00000000E-01  1.50000000E+00  1.50000000E+00  8.00000000E-01  8.00000000E-01
  1.50000000E+00  1.50000000E+00  8.00000000E-01  8.00000000E-01  1.50000000E+00
  1.50000000E+00  8.00000000E-01  8.00000000E-01  1.50000000E+00  1.50000000E+00
  8.00000000E-01  8.00000000E-01  1.50000000E+00  1.50000000E+00  8.00000000E-01
  8.00000000E-01  1.50000000E+00  1.50000000E+00  8.00000000E-01  8.00000000E-01
  1.50000000E+00  1.50000000E+00  8.00000000E-01  8.00000000E-01  1.50000000E+00
  1.50000000E+00  8.00000000E-01  8.00000000E-01  1.50000000E+00  1.50000000E+00
  8.00000000E-01  8.00000000E-01  1.50000000E+00  1.50000000E+00  8.00000000E-01
  8.00000000E-01  1.50000000E+00  1.50000000E+00  8.00000000E-01  8.00000000E-01
  1.50000000E+00  1.50000000E+00  8.00000000E-01  8.00000000E-01  1.50000000E+00
  1.50000000E+00  8.00000000E-01  8.00000000E-01  1.50000000E+00  1.50000000E+00
  8.00000000E-01  8.00000000E-01  1.50000000E+00  1.50000000E+00  8.00000000E-01
  8.00000000E-01  1.50000000E+00  1.50000000E+00  8.00000000E-01  8.00000000E-01
  1.50000000E+00  1.50000000E+00  8.00000000E-01  8.00000000E-01  1.50000000E+00
  1.50000000E+00  8.00000000E-01  8.00000000E-01  1.50000000E+00  1.50000000E+00
  8.00000000E-01  8.00000000E-01  1.50000000E+00  1.50000000E+00  8.00000000E-01
  8.00000000E-01  1.50000000E+00  1.50000000E+00  8.00000000E-01  8.00000000E-01
  1.50000000E+00  1.50000000E+00  8.00000000E-01  8.00000000E-01  1.50000000E+00
  1.50000000E+00  8.00000000E-01  8.00000000E-01  1.50000000E+00  1.50000000E+00
  8.00000000E-01  8.00000000E-01  1.50000000E+00  1.50000000E+00  8.00000000E-01
  8.00000000E-01  1.50000000E+00  1.50000000E+00  8.00000000E-01  8.00000000E-01
  1.50000000E+00  1.50000000E+00  8.00000000E-01  8.00000000E-01  1.50000000E+00
  1.50000000E+00  8.00000000E-01  8.00000000E-01  1.50000000E+00  1.50000000E+00
  8.00000000E-01  8.00000000E-01  1.50000000E+00  1.50000000E+00  8.00000000E-01
  8.00000000E-01  1.50000000E+00  1.50000000E+00  8.00000000E-01  8.00000000E-01
  1.50000000E+00  1.50000000E+00  8.00000000E-01  8.00000000E-01  1.50000000E+00
  1.50000000E+00  8.00000000E-01  8.00000000E-01  1.50000000E+00  1.50000000E+00
  8.00000000E-01  8.00000000E-01  1.50000000E+00  1.50000000E+00  8.00000000E-01
  8.00000000E-01  1.50000000E+00  1.50000000E+00  8.00000000E-01  8.00000000E-01
  1.50000000E+00  1.50000000E+00  8.00000000E-01  8.00000000E-01  1.50000000E+00
  1.50000000E+00  8.00000000E-01  8.00000000E-01  1.50000000E+00  1.50000000E+00
  8.00000000E-01  8.00000000E-01  1.50000000E+00  1.50000000E+00  8.00000000E-01
  8.00000000E-01  1.50000000E+00  1.50000000E+00  8.00000000E-01  8.00000000E-01
  1.50000000E+00  1.50000000E+00  8.00000000E-01  8.00000000E-01  1.50000000E+00
  1.50000000E+00  8.00000000E-01  8.00000000E-01  1.50000000E+00  1.50000000E+00
  8.00000000E-01  8.00000000E-01  1.50000000E+00  1.50000000E+00  8.00000000E-01
  8.00000000E-01  1.50000000E+00  1.50000000E+00  8.00000000E-01  8.00000000E-01
  1.50000000E+00  1.50000000E+00  8.00000000E-01  8.00000000E-01  1.50000000E+00
  1.50000000E+00  8.00000000E-01  8.00000000E-01  1.50000000E+00  1.50000000E+00
  8.00000000E-01  8.00000000E-01  1.50000000E+00  1.50000000E+00  8.00000000E-01
  8.00000000E-01  1.50000000E+00  1.50000000E+00  8.00000000E-01  8.00000000E-01
  1.50000000E+00  1.50000000E+00  8.00000000E-01  8.00000000E-01  1.50000000E+00
  1.50000000E+00  8.00000000E-01  8.00000000E-01  1.50000000E+00  1.50000000E+00
  8.00000000E-01  8.00000000E-01  1.50000000E+00  1.50000000E+00  8.00000000E-01
  8.00000000E-01  1.50000000E+00  1.50000000E+00  8.00000000E-01  8.00000000E-01
  1.50000000E+00  1.50000000E+00  8.00000000E-01  8.00000000E-01  1.50000000E+00
  1.50000000E+00  8.00000000E-01  8.00000000E-01  1.50000000E+00  1.50000000E+00
  8.00000000E-01  8.00000000E-01  1.50000000E+00  1.50000000E+00  8.00000000E-01
  8.00000000E-01  1.50000000E+00  1.50000000E+00  8.00000000E-01  8.00000000E-01
  1.50000000E+00  1.50000000E+00  8.00000000E-01  8.00000000E-01  1.50000000E+00
  1.50000000E+00  8.00000000E-01  8.00000000E-01  1.50000000E+00  1.50000000E+00
  8.00000000E-01  8.00000000E-01  1.50000000E+00  1.50000000E+00  8.00000000E-01
  8.00000000E-01  1.50000000E+00  1.50000000E+00  8.00000000E-01  8.00000000E-01
  1.50000000E+00  1.50000000E+00  8.00000000E-01  8.00000000E-01  1.50000000E+00
  1.50000000E+00  8.00000000E-01  8.00000000E-01  1.50000000E+00  1.50000000E+00
  8.00000000E-01  8.00000000E-01  1.50000000E+00  1.50000000E+00  8.00000000E-01
  8.00000000E-01  1.50000000E+00  1.50000000E+00  8.00000000E-01  8.00000000E-01
  1.50000000E+00  1.50000000E+00  8.00000000E-01  8.00000000E-01  1.50000000E+00
  1.50000000E+00  8.00000000E-01  8.00000000E-01  1.50000000E+00  1.50000000E+00
  8.00000000E-01  8.00000000E-01  1.50000000E+00  1.50000000E+00  8.00000000E-01
  8.00000000E-01  1.50000000E+00  1.50000000E+00  8.00000000E-01  8.00000000E-01
  1.50000000E+00  1.50000000E+00  8.00000000E-01  8.00000000E-01  1.50000000E+00
  1.50000000E+00  8.00000000E-01  8.00000000E-01  1.50000000E+00  1.50000000E+00
  8.00000000E-01  8.00000000E-01  1.50000000E+00  1.50000000E+00  8.00000000E-01
  8.00000000E-01  1.50000000E+00  1.50000000E+00  8.00000000E-01  8.00000000E-01
  1.50000000E+00  1.50000000E+00  8.00000000E-01  8.00000000E-01  1.50000000E+00
  1.50000000E+00  8.00000000E-01  8.00000000E-01  1.50000000E+00  1.50000000E+00
  8.00000000E-01  8.00000000E-01  1.50000000E+00  1.50000000E+00  8.00000000E-01
  8.00000000E-01  1.50000000E+00  1.50000000E+00  8.00000000E-01  8.00000000E-01
  1.50000000E+00  1.50000000E+00  8.00000000E-01  8.00000000E-01  1.50000000E+00
  1.50000000E+00  8.00000000E-01  8.00000000E-01  1.50000000E+00  1.50000000E+00
  8.00000000E-01  8.00000000E-01  1.50000000E+00  1.50000000E+00  8.00000000E-01
  8.00000000E-01  1.50000000E+00  1.50000000E+00  8.00000000E-01  8.00000000E-01
  1.50000000E+00  1.50000000E+00  8.00000000E-01  8.00000000E-01  1.50000000E+00
  1.50000000E+00  8.00000000E-01  8.00000000E-01  1.50000000E+00  1.50000000E+00
  8.00000000E-01  8.00000000E-01  1.50000000E+00  1.50000000E+00  8.00000000E-01
  8.00000000E-01  1.50000000E+00  1.50000000E+00  8.00000000E-01  8.00000000E-01
  1.50000000E+00  1.50000000E+00  8.00000000E-01  8.00000000E-01  1.50000000E+00
  1.50000000E+00  8.00000000E-01  8.00000000E-01  1.50000000E+00  1.50000000E+00
  8.00000000E-01  8.00000000E-01  1.50000000E+00  1.50000000E+00  8.00000000E-01
  8.00000000E-01  1.50000000E+00  1.50000000E+00  8.00000000E-01  8.00000000E-01
  1.50000000E+00  1.50000000E+00  8.00000000E-01  8.00000000E-01  1.50000000E+00
  1.50000000E+00  8.00000000E-01  8.00000000E-01  1.50000000E+00  1.50000000E+00
  8.00000000E-01  8.00000000E-01  1.50000000E+00  1.50000000E+00  8.00000000E-01
  8.00000000E-01  1.50000000E+00  1.50000000E+00  8.00000000E-01  8.00000000E-01
  1.50000000E+00  1.50000000E+00  8.00000000E-01  8.00000000E-01  1.50000000E+00
  1.50000000E+00  8.00000000E-01  8.00000000E-01  1.50000000E+00  1.50000000E+00
  8.00000000E-01  8.00000000E-01  1.50000000E+00  1.50000000E+00  8.00000000E-01
  8.00000000E-01  1.50000000E+00  1.50000000E+00  8.00000000E-01  8.00000000E-01
  1.50000000E+00  1.50000000E+00  8.00000000E-01  8.00000000E-01  1.50000000E+00
  1.50000000E+00  8.00000000E-01  8.00000000E-01  1.50000000E+00  1.50000000E+00
  8.00000000E-01  8.00000000E-01  1.50000000E+00  1.50000000E+00  8.00000000E-01
  8.00000000E-01  1.50000000E+00  1.50000000E+00  8.00000000E-01  8.00000000E-01
  1.50000000E+00  1.50000000E+00  8.00000000E-01  8.00000000E-01  1.50000000E+00
  1.50000000E+00  8.00000000E-01  8.00000000E-01  1.50000000E+00  1.50000000E+00
  8.00000000E-01  8.00000000E-01  1.50000000E+00  1.50000000E+00  8.00000000E-01
  8.00000000E-01  1.50000000E+00  1.50000000E+00  8.00000000E-01  8.00000000E-01
  1.50000000E+00  1.50000000E+00  8.00000000E-01  8.00000000E-01  1.50000000E+00
  1.50000000E+00  8.00000000E-01  8.00000000E-01  1.50000000E+00  1.50000000E+00
  8.00000000E-01  8.00000000E-01  1.50000000E+00  1.50000000E+00  8.00000000E-01
  8.00000000E-01  1.50000000E+00  1.50000000E+00  8.00000000E-01  8.00000000E-01
  1.50000000E+00  1.50000000E+00  8.00000000E-01  8.00000000E-01  1.50000000E+00
  1.50000000E+00  8.00000000E-01  8.00000000E-01  1.50000000E+00  1.50000000E+00
  8.00000000E-01  8.00000000E-01  1.50000000E+00  1.50000000E+00  8.00000000E-01
  8.00000000E-01  1.50000000E+00  1.50000000E+00  8.00000000E-01  8.00000000E-01
  1.50000000E+00  1.50000000E+00  8.00000000E-01  8.00000000E-01  1.50000000E+00
  1.50000000E+00  8.00000000E-01  8.00000000E-01  1.50000000E+00  1.50000000E+00
  8.00000000E-01  8.00000000E-01  1.50000000E+00  1.50000000E+00  8.00000000E-01
  8.00000000E-01  1.50000000E+00  1.50000000E+00  8.00000000E-01  8.00000000E-01
  1.50000000E+00  1.50000000E+00  8.00000000E-01  8.00000000E-01  1.50000000E+00
  1.50000000E+00  8.00000000E-01  8.00000000E-01  1.50000000E+00  1.50000000E+00
  8.00000000E-01  8.00000000E-01  1.50000000E+00  1.50000000E+00  8.00000000E-01
  8.00000000E-01  1.50000000E+00  1.50000000E+00  8.00000000E-01  8.00000000E-01
  1.50000000E+00  1.50000000E+00  8.00000000E-01  8.00000000E-01  1.50000000E+00
  1.50000000E+00  8.00000000E-01  8.00000000E-01  1.50000000E+00  1.50000000E+00
  8.00000000E-01  8.00000000E-01  1.50000000E+00  1.50000000E+00  8.00000000E-01
  8.00000000E-01  1.50000000E+00  1.50000000E+00  8.00000000E-01  8.00000000E-01
  1.50000000E+00  1.50000000E+00  8.00000000E-01  8.00000000E-01  1.50000000E+00
  1.50000000E+00  8.00000000E-01  8.00000000E-01  1.50000000E+00  1.50000000E+00
  8.00000000E-01  8.00000000E-01  1.50000000E+00  1.50000000E+00  8.00000000E-01
  8.00000000E-01  1.50000000E+00  1.50000000E+00  8.00000000E-01  8.00000000E-01
  1.50000000E+00  1.50000000E+00  8.00000000E-01  8.00000000E-01  1.50000000E+00
  1.50000000E+00  8.00000000E-01  8.00000000E-01  1.50000000E+00  1.50000000E+00
  8.00000000E-01  8.00000000E-01  1.50000000E+00  1.50000000E+00  8.00000000E-01
  8.00000000E-01  1.50000000E+00  1.50000000E+00  8.00000000E-01  8.00000000E-01
  1.50000000E+00  1.50000000E+00  8.00000000E-01  8.00000000E-01  1.50000000E+00
  1.50000000E+00  8.00000000E-01  8.00000000E-01  1.50000000E+00  1.50000000E+00
  8.00000000E-01  8.00000000E-01  1.50000000E+00  1.50000000E+00  8.00000000E-01
  8.00000000E-01  1.50000000E+00  1.50000000E+00  8.00000000E-01  8.00000000E-01
  1.50000000E+00  1.50000000E+00  8.00000000E-01  8.00000000E-01  1.50000000E+00
  1.50000000E+00  8.00000000E-01  8.00000000E-01  1.50000000E+00  1.50000000E+00
  8.00000000E-01  8.00000000E-01  1.50000000E+00  1.50000000E+00  8.00000000E-01
  8.00000000E-01  1.50000000E+00  1.50000000E+00  8.00000000E-01  8.00000000E-01
  1.50000000E+00  1.50000000E+00  8.00000000E-01  8.00000000E-01  1.50000000E+00
  1.50000000E+00  8.00000000E-01  8.00000000E-01  1.50000000E+00  1.50000000E+00
  8.00000000E-01  8.00000000E-01  1.50000000E+00  1.50000000E+00  8.00000000E-01
  8.00000000E-01  1.50000000E+00  1.50000000E+00  8.00000000E-01  8.00000000E-01
  1.50000000E+00  1.50000000E+00  8.00000000E-01  8.00000000E-01  1.50000000E+00
  1.50000000E+00  8.00000000E-01  8.00000000E-01  1.50000000E+00  1.50000000E+00
  8.00000000E-01  8.00000000E-01  1.50000000E+00  1.50000000E+00  8.00000000E-01
  8.00000000E-01  1.50000000E+00  1.50000000E+00  8.00000000E-01  8.00000000E-01
  1.50000000E+00  1.50000000E+00  8.00000000E-01  8.00000000E-01  1.50000000E+00
  1.50000000E+00  8.00000000E-01  8.00000000E-01  1.50000000E+00  1.50000000E+00
  8.00000000E-01  8.00000000E-01  1.50000000E+00  1.50000000E+00  8.00000000E-01
  8.00000000E-01  1.50000000E+00  1.50000000E+00  8.00000000E-01  8.00000000E-01
  1.50000000E+00  1.50000000E+00  8.00000000E-01  8.00000000E-01  1.50000000E+00
  1.50000000E+00  8.00000000E-01  8.00000000E-01  1.50000000E+00  1.50000000E+00
  8.00000000E-01  8.00000000E-01  1.50000000E+00  1.50000000E+00  8.00000000E-01
  8.00000000E-01  1.50000000E+00  1.50000000E+00  8.00000000E-01  8.00000000E-01
  1.50000000E+00  1.50000000E+00  8.00000000E-01  8.00000000E-01  1.50000000E+00
  1.50000000E+00  8.00000000E-01  8.00000000E-01  1.50000000E+00  1.50000000E+00
  8.00000000E-01  8.00000000E-01  1.50000000E+00  1.50000000E+00  8.00000000E-01
  8.00000000E-01  1.50000000E+00  1.50000000E+00  8.00000000E-01  8.00000000E-01
  1.50000000E+00  1.50000000E+00  8.00000000E-01  8.00000000E-01  1.50000000E+00
  1.50000000E+00  8.00000000E-01  8.00000000E-01  1.50000000E+00  1.50000000E+00
  8.00000000E-01  8.00000000E-01  1.50000000E+00  1.50000000E+00  8.00000000E-01
  8.00000000E-01  1.50000000E+00  1.50000000E+00  8.00000000E-01  8.00000000E-01
  1.50000000E+00  1.50000000E+00  8.00000000E-01  8.00000000E-01  1.50000000E+00
  1.50000000E+00  8.00000000E-01  8.00000000E-01  1.50000000E+00  1.50000000E+00
  8.00000000E-01  8.00000000E-01  1.50000000E+00  1.50000000E+00  8.00000000E-01
  8.00000000E-01  1.50000000E+00  1.50000000E+00  8.00000000E-01  8.00000000E-01
  1.50000000E+00  1.50000000E+00  8.00000000E-01  8.00000000E-01  1.50000000E+00
  1.50000000E+00  8.00000000E-01  8.00000000E-01  1.50000000E+00  1.50000000E+00
  8.00000000E-01  8.00000000E-01  1.50000000E+00  1.50000000E+00  8.00000000E-01
  8.00000000E-01  1.50000000E+00  1.50000000E+00  8.00000000E-01  8.00000000E-01
  1.50000000E+00  1.50000000E+00  8.00000000E-01  8.00000000E-01  1.50000000E+00
  1.50000000E+00  8.00000000E-01  8.00000000E-01  1.50000000E+00  1.50000000E+00
  8.00000000E-01  8.00000000E-01  1.50000000E+00  1.50000000E+00  8.00000000E-01
  8.00000000E-01  1.50000000E+00  1.50000000E+00  8.00000000E-01  8.00000000E-01
  1.50000000E+00  1.50000000E+00  8.00000000E-01  8.00000000E-01  1.50000000E+00
  1.50000000E+00  8.00000000E-01  8.00000000E-01  1.50000000E+00  1.50000000E+00
  8.00000000E-01  8.00000000E-01  1.50000000E+00  1.50000000E+00  8.00000000E-01
  8.00000000E-01  1.50000000E+00  1.50000000E+00  8.00000000E-01  8.00000000E-01
  1.50000000E+00  1.50000000E+00  8.00000000E-01  8.00000000E-01  1.50000000E+00
  1.50000000E+00  8.00000000E-01  8.00000000E-01  1.50000000E+00  1.50000000E+00
  8.00000000E-01  8.00000000E-01  1.50000000E+00  1.50000000E+00  8.00000000E-01
  8.00000000E-01  1.50000000E+00  1.50000000E+00  8.00000000E-01  8.00000000E-01
  1.50000000E+00  1.50000000E+00  8.00000000E-01  8.00000000E-01  1.50000000E+00
  1.50000000E+00  8.00000000E-01  8.00000000E-01  1.50000000E+00  1.50000000E+00
  8.00000000E-01  8.00000000E-01  1.50000000E+00  1.50000000E+00  8.00000000E-01
  8.00000000E-01  1.50000000E+00  1.50000000E+00  8.00000000E-01  8.00000000E-01
  1.50000000E+00  1.50000000E+00  8.00000000E-01  8.00000000E-01  1.50000000E+00
  1.50000000E+00  8.00000000E-01  8.00000000E-01  1.50000000E+00  1.50000000E+00
  8.00000000E-01  8.00000000E-01  1.50000000E+00  1.50000000E+00  8.00000000E-01
  8.00000000E-01  1.50000000E+00  1.50000000E+00  8.00000000E-01  8.00000000E-01
  1.50000000E+00  1.50000000E+00  8.00000000E-01  8.00000000E-01  1.50000000E+00
  1.50000000E+00  8.00000000E-01  8.00000000E-01  1.50000000E+00  1.50000000E+00
  8.00000000E-01  8.00000000E-01  1.50000000E+00  1.50000000E+00  8.00000000E-01
  8.00000000E-01  1.50000000E+00  1.50000000E+00  8.00000000E-01  8.00000000E-01
  1.50000000E+00  1.50000000E+00  8.00000000E-01  8.00000000E-01  1.50000000E+00
  1.50000000E+00  8.00000000E-01  8.00000000E-01  1.50000000E+00  1.50000000E+00
  8.00000000E-01  8.00000000E-01  1.50000000E+00  1.50000000E+00  8.00000000E-01
  8.00000000E-01  1.50000000E+00  1.50000000E+00  8.00000000E-01  8.00000000E-01
  1.50000000E+00  1.50000000E+00  8.00000000E-01  8.00000000E-01  1.50000000E+00
  1.50000000E+00  8.00000000E-01  8.00000000E-01  1.50000000E+00  1.50000000E+00
  8.00000000E-01  8.00000000E-01  1.50000000E+00  1.50000000E+00  8.00000000E-01
  8.00000000E-01  1.50000000E+00  1.50000000E+00  8.00000000E-01  8.00000000E-01
  1.50000000E+00  1.50000000E+00  8.00000000E-01  8.00000000E-01  1.50000000E+00
  1.50000000E+00  8.00000000E-01  8.00000000E-01  1.50000000E+00  1.50000000E+00
  8.00000000E-01  8.00000000E-01  1.50000000E+00  1.50000000E+00  8.00000000E-01
  8.00000000E-01  1.50000000E+00  1.50000000E+00  8.00000000E-01  8.00000000E-01
  1.50000000E+00  1.50000000E+00  8.00000000E-01  8.00000000E-01  1.50000000E+00
  1.50000000E+00  8.00000000E-01  8.00000000E-01  1.50000000E+00  1.50000000E+00
  8.00000000E-01  8.00000000E-01  1.50000000E+00  1.50000000E+00  8.00000000E-01
  8.00000000E-01  1.50000000E+00  1.50000000E+00  8.00000000E-01  8.00000000E-01
  1.50000000E+00  1.50000000E+00  8.00000000E-01  8.00000000E-01  1.50000000E+00
  1.50000000E+00  8.00000000E-01  8.00000000E-01  1.50000000E+00  1.50000000E+00
  8.00000000E-01  8.00000000E-01  1.50000000E+00  1.50000000E+00  8.00000000E-01
  8.00000000E-01  1.50000000E+00  1.50000000E+00  8.00000000E-01  8.00000000E-01
  1.50000000E+00  1.50000000E+00  8.00000000E-01  8.00000000E-01  1.50000000E+00
  1.50000000E+00  8.00000000E-01  8.00000000E-01  1.50000000E+00  1.50000000E+00
  8.00000000E-01  8.00000000E-01  1.50000000E+00  1.50000000E+00  8.00000000E-01
  8.00000000E-01  1.50000000E+00  1.50000000E+00  8.00000000E-01  8.00000000E-01
  1.50000000E+00  1.50000000E+00  8.00000000E-01  8.00000000E-01  1.50000000E+00
  1.50000000E+00  8.00000000E-01  8.00000000E-01  1.50000000E+00  1.50000000E+00
  8.00000000E-01  8.00000000E-01  1.50000000E+00  1.50000000E+00  8.00000000E-01
  8.00000000E-01  1.50000000E+00  1.50000000E+00  8.00000000E-01  8.00000000E-01
  1.50000000E+00  1.50000000E+00  8.00000000E-01  8.00000000E-01  1.50000000E+00
  1.50000000E+00  8.00000000E-01  8.00000000E-01  1.50000000E+00  1.50000000E+00
  8.00000000E-01  8.00000000E-01  1.50000000E+00  1.50000000E+00  8.00000000E-01
  8.00000000E-01  1.50000000E+00  1.50000000E+00  8.00000000E-01  8.00000000E-01
  1.50000000E+00  1.50000000E+00  8.00000000E-01  8.00000000E-01  1.50000000E+00
  1.50000000E+00  8.00000000E-01  8.00000000E-01  1.50000000E+00  1.50000000E+00
  8.00000000E-01  8.00000000E-01  1.50000000E+00  1.50000000E+00  8.00000000E-01
  8.00000000E-01  1.50000000E+00  1.50000000E+00  8.00000000E-01  8.00000000E-01
  1.50000000E+00  1.50000000E+00  8.00000000E-01  8.00000000E-01  1.50000000E+00
  1.50000000E+00  8.00000000E-01  8.00000000E-01  1.50000000E+00  1.50000000E+00
  8.00000000E-01  8.00000000E-01  1.50000000E+00  1.50000000E+00  8.00000000E-01
  8.00000000E-01  1.50000000E+00  1.50000000E+00  8.00000000E-01  8.00000000E-01
  1.50000000E+00  1.50000000E+00  8.00000000E-01  8.00000000E-01  1.50000000E+00
  1.50000000E+00  8.00000000E-01  8.00000000E-01  1.50000000E+00  1.50000000E+00
  8.00000000E-01  8.00000000E-01  1.50000000E+00  1.50000000E+00  8.00000000E-01
  8.00000000E-01  1.50000000E+00  1.50000000E+00  8.00000000E-01  8.00000000E-01
  1.50000000E+00  1.50000000E+00  8.00000000E-01  8.00000000E-01  1.50000000E+00
  1.50000000E+00  8.00000000E-01  8.00000000E-01  1.50000000E+00  1.50000000E+00
  8.00000000E-01  8.00000000E-01  1.50000000E+00  1.50000000E+00  8.00000000E-01
  8.00000000E-01  1.50000000E+00  1.50000000E+00  8.00000000E-01  8.00000000E-01
  1.50000000E+00  1.50000000E+00  8.00000000E-01  8.00000000E-01  1.50000000E+00
  1.50000000E+00  8.00000000E-01  8.00000000E-01  1.50000000E+00  1.50000000E+00
  8.00000000E-01  8.00000000E-01  1.50000000E+00  1.50000000E+00  8.00000000E-01
  8.00000000E-01  1.50000000E+00  1.50000000E+00  8.00000000E-01  8.00000000E-01
  1.50000000E+00  1.50000000E+00  8.00000000E-01  8.00000000E-01  1.50000000E+00
  1.50000000E+00  8.00000000E-01  8.00000000E-01  1.50000000E+00  1.50000000E+00
  8.00000000E-01  8.00000000E-01  1.50000000E+00  1.50000000E+00  8.00000000E-01
  8.00000000E-01  1.50000000E+00  1.50000000E+00  8.00000000E-01  8.00000000E-01
  1.50000000E+00  1.50000000E+00  8.00000000E-01  8.00000000E-01  1.50000000E+00
  1.50000000E+00  8.00000000E-01  8.00000000E-01  1.50000000E+00  1.50000000E+00
  8.00000000E-01  8.00000000E-01  1.50000000E+00  1.50000000E+00  8.00000000E-01
  8.00000000E-01  1.50000000E+00  1.50000000E+00  8.00000000E-01  8.00000000E-01
  1.50000000E+00  1.50000000E+00  8.00000000E-01  8.00000000E-01  1.50000000E+00
  1.50000000E+00  8.00000000E-01  8.00000000E-01  1.50000000E+00  1.50000000E+00
  8.00000000E-01  8.00000000E-01  1.50000000E+00  1.50000000E+00  8.00000000E-01
  8.00000000E-01  1.50000000E+00  1.50000000E+00  8.00000000E-01  8.00000000E-01
  1.50000000E+00  1.50000000E+00  8.00000000E-01  8.00000000E-01  1.50000000E+00
  1.50000000E+00  8.00000000E-01  8.00000000E-01  1.50000000E+00  1.50000000E+00
  8.00000000E-01  8.00000000E-01  1.50000000E+00  1.50000000E+00  8.00000000E-01
  8.00000000E-01  1.50000000E+00  1.50000000E+00  8.00000000E-01  8.00000000E-01
  1.50000000E+00  1.50000000E+00  8.00000000E-01  8.00000000E-01  1.50000000E+00
  1.50000000E+00  8.00000000E-01  8.00000000E-01  1.50000000E+00  1.50000000E+00
  8.00000000E-01  8.00000000E-01  1.50000000E+00  1.50000000E+00  8.00000000E-01
  8.00000000E-01  1.50000000E+00  1.50000000E+00  8.00000000E-01  8.00000000E-01
  1.50000000E+00  1.50000000E+00  8.00000000E-01  8.00000000E-01  1.50000000E+00
  1.50000000E+00  8.00000000E-01  8.00000000E-01  1.50000000E+00  1.50000000E+00
  8.00000000E-01  8.00000000E-01  1.50000000E+00  1.50000000E+00  8.00000000E-01
  8.00000000E-01  1.50000000E+00  1.50000000E+00  8.00000000E-01  8.00000000E-01
  1.50000000E+00  1.50000000E+00  8.00000000E-01  8.00000000E-01  1.50000000E+00
  1.50000000E+00  8.00000000E-01  8.00000000E-01  1.50000000E+00  1.50000000E+00
  8.00000000E-01  8.00000000E-01  1.50000000E+00  1.50000000E+00  8.00000000E-01
  8.00000000E-01  1.50000000E+00  1.50000000E+00  8.00000000E-01  8.00000000E-01
  1.50000000E+00  1.50000000E+00  8.00000000E-01  8.00000000E-01  1.50000000E+00
  1.50000000E+00  8.00000000E-01  8.00000000E-01  1.50000000E+00  1.50000000E+00
  8.00000000E-01  8.00000000E-01  1.50000000E+00  1.50000000E+00  8.00000000E-01
  8.00000000E-01  1.50000000E+00  1.50000000E+00  8.00000000E-01  8.00000000E-01
  1.50000000E+00  1.50000000E+00  8.00000000E-01  8.00000000E-01  1.50000000E+00
  1.50000000E+00  8.00000000E-01  8.00000000E-01  1.50000000E+00  1.50000000E+00
  8.00000000E-01  8.00000000E-01  1.50000000E+00  1.50000000E+00  8.00000000E-01
  8.00000000E-01  1.50000000E+00  1.50000000E+00  8.00000000E-01  8.00000000E-01
  1.50000000E+00  1.50000000E+00  8.00000000E-01  8.00000000E-01  1.50000000E+00
  1.50000000E+00  8.00000000E-01  8.00000000E-01  1.50000000E+00  1.50000000E+00
  8.00000000E-01  8.00000000E-01  1.50000000E+00  1.50000000E+00  8.00000000E-01
  8.00000000E-01  1.50000000E+00  1.50000000E+00  8.00000000E-01  8.00000000E-01
  1.50000000E+00  1.50000000E+00  8.00000000E-01  8.00000000E-01  1.50000000E+00
  1.50000000E+00  8.00000000E-01  8.00000000E-01  1.50000000E+00  1.50000000E+00
  8.00000000E-01  8.00000000E-01  1.50000000E+00  1.50000000E+00  8.00000000E-01
  8.00000000E-01  1.50000000E+00  1.50000000E+00  8.00000000E-01  8.00000000E-01
  1.50000000E+00  1.50000000E+00  8.00000000E-01  8.00000000E-01  1.50000000E+00
  1.50000000E+00  8.00000000E-01  8.00000000E-01  1.50000000E+00  1.50000000E+00
  8.00000000E-01  8.00000000E-01  1.50000000E+00  1.50000000E+00  8.00000000E-01
  8.00000000E-01  1.50000000E+00  1.50000000E+00  8.00000000E-01  8.00000000E-01
  1.50000000E+00  1.50000000E+00  8.00000000E-01  8.00000000E-01  1.50000000E+00
  1.50000000E+00  8.00000000E-01  8.00000000E-01  1.50000000E+00  1.50000000E+00
  8.00000000E-01  8.00000000E-01  1.50000000E+00  1.50000000E+00  8.00000000E-01
  8.00000000E-01  1.50000000E+00  1.50000000E+00  8.00000000E-01  8.00000000E-01
  1.50000000E+00  1.50000000E+00  8.00000000E-01  8.00000000E-01  1.50000000E+00
  1.50000000E+00  8.00000000E-01  8.00000000E-01  1.50000000E+00  1.50000000E+00
  8.00000000E-01  8.00000000E-01  1.50000000E+00  1.50000000E+00  8.00000000E-01
  8.00000000E-01  1.50000000E+00  1.50000000E+00  8.00000000E-01  8.00000000E-01
  1.50000000E+00  1.50000000E+00  8.00000000E-01  8.00000000E-01  1.50000000E+00
  1.50000000E+00  8.00000000E-01  8.00000000E-01  1.50000000E+00  1.50000000E+00
  8.00000000E-01  8.00000000E-01  1.50000000E+00  1.50000000E+00  8.00000000E-01
  8.00000000E-01  1.50000000E+00  1.50000000E+00  8.00000000E-01  8.00000000E-01
  1.50000000E+00  1.50000000E+00  8.00000000E-01  8.00000000E-01  1.50000000E+00
  1.50000000E+00  8.00000000E-01  8.00000000E-01  1.50000000E+00  1.50000000E+00
  8.00000000E-01  8.00000000E-01  1.50000000E+00  1.50000000E+00  8.00000000E-01
  8.00000000E-01  1.50000000E+00  1.50000000E+00  8.00000000E-01  8.00000000E-01
  1.50000000E+00  1.50000000E+00  8.00000000E-01  8.00000000E-01  1.50000000E+00
  1.50000000E+00  8.00000000E-01  8.00000000E-01  1.50000000E+00  1.50000000E+00
  8.00000000E-01  8.00000000E-01  1.50000000E+00  1.50000000E+00  8.00000000E-01
  8.00000000E-01  1.50000000E+00  1.50000000E+00  8.00000000E-01  8.00000000E-01
  1.50000000E+00  1.50000000E+00  8.00000000E-01  8.00000000E-01  1.50000000E+00
  1.50000000E+00  8.00000000E-01  8.00000000E-01  1.50000000E+00  1.50000000E+00
  8.00000000E-01  8.00000000E-01  1.50000000E+00  1.50000000E+00  8.00000000E-01
  8.00000000E-01  1.50000000E+00  1.50000000E+00  8.00000000E-01  8.00000000E-01
  1.50000000E+00  1.50000000E+00  8.00000000E-01  8.00000000E-01  1.50000000E+00
  1.50000000E+00  8.00000000E-01  8.00000000E-01  1.50000000E+00  1.50000000E+00
  8.00000000E-01  8.00000000E-01  1.50000000E+00  1.50000000E+00  8.00000000E-01
  8.00000000E-01  1.50000000E+00  1.50000000E+00  8.00000000E-01  8.00000000E-01
  1.50000000E+00  1.50000000E+00  8.00000000E-01  8.00000000E-01  1.50000000E+00
  1.50000000E+00  8.00000000E-01  8.00000000E-01  1.50000000E+00  1.50000000E+00
  8.00000000E-01  8.00000000E-01  1.50000000E+00  1.50000000E+00  8.00000000E-01
  8.00000000E-01  1.50000000E+00  1.50000000E+00  8.00000000E-01  8.00000000E-01
  1.50000000E+00  1.50000000E+00  8.00000000E-01  8.00000000E-01  1.50000000E+00
  1.50000000E+00  8.00000000E-01  8.00000000E-01  1.50000000E+00  1.50000000E+00
  8.00000000E-01  8.00000000E-01  1.50000000E+00  1.50000000E+00  8.00000000E-01
  8.00000000E-01  1.50000000E+00  1.50000000E+00  8.00000000E-01  8.00000000E-01
  1.50000000E+00  1.50000000E+00  8.00000000E-01  8.00000000E-01  1.50000000E+00
  1.50000000E+00  8.00000000E-01  8.00000000E-01  1.50000000E+00  1.50000000E+00
  8.00000000E-01  8.00000000E-01  1.50000000E+00  1.50000000E+00  8.00000000E-01
  8.00000000E-01  1.50000000E+00  1.50000000E+00  8.00000000E-01  8.00000000E-01
  1.50000000E+00  1.50000000E+00  8.00000000E-01  8.00000000E-01  1.50000000E+00
  1.50000000E+00  8.00000000E-01  8.00000000E-01  1.50000000E+00  1.50000000E+00
  8.00000000E-01  8.00000000E-01  1.50000000E+00  1.50000000E+00  8.00000000E-01
  8.00000000E-01  1.50000000E+00  1.50000000E+00  8.00000000E-01  8.00000000E-01
  1.50000000E+00  1.50000000E+00  8.00000000E-01  8.00000000E-01  1.50000000E+00
  1.50000000E+00  8.00000000E-01  8.00000000E-01  1.50000000E+00  1.50000000E+00
  8.00000000E-01  8.00000000E-01  1.50000000E+00  1.50000000E+00  8.00000000E-01
  8.00000000E-01  1.50000000E+00  1.50000000E+00  8.00000000E-01  8.00000000E-01
  1.50000000E+00  1.50000000E+00  8.00000000E-01  8.00000000E-01  1.50000000E+00
  1.50000000E+00  8.00000000E-01  8.00000000E-01  1.50000000E+00  1.50000000E+00
  8.00000000E-01  8.00000000E-01  1.50000000E+00  1.50000000E+00  8.00000000E-01
  8.00000000E-01  1.50000000E+00  1.50000000E+00  8.00000000E-01  8.00000000E-01
  1.50000000E+00  1.50000000E+00  8.00000000E-01  8.00000000E-01  1.50000000E+00
  1.50000000E+00  8.00000000E-01  8.00000000E-01  1.50000000E+00  1.50000000E+00
  8.00000000E-01  8.00000000E-01  1.50000000E+00  1.50000000E+00  8.00000000E-01
  8.00000000E-01  1.50000000E+00  1.50000000E+00  8.00000000E-01  8.00000000E-01
  1.50000000E+00  1.50000000E+00  8.00000000E-01  8.00000000E-01  1.50000000E+00
  1.50000000E+00  8.00000000E-01  8.00000000E-01  1.50000000E+00  1.50000000E+00
  8.00000000E-01  8.00000000E-01  1.50000000E+00  1.50000000E+00  8.00000000E-01
  8.00000000E-01  1.50000000E+00  1.50000000E+00  8.00000000E-01  8.00000000E-01
  1.50000000E+00  1.50000000E+00  8.00000000E-01  8.00000000E-01  1.50000000E+00
  1.50000000E+00  8.00000000E-01  8.00000000E-01  1.50000000E+00  1.50000000E+00
  8.00000000E-01  8.00000000E-01  1.50000000E+00  1.50000000E+00  8.00000000E-01
  8.00000000E-01  1.50000000E+00  1.50000000E+00  8.00000000E-01  8.00000000E-01
  1.50000000E+00  1.50000000E+00  8.00000000E-01  8.00000000E-01  1.50000000E+00
  1.50000000E+00  8.00000000E-01  8.00000000E-01  1.50000000E+00  1.50000000E+00
  8.00000000E-01  8.00000000E-01  1.50000000E+00  1.50000000E+00  8.00000000E-01
  8.00000000E-01  1.50000000E+00  1.50000000E+00  8.00000000E-01  8.00000000E-01
  1.50000000E+00  1.50000000E+00  8.00000000E-01  8.00000000E-01  1.50000000E+00
  1.50000000E+00  8.00000000E-01  8.00000000E-01  1.50000000E+00  1.50000000E+00
  8.00000000E-01  8.00000000E-01  1.50000000E+00  1.50000000E+00  8.00000000E-01
  8.00000000E-01  1.50000000E+00  1.50000000E+00  8.00000000E-01  8.00000000E-01
  1.50000000E+00  1.50000000E+00  8.00000000E-01  8.00000000E-01  1.50000000E+00
  1.50000000E+00  8.00000000E-01  8.00000000E-01  1.50000000E+00  1.50000000E+00
  8.00000000E-01  8.00000000E-01  1.50000000E+00  1.50000000E+00  8.00000000E-01
  8.00000000E-01  1.50000000E+00  1.50000000E+00  8.00000000E-01  8.00000000E-01
  1.50000000E+00  1.50000000E+00  8.00000000E-01  8.00000000E-01  1.50000000E+00
  1.50000000E+00  8.00000000E-01  8.00000000E-01  1.50000000E+00  1.50000000E+00
  8.00000000E-01  8.00000000E-01  1.50000000E+00  1.50000000E+00  8.00000000E-01
  8.00000000E-01  1.50000000E+00  1.50000000E+00  8.00000000E-01  8.00000000E-01
  1.50000000E+00  1.50000000E+00  8.00000000E-01  8.00000000E-01  1.50000000E+00
  1.50000000E+00  8.00000000E-01  8.00000000E-01  1.50000000E+00  1.50000000E+00
  8.00000000E-01  8.00000000E-01  1.50000000E+00  1.50000000E+00  8.00000000E-01
  8.00000000E-01  1.50000000E+00  1.50000000E+00  8.00000000E-01  8.00000000E-01
  1.50000000E+00  1.50000000E+00  8.00000000E-01  8.00000000E-01  1.50000000E+00
  1.50000000E+00  8.00000000E-01  8.00000000E-01  1.50000000E+00  1.50000000E+00
  8.00000000E-01  8.00000000E-01  1.50000000E+00  1.50000000E+00  8.00000000E-01
  8.00000000E-01  1.50000000E+00  1.50000000E+00  8.00000000E-01  8.00000000E-01
  1.50000000E+00  1.50000000E+00  8.00000000E-01  8.00000000E-01  1.50000000E+00
  1.50000000E+00  8.00000000E-01  8.00000000E-01  1.50000000E+00  1.50000000E+00
  8.00000000E-01  8.00000000E-01  1.50000000E+00  1.50000000E+00  8.00000000E-01
  8.00000000E-01  1.50000000E+00  1.50000000E+00  8.00000000E-01  8.00000000E-01
  1.50000000E+00  1.50000000E+00  8.00000000E-01  8.00000000E-01  1.50000000E+00
  1.50000000E+00  8.00000000E-01  8.00000000E-01  1.50000000E+00  1.50000000E+00
  8.00000000E-01  8.00000000E-01  1.50000000E+00  1.50000000E+00  8.00000000E-01
  8.00000000E-01  1.50000000E+00  1.50000000E+00  8.00000000E-01  8.00000000E-01
  1.50000000E+00  1.50000000E+00  8.00000000E-01  8.00000000E-01  1.50000000E+00
  1.50000000E+00  8.00000000E-01  8.00000000E-01  1.50000000E+00  1.50000000E+00
  8.00000000E-01  8.00000000E-01  1.50000000E+00  1.50000000E+00  8.00000000E-01
  8.00000000E-01  1.50000000E+00  1.50000000E+00  8.00000000E-01  8.00000000E-01
  1.50000000E+00  1.50000000E+00  8.00000000E-01  8.00000000E-01  1.50000000E+00
  1.50000000E+00  8.00000000E-01  8.00000000E-01  1.50000000E+00  1.50000000E+00
  8.00000000E-01  8.00000000E-01  1.50000000E+00  1.50000000E+00  8.00000000E-01
  8.00000000E-01  1.50000000E+00  1.50000000E+00  8.00000000E-01  8.00000000E-01
  1.50000000E+00  1.50000000E+00  8.00000000E-01  8.00000000E-01  1.50000000E+00
  1.50000000E+00  8.00000000E-01  8.00000000E-01  1.50000000E+00  1.50000000E+00
  8.00000000E-01  8.00000000E-01  1.50000000E+00  1.50000000E+00  8.00000000E-01
  8.00000000E-01  1.50000000E+00  1.50000000E+00  8.00000000E-01  8.00000000E-01
  1.50000000E+00  1.50000000E+00  8.00000000E-01  8.00000000E-01  1.50000000E+00
  1.50000000E+00  8.00000000E-01  8.00000000E-01  1.50000000E+00  1.50000000E+00
  8.00000000E-01  8.00000000E-01  1.50000000E+00  1.50000000E+00  8.00000000E-01
  8.00000000E-01  1.50000000E+00  1.50000000E+00  8.00000000E-01  8.00000000E-01
  1.50000000E+00  1.50000000E+00  8.00000000E-01  8.00000000E-01  1.50000000E+00
  1.50000000E+00  8.00000000E-01  8.00000000E-01  1.50000000E+00  1.50000000E+00
  8.00000000E-01  8.00000000E-01  1.50000000E+00  1.50000000E+00  8.00000000E-01
  8.00000000E-01  1.50000000E+00  1.50000000E+00  8.00000000E-01  8.00000000E-01
  1.50000000E+00  1.50000000E+00  8.00000000E-01  8.00000000E-01  1.50000000E+00
  1.50000000E+00  8.00000000E-01  8.00000000E-01  1.50000000E+00  1.50000000E+00
  8.00000000E-01  8.00000000E-01  1.50000000E+00  1.50000000E+00  8.00000000E-01
  8.00000000E-01  1.50000000E+00  1.50000000E+00  8.00000000E-01  8.00000000E-01
  1.50000000E+00  1.50000000E+00  8.00000000E-01  8.00000000E-01  1.50000000E+00
  1.50000000E+00  8.00000000E-01  8.00000000E-01  1.50000000E+00  1.50000000E+00
  8.00000000E-01  8.00000000E-01  1.50000000E+00  1.50000000E+00  8.00000000E-01
  8.00000000E-01  1.50000000E+00  1.50000000E+00  8.00000000E-01  8.00000000E-01
  1.50000000E+00  1.50000000E+00  8.00000000E-01  8.00000000E-01  1.50000000E+00
  1.50000000E+00  8.00000000E-01  8.00000000E-01  1.50000000E+00  1.50000000E+00
  8.00000000E-01  8.00000000E-01  1.50000000E+00  1.50000000E+00  8.00000000E-01
  8.00000000E-01  1.50000000E+00  1.50000000E+00  8.00000000E-01  8.00000000E-01
  1.50000000E+00  1.50000000E+00  8.00000000E-01  8.00000000E-01  1.50000000E+00
  1.50000000E+00  8.00000000E-01  8.00000000E-01  1.50000000E+00  1.50000000E+00
  8.00000000E-01  8.00000000E-01  1.50000000E+00  1.50000000E+00  8.00000000E-01
  8.00000000E-01  1.50000000E+00  1.50000000E+00  8.00000000E-01  8.00000000E-01
  1.50000000E+00  1.50000000E+00  8.00000000E-01  8.00000000E-01  1.50000000E+00
  1.50000000E+00  8.00000000E-01  8.00000000E-01  1.50000000E+00  1.50000000E+00
  8.00000000E-01  8.00000000E-01  1.50000000E+00  1.50000000E+00  8.00000000E-01
  8.00000000E-01  1.50000000E+00  1.50000000E+00  8.00000000E-01  8.00000000E-01
  1.50000000E+00  1.50000000E+00  8.00000000E-01  8.00000000E-01  1.50000000E+00
  1.50000000E+00  8.00000000E-01  8.00000000E-01  1.50000000E+00  1.50000000E+00
  8.00000000E-01  8.00000000E-01  1.50000000E+00  1.50000000E+00  8.00000000E-01
  8.00000000E-01  1.50000000E+00  1.50000000E+00  8.00000000E-01  8.00000000E-01
  1.50000000E+00  1.50000000E+00  8.00000000E-01  8.00000000E-01  1.50000000E+00
  1.50000000E+00  8.00000000E-01  8.00000000E-01  1.50000000E+00  1.50000000E+00
  8.00000000E-01  8.00000000E-01  1.50000000E+00  1.50000000E+00  8.00000000E-01
  8.00000000E-01  1.50000000E+00  1.50000000E+00  8.00000000E-01  8.00000000E-01
  1.50000000E+00  1.50000000E+00  8.00000000E-01  8.00000000E-01  1.50000000E+00
  1.50000000E+00  8.00000000E-01  8.00000000E-01  1.50000000E+00  1.50000000E+00
  8.00000000E-01  8.00000000E-01  1.50000000E+00  1.50000000E+00  8.00000000E-01
  8.00000000E-01  1.50000000E+00  1.50000000E+00  8.00000000E-01  8.00000000E-01
  1.50000000E+00  1.50000000E+00  8.00000000E-01  8.00000000E-01  1.50000000E+00
  1.50000000E+00  8.00000000E-01  8.00000000E-01  1.50000000E+00  1.50000000E+00
  8.00000000E-01  8.00000000E-01  1.50000000E+00  1.50000000E+00  8.00000000E-01
  8.00000000E-01  1.50000000E+00  1.50000000E+00  8.00000000E-01  8.00000000E-01
  1.50000000E+00  1.50000000E+00  8.00000000E-01  8.00000000E-01  1.50000000E+00
  1.50000000E+00  8.00000000E-01  8.00000000E-01  1.50000000E+00  1.50000000E+00
  8.00000000E-01  8.00000000E-01  1.50000000E+00  1.50000000E+00  8.00000000E-01
  8.00000000E-01  1.50000000E+00  1.50000000E+00  8.00000000E-01  8.00000000E-01
  1.50000000E+00  1.50000000E+00  8.00000000E-01  8.00000000E-01  1.50000000E+00
  1.50000000E+00  8.00000000E-01  8.00000000E-01  1.50000000E+00  1.50000000E+00
  8.00000000E-01  8.00000000E-01  1.50000000E+00  1.50000000E+00  8.00000000E-01
  8.00000000E-01  1.50000000E+00  1.50000000E+00  8.00000000E-01  8.00000000E-01
  1.50000000E+00  1.50000000E+00  8.00000000E-01  8.00000000E-01  1.50000000E+00
  1.50000000E+00  8.00000000E-01  8.00000000E-01  1.50000000E+00  1.50000000E+00
  8.00000000E-01  8.00000000E-01  1.50000000E+00  1.50000000E+00  8.00000000E-01
  8.00000000E-01  1.50000000E+00  1.50000000E+00  8.00000000E-01  8.00000000E-01
  1.50000000E+00  1.50000000E+00  8.00000000E-01  8.00000000E-01  1.50000000E+00
  1.50000000E+00  8.00000000E-01  8.00000000E-01  1.50000000E+00  1.50000000E+00
  8.00000000E-01  8.00000000E-01  1.50000000E+00  1.50000000E+00  8.00000000E-01
  8.00000000E-01  1.50000000E+00  1.50000000E+00  8.00000000E-01  8.00000000E-01
  1.50000000E+00  1.50000000E+00  8.00000000E-01  8.00000000E-01  1.50000000E+00
  1.50000000E+00  8.00000000E-01  8.00000000E-01  1.50000000E+00  1.50000000E+00
  8.00000000E-01  8.00000000E-01  1.50000000E+00  1.50000000E+00  8.00000000E-01
  8.00000000E-01  1.50000000E+00  1.50000000E+00  8.00000000E-01  8.00000000E-01
  1.50000000E+00  1.50000000E+00  8.00000000E-01  8.00000000E-01  1.50000000E+00
  1.50000000E+00  8.00000000E-01  8.00000000E-01  1.50000000E+00  1.50000000E+00
  8.00000000E-01  8.00000000E-01  1.50000000E+00  1.50000000E+00  8.00000000E-01
  8.00000000E-01  1.50000000E+00  1.50000000E+00  8.00000000E-01  8.00000000E-01
  1.50000000E+00  1.50000000E+00  8.00000000E-01  8.00000000E-01  1.50000000E+00
  1.50000000E+00  8.00000000E-01  8.00000000E-01  1.50000000E+00  1.50000000E+00
  8.00000000E-01  8.00000000E-01  1.50000000E+00  1.50000000E+00  8.00000000E-01
  8.00000000E-01  1.50000000E+00  1.50000000E+00  8.00000000E-01  8.00000000E-01
  1.50000000E+00  1.50000000E+00  8.00000000E-01  8.00000000E-01  1.50000000E+00
  1.50000000E+00  8.00000000E-01  8.00000000E-01  1.50000000E+00  1.50000000E+00
  8.00000000E-01  8.00000000E-01  1.50000000E+00  1.50000000E+00  8.00000000E-01
  8.00000000E-01  1.50000000E+00  1.50000000E+00  8.00000000E-01  8.00000000E-01
  1.50000000E+00  1.50000000E+00  8.00000000E-01  8.00000000E-01  1.50000000E+00
  1.50000000E+00  8.00000000E-01  8.00000000E-01  1.50000000E+00  1.50000000E+00
  8.00000000E-01  8.00000000E-01  1.50000000E+00  1.50000000E+00  8.00000000E-01
  8.00000000E-01  1.50000000E+00  1.50000000E+00  8.00000000E-01  8.00000000E-01
  1.50000000E+00  1.50000000E+00  8.00000000E-01  8.00000000E-01  1.50000000E+00
  1.50000000E+00  8.00000000E-01  8.00000000E-01  1.50000000E+00  1.50000000E+00
  8.00000000E-01  8.00000000E-01  1.50000000E+00  1.50000000E+00  8.00000000E-01
  8.00000000E-01  1.50000000E+00  1.50000000E+00  8.00000000E-01  8.00000000E-01
  1.50000000E+00  1.50000000E+00  8.00000000E-01  8.00000000E-01  1.50000000E+00
  1.50000000E+00  8.00000000E-01  8.00000000E-01  1.50000000E+00  1.50000000E+00
  8.00000000E-01  8.00000000E-01  1.50000000E+00  1.50000000E+00  8.00000000E-01
  8.00000000E-01  1.50000000E+00  1.50000000E+00  8.00000000E-01  8.00000000E-01
  1.50000000E+00  1.50000000E+00  8.00000000E-01  8.00000000E-01  1.50000000E+00
  1.50000000E+00  8.00000000E-01  8.00000000E-01  1.50000000E+00  1.50000000E+00
  8.00000000E-01  8.00000000E-01  1.50000000E+00  1.50000000E+00  8.00000000E-01
  8.00000000E-01  1.50000000E+00  1.50000000E+00  8.00000000E-01  8.00000000E-01
  1.50000000E+00  1.50000000E+00  8.00000000E-01  8.00000000E-01  1.50000000E+00
  1.50000000E+00  8.00000000E-01  8.00000000E-01  1.50000000E+00  1.50000000E+00
  8.00000000E-01  8.00000000E-01  1.50000000E+00  1.50000000E+00  8.00000000E-01
  8.00000000E-01  1.50000000E+00  1.50000000E+00  8.00000000E-01  8.00000000E-01
  1.50000000E+00  1.50000000E+00  8.00000000E-01  8.00000000E-01  1.50000000E+00
  1.50000000E+00  8.00000000E-01  8.00000000E-01  1.50000000E+00  1.50000000E+00
  8.00000000E-01  8.00000000E-01  1.50000000E+00  1.50000000E+00  8.00000000E-01
  8.00000000E-01  1.50000000E+00  1.50000000E+00  8.00000000E-01  8.00000000E-01
  1.50000000E+00  1.50000000E+00  8.00000000E-01  8.00000000E-01  1.50000000E+00
  1.50000000E+00  8.00000000E-01  8.00000000E-01  1.50000000E+00  1.50000000E+00
  8.00000000E-01  8.00000000E-01  1.50000000E+00  1.50000000E+00  8.00000000E-01
  8.00000000E-01  1.50000000E+00  1.50000000E+00  8.00000000E-01  8.00000000E-01
  1.50000000E+00  1.50000000E+00  8.00000000E-01  8.00000000E-01  1.50000000E+00
  1.50000000E+00  8.00000000E-01  8.00000000E-01  1.50000000E+00  1.50000000E+00
  8.00000000E-01  8.00000000E-01  1.50000000E+00  1.50000000E+00  8.00000000E-01
  8.00000000E-01  1.50000000E+00  1.50000000E+00  8.00000000E-01  8.00000000E-01
  1.50000000E+00  1.50000000E+00  8.00000000E-01  8.00000000E-01  1.50000000E+00
  1.50000000E+00  8.00000000E-01  8.00000000E-01  1.50000000E+00  1.50000000E+00
  8.00000000E-01  8.00000000E-01  1.50000000E+00  1.50000000E+00  8.00000000E-01
  8.00000000E-01  1.50000000E+00  1.50000000E+00  8.00000000E-01  8.00000000E-01
  1.50000000E+00  1.50000000E+00  8.00000000E-01  8.00000000E-01  1.50000000E+00
  1.50000000E+00  8.00000000E-01  8.00000000E-01  1.50000000E+00  1.50000000E+00
  8.00000000E-01  8.00000000E-01  1.50000000E+00  1.50000000E+00  8.00000000E-01
  8.00000000E-01  1.50000000E+00  1.50000000E+00  8.00000000E-01  8.00000000E-01
  1.50000000E+00  1.50000000E+00  8.00000000E-01  8.00000000E-01  1.50000000E+00
  1.50000000E+00  8.00000000E-01  8.00000000E-01  1.50000000E+00  1.50000000E+00
  8.00000000E-01  8.00000000E-01  1.50000000E+00  1.50000000E+00  8.00000000E-01
  8.00000000E-01  1.50000000E+00  1.50000000E+00  8.00000000E-01  8.00000000E-01
  1.50000000E+00  1.50000000E+00  8.00000000E-01  8.00000000E-01  1.50000000E+00
  1.50000000E+00  8.00000000E-01  8.00000000E-01  1.50000000E+00  1.50000000E+00
  8.00000000E-01  8.00000000E-01  1.50000000E+00  1.50000000E+00  8.00000000E-01
  8.00000000E-01  1.50000000E+00  1.50000000E+00  8.00000000E-01  8.00000000E-01
  1.50000000E+00  1.50000000E+00  8.00000000E-01  8.00000000E-01  1.50000000E+00
  1.50000000E+00  8.00000000E-01  8.00000000E-01  1.50000000E+00  1.50000000E+00
  8.00000000E-01  8.00000000E-01  1.50000000E+00  1.50000000E+00  8.00000000E-01
  8.00000000E-01  1.50000000E+00  1.50000000E+00  8.00000000E-01  8.00000000E-01
  1.50000000E+00  1.50000000E+00  8.00000000E-01  8.00000000E-01  1.50000000E+00
  1.50000000E+00  8.00000000E-01  8.00000000E-01  1.50000000E+00  1.50000000E+00
  8.00000000E-01  8.00000000E-01  1.50000000E+00  1.50000000E+00  8.00000000E-01
  8.00000000E-01  1.50000000E+00  1.50000000E+00  8.00000000E-01  8.00000000E-01
  1.50000000E+00  1.50000000E+00  8.00000000E-01  8.00000000E-01  1.50000000E+00
  1.50000000E+00  8.00000000E-01  8.00000000E-01  1.50000000E+00  1.50000000E+00
  8.00000000E-01  8.00000000E-01  1.50000000E+00  1.50000000E+00  8.00000000E-01
  8.00000000E-01  1.50000000E+00  1.50000000E+00  8.00000000E-01  8.00000000E-01
  1.50000000E+00  1.50000000E+00  8.00000000E-01  8.00000000E-01  1.50000000E+00
  1.50000000E+00  8.00000000E-01  8.00000000E-01  1.50000000E+00  1.50000000E+00
  8.00000000E-01  8.00000000E-01  1.50000000E+00  1.50000000E+00  8.00000000E-01
  8.00000000E-01  1.50000000E+00  1.50000000E+00  8.00000000E-01  8.00000000E-01
  1.50000000E+00  1.50000000E+00  8.00000000E-01  8.00000000E-01  1.50000000E+00
  1.50000000E+00  8.00000000E-01  8.00000000E-01  1.50000000E+00  1.50000000E+00
  8.00000000E-01  8.00000000E-01  1.50000000E+00  1.50000000E+00  8.00000000E-01
  8.00000000E-01  1.50000000E+00  1.50000000E+00  8.00000000E-01  8.00000000E-01
  1.50000000E+00  1.50000000E+00  8.00000000E-01  8.00000000E-01  1.50000000E+00
  1.50000000E+00  8.00000000E-01  8.00000000E-01  1.50000000E+00  1.50000000E+00
  8.00000000E-01  8.00000000E-01  1.50000000E+00  1.50000000E+00  8.00000000E-01
  8.00000000E-01  1.50000000E+00  1.50000000E+00  8.00000000E-01  8.00000000E-01
  1.50000000E+00  1.50000000E+00  8.00000000E-01  8.00000000E-01  1.50000000E+00
  1.50000000E+00  8.00000000E-01  8.00000000E-01  1.50000000E+00  1.50000000E+00
  8.00000000E-01  8.00000000E-01  1.50000000E+00  1.50000000E+00  8.00000000E-01
  8.00000000E-01  1.50000000E+00  1.50000000E+00  8.00000000E-01  8.00000000E-01
  1.50000000E+00  1.50000000E+00  8.00000000E-01  8.00000000E-01  1.50000000E+00
  1.50000000E+00  8.00000000E-01  8.00000000E-01  1.50000000E+00  1.50000000E+00
  8.00000000E-01  8.00000000E-01  1.50000000E+00  1.50000000E+00  8.00000000E-01
  8.00000000E-01  1.50000000E+00  1.50000000E+00  8.00000000E-01  8.00000000E-01
  1.50000000E+00  1.50000000E+00  8.00000000E-01  8.00000000E-01  1.50000000E+00
  1.50000000E+00  8.00000000E-01  8.00000000E-01  1.50000000E+00  1.50000000E+00
  8.00000000E-01  8.00000000E-01  1.50000000E+00  1.50000000E+00  8.00000000E-01
  8.00000000E-01  1.50000000E+00  1.50000000E+00  8.00000000E-01  8.00000000E-01
  1.50000000E+00  1.50000000E+00  8.00000000E-01  8.00000000E-01  1.50000000E+00
  1.50000000E+00  8.00000000E-01  8.00000000E-01  1.50000000E+00  1.50000000E+00
  8.00000000E-01  8.00000000E-01  1.50000000E+00  1.50000000E+00  8.00000000E-01
  8.00000000E-01  1.50000000E+00  1.50000000E+00  8.00000000E-01  8.00000000E-01
  1.50000000E+00  1.50000000E+00  8.00000000E-01  8.00000000E-01  1.50000000E+00
  1.50000000E+00  8.00000000E-01  8.00000000E-01  1.50000000E+00  1.50000000E+00
  8.00000000E-01  8.00000000E-01  1.50000000E+00  1.50000000E+00  8.00000000E-01
  8.00000000E-01  1.50000000E+00  1.50000000E+00  8.00000000E-01  8.00000000E-01
  1.50000000E+00  1.50000000E+00  8.00000000E-01  8.00000000E-01  1.50000000E+00
  1.50000000E+00  8.00000000E-01  8.00000000E-01  1.50000000E+00  1.50000000E+00
  8.00000000E-01  8.00000000E-01  1.50000000E+00  1.50000000E+00  8.00000000E-01
  8.00000000E-01  1.50000000E+00  1.50000000E+00  8.00000000E-01  8.00000000E-01
  1.50000000E+00  1.50000000E+00  8.00000000E-01  8.00000000E-01  1.50000000E+00
  1.50000000E+00  8.00000000E-01  8.00000000E-01  1.50000000E+00  1.50000000E+00
  8.00000000E-01  8.00000000E-01  1.50000000E+00  1.50000000E+00  8.00000000E-01
  8.00000000E-01  1.50000000E+00  1.50000000E+00  8.00000000E-01  8.00000000E-01
  1.50000000E+00  1.50000000E+00  8.00000000E-01  8.00000000E-01  1.50000000E+00
  1.50000000E+00  8.00000000E-01  8.00000000E-01  1.50000000E+00  1.50000000E+00
  8.00000000E-01  8.00000000E-01  1.50000000E+00  1.50000000E+00  8.00000000E-01
  8.00000000E-01  1.50000000E+00  1.50000000E+00  8.00000000E-01  8.00000000E-01
  1.50000000E+00  1.50000000E+00  8.00000000E-01  8.00000000E-01  1.50000000E+00
  1.50000000E+00  8.00000000E-01  8.00000000E-01  1.50000000E+00  1.50000000E+00
  8.00000000E-01  8.00000000E-01  1.50000000E+00  1.50000000E+00  8.00000000E-01
  8.00000000E-01  1.50000000E+00  1.50000000E+00  8.00000000E-01  8.00000000E-01
  1.50000000E+00  1.50000000E+00  8.00000000E-01  8.00000000E-01  1.50000000E+00
  1.50000000E+00  8.00000000E-01  8.00000000E-01  1.50000000E+00  1.50000000E+00
  8.00000000E-01  8.00000000E-01  1.50000000E+00  1.50000000E+00  8.00000000E-01
  8.00000000E-01  1.50000000E+00  1.50000000E+00  8.00000000E-01  8.00000000E-01
  1.50000000E+00  1.50000000E+00  8.00000000E-01  8.00000000E-01  1.50000000E+00
  1.50000000E+00  8.00000000E-01  8.00000000E-01  1.50000000E+00  1.50000000E+00
  8.00000000E-01  8.00000000E-01  1.50000000E+00  1.50000000E+00  8.00000000E-01
  8.00000000E-01  1.50000000E+00  1.50000000E+00  8.00000000E-01  8.00000000E-01
  1.50000000E+00  1.50000000E+00  8.00000000E-01  8.00000000E-01  1.50000000E+00
  1.50000000E+00  8.00000000E-01  8.00000000E-01  1.50000000E+00  1.50000000E+00
  8.00000000E-01  8.00000000E-01  1.50000000E+00  1.50000000E+00  8.00000000E-01
  8.00000000E-01  1.50000000E+00  1.50000000E+00  8.00000000E-01  8.00000000E-01
  1.50000000E+00  1.50000000E+00  8.00000000E-01  8.00000000E-01  1.50000000E+00
  1.50000000E+00  8.00000000E-01  8.00000000E-01  1.50000000E+00  1.50000000E+00
  8.00000000E-01  8.00000000E-01  1.50000000E+00  1.50000000E+00  8.00000000E-01
  8.00000000E-01  1.50000000E+00  1.50000000E+00  8.00000000E-01  8.00000000E-01
  1.50000000E+00  1.50000000E+00  8.00000000E-01  8.00000000E-01  1.50000000E+00
  1.50000000E+00  8.00000000E-01  8.00000000E-01  1.50000000E+00  1.50000000E+00
  8.00000000E-01  8.00000000E-01  1.50000000E+00  1.50000000E+00  8.00000000E-01
  8.00000000E-01  1.50000000E+00  1.50000000E+00  8.00000000E-01  8.00000000E-01
  1.50000000E+00  1.50000000E+00  8.00000000E-01  8.00000000E-01  1.50000000E+00
  1.50000000E+00  8.00000000E-01  8.00000000E-01  1.50000000E+00  1.50000000E+00
  8.00000000E-01  8.00000000E-01  1.50000000E+00  1.50000000E+00  8.00000000E-01
  8.00000000E-01  1.50000000E+00  1.50000000E+00  8.00000000E-01  8.00000000E-01
  1.50000000E+00  1.50000000E+00  8.00000000E-01  8.00000000E-01  1.50000000E+00
  1.50000000E+00  8.00000000E-01  8.00000000E-01  1.50000000E+00  1.50000000E+00
  8.00000000E-01  8.00000000E-01  1.50000000E+00  1.50000000E+00  8.00000000E-01
  8.00000000E-01  1.50000000E+00  1.50000000E+00  8.00000000E-01  8.00000000E-01
  1.50000000E+00  1.50000000E+00  8.00000000E-01  8.00000000E-01  1.50000000E+00
  1.50000000E+00  8.00000000E-01  8.00000000E-01  1.50000000E+00  1.50000000E+00
  8.00000000E-01  8.00000000E-01  1.50000000E+00  1.50000000E+00  8.00000000E-01
  8.00000000E-01  1.50000000E+00  1.50000000E+00  8.00000000E-01  8.00000000E-01
  1.50000000E+00  1.50000000E+00  8.00000000E-01  8.00000000E-01  1.50000000E+00
  1.50000000E+00  8.00000000E-01  8.00000000E-01  1.50000000E+00  1.50000000E+00
  8.00000000E-01  8.00000000E-01  1.50000000E+00  1.50000000E+00  8.00000000E-01
  8.00000000E-01  1.50000000E+00  1.50000000E+00  8.00000000E-01  8.00000000E-01
  1.50000000E+00  1.50000000E+00  8.00000000E-01  8.00000000E-01  1.50000000E+00
  1.50000000E+00  8.00000000E-01  8.00000000E-01  1.50000000E+00  1.50000000E+00
  8.00000000E-01  8.00000000E-01  1.50000000E+00  1.50000000E+00  8.00000000E-01
  8.00000000E-01  1.50000000E+00  1.50000000E+00  8.00000000E-01  8.00000000E-01
  1.50000000E+00  1.50000000E+00  8.00000000E-01  8.00000000E-01  1.50000000E+00
  1.50000000E+00  8.00000000E-01  8.00000000E-01  1.50000000E+00  1.50000000E+00
  8.00000000E-01  8.00000000E-01  1.50000000E+00  1.50000000E+00  8.00000000E-01
  8.00000000E-01  1.50000000E+00  1.50000000E+00  8.00000000E-01  8.00000000E-01
  1.50000000E+00  1.50000000E+00  8.00000000E-01  8.00000000E-01  1.50000000E+00
  1.50000000E+00  8.00000000E-01  8.00000000E-01  1.50000000E+00  1.50000000E+00
  8.00000000E-01  8.00000000E-01  1.50000000E+00  1.50000000E+00  8.00000000E-01
  8.00000000E-01  1.50000000E+00  1.50000000E+00  8.00000000E-01  8.00000000E-01
  1.50000000E+00  1.50000000E+00  8.00000000E-01  8.00000000E-01  1.50000000E+00
  1.50000000E+00  8.00000000E-01  8.00000000E-01  1.50000000E+00  1.50000000E+00
  8.00000000E-01  8.00000000E-01  1.50000000E+00  1.50000000E+00  8.00000000E-01
  8.00000000E-01  1.50000000E+00  1.50000000E+00  8.00000000E-01  8.00000000E-01
  1.50000000E+00  1.50000000E+00  8.00000000E-01  8.00000000E-01  1.50000000E+00
  1.50000000E+00  8.00000000E-01  8.00000000E-01  1.50000000E+00  1.50000000E+00
  8.00000000E-01  8.00000000E-01  1.50000000E+00  1.50000000E+00  8.00000000E-01
  8.00000000E-01  1.50000000E+00  1.50000000E+00  8.00000000E-01  8.00000000E-01
  1.50000000E+00  1.50000000E+00  8.00000000E-01  8.00000000E-01  1.50000000E+00
  1.50000000E+00  8.00000000E-01  8.00000000E-01  1.50000000E+00  1.50000000E+00
  8.00000000E-01  8.00000000E-01  1.50000000E+00  1.50000000E+00  8.00000000E-01
  8.00000000E-01  1.50000000E+00  1.50000000E+00  8.00000000E-01  8.00000000E-01
  1.50000000E+00  1.50000000E+00  8.00000000E-01  8.00000000E-01  1.50000000E+00
  1.50000000E+00  8.00000000E-01  8.00000000E-01  1.50000000E+00  1.50000000E+00
  8.00000000E-01  8.00000000E-01  1.50000000E+00  1.50000000E+00  8.00000000E-01
  8.00000000E-01  1.50000000E+00  1.50000000E+00  8.00000000E-01  8.00000000E-01
  1.50000000E+00  1.50000000E+00  8.00000000E-01  8.00000000E-01  1.50000000E+00
  1.50000000E+00  8.00000000E-01  8.00000000E-01  1.50000000E+00  1.50000000E+00
  8.00000000E-01  8.00000000E-01  1.50000000E+00  1.50000000E+00  8.00000000E-01
  8.00000000E-01  1.50000000E+00  1.50000000E+00  8.00000000E-01  8.00000000E-01
  1.50000000E+00  1.50000000E+00  8.00000000E-01  8.00000000E-01  1.50000000E+00
  1.50000000E+00  8.00000000E-01  8.00000000E-01  1.50000000E+00  1.50000000E+00
  8.00000000E-01  8.00000000E-01  1.50000000E+00  1.50000000E+00  8.00000000E-01
  8.00000000E-01  1.50000000E+00  1.50000000E+00  8.00000000E-01  8.00000000E-01
  1.50000000E+00  1.50000000E+00  8.00000000E-01  8.00000000E-01  1.50000000E+00
  1.50000000E+00  8.00000000E-01  8.00000000E-01  1.50000000E+00  1.50000000E+00
  8.00000000E-01  8.00000000E-01  1.50000000E+00  1.50000000E+00  8.00000000E-01
  8.00000000E-01  1.50000000E+00  1.50000000E+00  8.00000000E-01  8.00000000E-01
  1.50000000E+00  1.50000000E+00  8.00000000E-01  8.00000000E-01  1.50000000E+00
  1.50000000E+00  8.00000000E-01  8.00000000E-01  1.50000000E+00  1.50000000E+00
  8.00000000E-01  8.00000000E-01  1.50000000E+00  1.50000000E+00  8.00000000E-01
  8.00000000E-01  1.50000000E+00  1.50000000E+00  8.00000000E-01  8.00000000E-01
  1.50000000E+00  1.50000000E+00  8.00000000E-01  8.00000000E-01  1.50000000E+00
  1.50000000E+00  8.00000000E-01  8.00000000E-01  1.50000000E+00  1.50000000E+00
  8.00000000E-01  8.00000000E-01  1.50000000E+00  1.50000000E+00  8.00000000E-01
  8.00000000E-01  1.50000000E+00  1.50000000E+00  8.00000000E-01  8.00000000E-01
  1.50000000E+00  1.50000000E+00  8.00000000E-01  8.00000000E-01  1.50000000E+00
  1.50000000E+00  8.00000000E-01  8.00000000E-01  1.50000000E+00  1.50000000E+00
  8.00000000E-01  8.00000000E-01  1.50000000E+00  1.50000000E+00  8.00000000E-01
  8.00000000E-01  1.50000000E+00  1.50000000E+00  8.00000000E-01  8.00000000E-01
  1.50000000E+00  1.50000000E+00  8.00000000E-01  8.00000000E-01  1.50000000E+00
  1.50000000E+00  8.00000000E-01  8.00000000E-01  1.50000000E+00  1.50000000E+00
  8.00000000E-01  8.00000000E-01  1.50000000E+00  1.50000000E+00  8.00000000E-01
  8.00000000E-01  1.50000000E+00  1.50000000E+00  8.00000000E-01  8.00000000E-01
  1.50000000E+00  1.50000000E+00  8.00000000E-01  8.00000000E-01  1.50000000E+00
  1.50000000E+00  8.00000000E-01  8.00000000E-01  1.50000000E+00  1.50000000E+00
  8.00000000E-01  8.00000000E-01  1.50000000E+00  1.50000000E+00  8.00000000E-01
  8.00000000E-01  1.50000000E+00  1.50000000E+00  8.00000000E-01  8.00000000E-01
  1.50000000E+00  1.50000000E+00  8.00000000E-01  8.00000000E-01  1.50000000E+00
  1.50000000E+00  8.00000000E-01  8.00000000E-01  1.50000000E+00  1.50000000E+00
  8.00000000E-01  8.00000000E-01  1.50000000E+00  1.50000000E+00  8.00000000E-01
  8.00000000E-01  1.50000000E+00  1.50000000E+00  8.00000000E-01  8.00000000E-01
  1.50000000E+00  1.50000000E+00  8.00000000E-01  8.00000000E-01  1.50000000E+00
  1.50000000E+00  8.00000000E-01  8.00000000E-01  1.50000000E+00  1.50000000E+00
  8.00000000E-01  8.00000000E-01  1.50000000E+00  1.50000000E+00  8.00000000E-01
  8.00000000E-01  1.50000000E+00  1.50000000E+00  8.00000000E-01  8.00000000E-01
  1.50000000E+00  1.50000000E+00  8.00000000E-01  8.00000000E-01  1.50000000E+00
  1.50000000E+00  8.00000000E-01  8.00000000E-01  1.50000000E+00  1.50000000E+00
  8.00000000E-01  8.00000000E-01  1.50000000E+00  1.50000000E+00  8.00000000E-01
  8.00000000E-01  1.50000000E+00  1.50000000E+00  8.00000000E-01  8.00000000E-01
  1.50000000E+00  1.50000000E+00  8.00000000E-01  8.00000000E-01  1.50000000E+00
  1.50000000E+00  8.00000000E-01  8.00000000E-01  1.50000000E+00  1.50000000E+00
  8.00000000E-01  8.00000000E-01  1.50000000E+00  1.50000000E+00  8.00000000E-01
  8.00000000E-01  1.50000000E+00  1.50000000E+00  8.00000000E-01  8.00000000E-01
  1.50000000E+00  1.50000000E+00  8.00000000E-01  8.00000000E-01  1.50000000E+00
  1.50000000E+00  8.00000000E-01  8.00000000E-01  1.50000000E+00  1.50000000E+00
  8.00000000E-01  8.00000000E-01  1.50000000E+00  1.50000000E+00  8.00000000E-01
  8.00000000E-01  1.50000000E+00  1.50000000E+00  8.00000000E-01  8.00000000E-01
  1.50000000E+00  1.50000000E+00  8.00000000E-01  8.00000000E-01  1.50000000E+00
  1.50000000E+00  8.00000000E-01  8.00000000E-01  1.50000000E+00  1.50000000E+00
  8.00000000E-01  8.00000000E-01  1.50000000E+00  1.50000000E+00  8.00000000E-01
  8.00000000E-01  1.50000000E+00  1.50000000E+00  8.00000000E-01  8.00000000E-01
  1.50000000E+00  1.50000000E+00  8.00000000E-01  8.00000000E-01  1.50000000E+00
  1.50000000E+00  8.00000000E-01  8.00000000E-01  1.50000000E+00  1.50000000E+00
  8.00000000E-01  8.00000000E-01  1.50000000E+00  1.50000000E+00  8.00000000E-01
  8.00000000E-01  1.50000000E+00  1.50000000E+00  8.00000000E-01  8.00000000E-01
  1.50000000E+00  1.50000000E+00  8.00000000E-01  8.00000000E-01  1.50000000E+00
  1.50000000E+00  8.00000000E-01  8.00000000E-01  1.50000000E+00  1.50000000E+00
  8.00000000E-01  8.00000000E-01  1.50000000E+00  1.50000000E+00  8.00000000E-01
  8.00000000E-01  1.50000000E+00  1.50000000E+00  8.00000000E-01  8.00000000E-01
  1.50000000E+00  1.50000000E+00  8.00000000E-01  8.00000000E-01  1.50000000E+00
  1.50000000E+00  8.00000000E-01  8.00000000E-01  1.50000000E+00  1.50000000E+00
  8.00000000E-01  8.00000000E-01  1.50000000E+00  1.50000000E+00  8.00000000E-01
  8.00000000E-01  1.50000000E+00  1.50000000E+00  8.00000000E-01  8.00000000E-01
  1.50000000E+00  1.50000000E+00  8.00000000E-01  8.00000000E-01  1.50000000E+00
  1.50000000E+00  8.00000000E-01  8.00000000E-01  1.50000000E+00  1.50000000E+00
  8.00000000E-01  8.00000000E-01  1.50000000E+00  1.50000000E+00  8.00000000E-01
  8.00000000E-01  1.50000000E+00  1.50000000E+00  8.00000000E-01  8.00000000E-01
  1.50000000E+00  1.50000000E+00  8.00000000E-01  8.00000000E-01  1.50000000E+00
  1.50000000E+00  8.00000000E-01  8.00000000E-01  1.50000000E+00  1.50000000E+00
  8.00000000E-01  8.00000000E-01  1.50000000E+00  1.50000000E+00  8.00000000E-01
  8.00000000E-01  1.50000000E+00  1.50000000E+00  8.00000000E-01  8.00000000E-01
  1.50000000E+00  1.50000000E+00  8.00000000E-01  8.00000000E-01  1.50000000E+00
  1.50000000E+00  8.00000000E-01  8.00000000E-01  1.50000000E+00  1.50000000E+00
  8.00000000E-01  8.00000000E-01  1.50000000E+00  1.50000000E+00  8.00000000E-01
  8.00000000E-01  1.50000000E+00  1.50000000E+00  8.00000000E-01  8.00000000E-01
  1.50000000E+00  1.50000000E+00  8.00000000E-01  8.00000000E-01  1.50000000E+00
  1.50000000E+00  8.00000000E-01  8.00000000E-01  1.50000000E+00  1.50000000E+00
  8.00000000E-01  8.00000000E-01  1.50000000E+00  1.50000000E+00  8.00000000E-01
  8.00000000E-01  1.50000000E+00  1.50000000E+00  8.00000000E-01  8.00000000E-01
  1.50000000E+00  1.50000000E+00  8.00000000E-01  8.00000000E-01  1.50000000E+00
  1.50000000E+00  8.00000000E-01  8.00000000E-01  1.50000000E+00  1.50000000E+00
  8.00000000E-01  8.00000000E-01  1.50000000E+00  1.50000000E+00  8.00000000E-01
  8.00000000E-01  1.50000000E+00  1.50000000E+00  8.00000000E-01  8.00000000E-01
  1.50000000E+00  1.50000000E+00  8.00000000E-01  8.00000000E-01  1.50000000E+00
  1.50000000E+00  8.00000000E-01  8.00000000E-01  1.50000000E+00  1.50000000E+00
  8.00000000E-01  8.00000000E-01  1.50000000E+00  1.50000000E+00  8.00000000E-01
  8.00000000E-01  1.50000000E+00  1.50000000E+00  8.00000000E-01  8.00000000E-01
  1.50000000E+00  1.50000000E+00  8.00000000E-01  8.00000000E-01  1.50000000E+00
  1.50000000E+00  8.00000000E-01  8.00000000E-01  1.50000000E+00  1.50000000E+00
  8.00000000E-01  8.00000000E-01  1.50000000E+00  1.50000000E+00  8.00000000E-01
  8.00000000E-01  1.50000000E+00  1.50000000E+00  8.00000000E-01  8.00000000E-01
  1.50000000E+00  1.50000000E+00  8.00000000E-01  8.00000000E-01  1.50000000E+00
  1.50000000E+00  8.00000000E-01  8.00000000E-01  1.50000000E+00  1.50000000E+00
  8.00000000E-01  8.00000000E-01  1.50000000E+00  1.50000000E+00  8.00000000E-01
  8.00000000E-01  1.50000000E+00  1.50000000E+00  8.00000000E-01  8.00000000E-01
  1.50000000E+00  1.50000000E+00  8.00000000E-01  8.00000000E-01  1.50000000E+00
  1.50000000E+00  8.00000000E-01  8.00000000E-01  1.50000000E+00  1.50000000E+00
  8.00000000E-01  8.00000000E-01  1.50000000E+00  1.50000000E+00  8.00000000E-01
  8.00000000E-01  1.50000000E+00  1.50000000E+00  8.00000000E-01  8.00000000E-01
  1.50000000E+00  1.50000000E+00  8.00000000E-01  8.00000000E-01  1.50000000E+00
  1.50000000E+00  8.00000000E-01  8.00000000E-01  1.50000000E+00  1.50000000E+00
  8.00000000E-01  8.00000000E-01  1.50000000E+00  1.50000000E+00  8.00000000E-01
  8.00000000E-01  1.50000000E+00  1.50000000E+00  8.00000000E-01  8.00000000E-01
  1.50000000E+00  1.50000000E+00  8.00000000E-01  8.00000000E-01  1.50000000E+00
  1.50000000E+00  8.00000000E-01  8.00000000E-01  1.50000000E+00  1.50000000E+00
  8.00000000E-01  8.00000000E-01  1.50000000E+00  1.50000000E+00  8.00000000E-01
  8.00000000E-01  1.50000000E+00  1.50000000E+00  8.00000000E-01  8.00000000E-01
  1.50000000E+00  1.50000000E+00  8.00000000E-01  8.00000000E-01  1.50000000E+00
  1.50000000E+00  8.00000000E-01  8.00000000E-01  1.50000000E+00  1.50000000E+00
  8.00000000E-01  8.00000000E-01  1.50000000E+00  1.50000000E+00  8.00000000E-01
  8.00000000E-01  1.50000000E+00  1.50000000E+00  8.00000000E-01  8.00000000E-01
  1.50000000E+00  1.50000000E+00  8.00000000E-01  8.00000000E-01  1.50000000E+00
  1.50000000E+00  8.00000000E-01  8.00000000E-01  1.50000000E+00  1.50000000E+00
  8.00000000E-01  8.00000000E-01  1.50000000E+00  1.50000000E+00  8.00000000E-01
  8.00000000E-01  1.50000000E+00  1.50000000E+00  8.00000000E-01  8.00000000E-01
  1.50000000E+00  1.50000000E+00  8.00000000E-01  8.00000000E-01  1.50000000E+00
  1.50000000E+00  8.00000000E-01  8.00000000E-01  1.50000000E+00  1.50000000E+00
  8.00000000E-01  8.00000000E-01  1.50000000E+00  1.50000000E+00  8.00000000E-01
  8.00000000E-01  1.50000000E+00  1.50000000E+00  8.00000000E-01  8.00000000E-01
  1.50000000E+00  1.50000000E+00  8.00000000E-01  8.00000000E-01  1.50000000E+00
  1.50000000E+00  8.00000000E-01  8.00000000E-01  1.50000000E+00  1.50000000E+00
  8.00000000E-01  8.00000000E-01  1.50000000E+00  1.50000000E+00  8.00000000E-01
  8.00000000E-01  1.50000000E+00  1.50000000E+00  8.00000000E-01  8.00000000E-01
  1.50000000E+00  1.50000000E+00  8.00000000E-01  8.00000000E-01  1.50000000E+00
  1.50000000E+00  8.00000000E-01  8.00000000E-01  1.50000000E+00  1.50000000E+00
  8.00000000E-01  8.00000000E-01  1.50000000E+00  1.50000000E+00  8.00000000E-01
  8.00000000E-01  1.50000000E+00  1.50000000E+00  8.00000000E-01  8.00000000E-01
  1.50000000E+00  1.50000000E+00  8.00000000E-01  8.00000000E-01  1.50000000E+00
  1.50000000E+00  8.00000000E-01  8.00000000E-01  1.50000000E+00  1.50000000E+00
  8.00000000E-01  8.00000000E-01  1.50000000E+00  1.50000000E+00  8.00000000E-01
  8.00000000E-01  1.50000000E+00  1.50000000E+00  8.00000000E-01  8.00000000E-01
  1.50000000E+00  1.50000000E+00  8.00000000E-01  8.00000000E-01  1.50000000E+00
  1.50000000E+00  8.00000000E-01  8.00000000E-01  1.50000000E+00  1.50000000E+00
  8.00000000E-01  8.00000000E-01  1.50000000E+00  1.50000000E+00  8.00000000E-01
  8.00000000E-01  1.50000000E+00  1.50000000E+00  8.00000000E-01  8.00000000E-01
  1.50000000E+00  1.50000000E+00  8.00000000E-01  8.00000000E-01  1.50000000E+00
  1.50000000E+00  8.00000000E-01  8.00000000E-01  1.50000000E+00  1.50000000E+00
  8.00000000E-01  8.00000000E-01  1.50000000E+00  1.50000000E+00  8.00000000E-01
  8.00000000E-01  1.50000000E+00  1.50000000E+00  8.00000000E-01  8.00000000E-01
  1.50000000E+00  1.50000000E+00  8.00000000E-01  8.00000000E-01  1.50000000E+00
  1.50000000E+00  8.00000000E-01  8.00000000E-01  1.50000000E+00  1.50000000E+00
  8.00000000E-01  8.00000000E-01  1.50000000E+00  1.50000000E+00  8.00000000E-01
  8.00000000E-01  1.50000000E+00  1.50000000E+00  8.00000000E-01  8.00000000E-01
  1.50000000E+00  1.50000000E+00  8.00000000E-01  8.00000000E-01  1.50000000E+00
  1.50000000E+00  8.00000000E-01  8.00000000E-01  1.50000000E+00  1.50000000E+00
  8.00000000E-01  8.00000000E-01  1.50000000E+00  1.50000000E+00  8.00000000E-01
  8.00000000E-01  1.50000000E+00  1.50000000E+00  8.00000000E-01  8.00000000E-01
  1.50000000E+00  1.50000000E+00  8.00000000E-01  8.00000000E-01  1.50000000E+00
  1.50000000E+00  8.00000000E-01  8.00000000E-01  1.50000000E+00  1.50000000E+00
  8.00000000E-01  8.00000000E-01  1.50000000E+00  1.50000000E+00  8.00000000E-01
  8.00000000E-01  1.50000000E+00  1.50000000E+00  8.00000000E-01  8.00000000E-01
  1.50000000E+00  1.50000000E+00  8.00000000E-01  8.00000000E-01  1.50000000E+00
  1.50000000E+00  8.00000000E-01  8.00000000E-01  1.50000000E+00  1.50000000E+00
  8.00000000E-01  8.00000000E-01  1.50000000E+00  1.50000000E+00  8.00000000E-01
  8.00000000E-01  1.50000000E+00  1.50000000E+00  8.00000000E-01  8.00000000E-01
  1.50000000E+00  1.50000000E+00  8.00000000E-01  8.00000000E-01  1.50000000E+00
  1.50000000E+00  8.00000000E-01  8.00000000E-01  1.50000000E+00  1.50000000E+00
  8.00000000E-01  8.00000000E-01  1.50000000E+00  1.50000000E+00  8.00000000E-01
  8.00000000E-01  1.50000000E+00  1.50000000E+00  8.00000000E-01  8.00000000E-01
  1.50000000E+00  1.50000000E+00  8.00000000E-01  8.00000000E-01  1.50000000E+00
  1.50000000E+00  8.00000000E-01  8.00000000E-01  1.50000000E+00  1.50000000E+00
  8.00000000E-01  8.00000000E-01  1.50000000E+00  1.50000000E+00  8.00000000E-01
  8.00000000E-01  1.50000000E+00  1.50000000E+00  8.00000000E-01  8.00000000E-01
  1.50000000E+00  1.50000000E+00  8.00000000E-01  8.00000000E-01  1.50000000E+00
  1.50000000E+00  8.00000000E-01  8.00000000E-01  1.50000000E+00  1.50000000E+00
  8.00000000E-01  8.00000000E-01  1.50000000E+00  1.50000000E+00  8.00000000E-01
  8.00000000E-01  1.50000000E+00  1.50000000E+00  8.00000000E-01  8.00000000E-01
  1.50000000E+00  1.50000000E+00  8.00000000E-01  8.00000000E-01  1.50000000E+00
  1.50000000E+00  8.00000000E-01  8.00000000E-01  1.50000000E+00  1.50000000E+00
  8.00000000E-01  8.00000000E-01  1.50000000E+00  1.50000000E+00  8.00000000E-01
  8.00000000E-01  1.50000000E+00  1.50000000E+00  8.00000000E-01  8.00000000E-01
  1.50000000E+00  1.50000000E+00  8.00000000E-01  8.00000000E-01  1.50000000E+00
  1.50000000E+00  8.00000000E-01  8.00000000E-01  1.50000000E+00  1.50000000E+00
  8.00000000E-01  8.00000000E-01  1.50000000E+00  1.50000000E+00  8.00000000E-01
  8.00000000E-01  1.50000000E+00  1.50000000E+00  8.00000000E-01  8.00000000E-01
  1.50000000E+00  1.50000000E+00  8.00000000E-01  8.00000000E-01  1.50000000E+00
  1.50000000E+00  8.00000000E-01  8.00000000E-01  1.50000000E+00  1.50000000E+00
  8.00000000E-01  8.00000000E-01  1.50000000E+00  1.50000000E+00  8.00000000E-01
  8.00000000E-01  1.50000000E+00  1.50000000E+00  8.00000000E-01  8.00000000E-01
  1.50000000E+00  1.50000000E+00  8.00000000E-01  8.00000000E-01  1.50000000E+00
  1.50000000E+00  8.00000000E-01  8.00000000E-01  1.50000000E+00  1.50000000E+00
  8.00000000E-01  8.00000000E-01  1.50000000E+00  1.50000000E+00  8.00000000E-01
  8.00000000E-01  1.50000000E+00  1.50000000E+00  8.00000000E-01  8.00000000E-01
  1.50000000E+00  1.50000000E+00  8.00000000E-01  8.00000000E-01  1.50000000E+00
  1.50000000E+00  8.00000000E-01  8.00000000E-01  1.50000000E+00  1.50000000E+00
  8.00000000E-01  8.00000000E-01  1.50000000E+00  1.50000000E+00  8.00000000E-01
  8.00000000E-01  1.50000000E+00  1.50000000E+00  8.00000000E-01  8.00000000E-01
  1.50000000E+00  1.50000000E+00  8.00000000E-01  8.00000000E-01  1.50000000E+00
  1.50000000E+00  8.00000000E-01  8.00000000E-01  1.50000000E+00  1.50000000E+00
  8.00000000E-01  8.00000000E-01  1.50000000E+00  1.50000000E+00  8.00000000E-01
  8.00000000E-01  1.50000000E+00  1.50000000E+00  8.00000000E-01  8.00000000E-01
  1.50000000E+00  1.50000000E+00  8.00000000E-01  8.00000000E-01  1.50000000E+00
  1.50000000E+00  8.00000000E-01  8.00000000E-01  1.50000000E+00  1.50000000E+00
  8.00000000E-01  8.00000000E-01  1.50000000E+00  1.50000000E+00  8.00000000E-01
  8.00000000E-01  1.50000000E+00  1.50000000E+00  8.00000000E-01  8.00000000E-01
  1.50000000E+00  1.50000000E+00  8.00000000E-01  8.00000000E-01  1.50000000E+00
  1.50000000E+00  8.00000000E-01  8.00000000E-01  1.50000000E+00  1.50000000E+00
  8.00000000E-01  8.00000000E-01  1.50000000E+00  1.50000000E+00  8.00000000E-01
  8.00000000E-01  1.50000000E+00  1.50000000E+00  8.00000000E-01  8.00000000E-01
  1.50000000E+00  1.50000000E+00  8.00000000E-01  8.00000000E-01  1.50000000E+00
  1.50000000E+00  8.00000000E-01  8.00000000E-01  1.50000000E+00  1.50000000E+00
  8.00000000E-01  8.00000000E-01  1.50000000E+00  1.50000000E+00  8.00000000E-01
  8.00000000E-01  1.50000000E+00  1.50000000E+00  8.00000000E-01  8.00000000E-01
  1.50000000E+00  1.50000000E+00  8.00000000E-01  8.00000000E-01  1.50000000E+00
  1.50000000E+00  8.00000000E-01  8.00000000E-01  1.50000000E+00  1.50000000E+00
  8.00000000E-01  8.00000000E-01  1.50000000E+00  1.50000000E+00  8.00000000E-01
  8.00000000E-01  1.50000000E+00  1.50000000E+00  8.00000000E-01  8.00000000E-01
  1.50000000E+00  1.50000000E+00  8.00000000E-01  8.00000000E-01  1.50000000E+00
  1.50000000E+00  8.00000000E-01  8.00000000E-01  1.50000000E+00  1.50000000E+00
  8.00000000E-01  8.00000000E-01  1.50000000E+00  1.50000000E+00  8.00000000E-01
  8.00000000E-01  1.50000000E+00  1.50000000E+00  8.00000000E-01  8.00000000E-01
  1.50000000E+00  1.50000000E+00  8.00000000E-01  8.00000000E-01  1.50000000E+00
  1.50000000E+00  8.00000000E-01  8.00000000E-01  1.50000000E+00  1.50000000E+00
  8.00000000E-01  8.00000000E-01  1.50000000E+00  1.50000000E+00  8.00000000E-01
  8.00000000E-01  1.50000000E+00  1.50000000E+00  8.00000000E-01  8.00000000E-01
  1.50000000E+00  1.50000000E+00  8.00000000E-01  8.00000000E-01  1.50000000E+00
  1.50000000E+00  8.00000000E-01  8.00000000E-01  1.50000000E+00  1.50000000E+00
  8.00000000E-01  8.00000000E-01  1.50000000E+00  1.50000000E+00  8.00000000E-01
  8.00000000E-01  1.50000000E+00  1.50000000E+00  8.00000000E-01  8.00000000E-01
  1.50000000E+00  1.50000000E+00  8.00000000E-01  8.00000000E-01  1.50000000E+00
  1.50000000E+00  8.00000000E-01  8.00000000E-01  1.50000000E+00  1.50000000E+00
  8.00000000E-01  8.00000000E-01  1.50000000E+00  1.50000000E+00  8.00000000E-01
  8.00000000E-01  1.50000000E+00  1.50000000E+00  8.00000000E-01  8.00000000E-01
  1.50000000E+00  1.50000000E+00  8.00000000E-01  8.00000000E-01  1.50000000E+00
  1.50000000E+00  8.00000000E-01  8.00000000E-01  1.50000000E+00  1.50000000E+00
  8.00000000E-01  8.00000000E-01  1.50000000E+00  1.50000000E+00  8.00000000E-01
  8.00000000E-01  1.50000000E+00  1.50000000E+00  8.00000000E-01  8.00000000E-01
  1.50000000E+00  1.50000000E+00  8.00000000E-01  8.00000000E-01  1.50000000E+00
  1.50000000E+00  8.00000000E-01  8.00000000E-01  1.50000000E+00  1.50000000E+00
  8.00000000E-01  8.00000000E-01  1.50000000E+00  1.50000000E+00  8.00000000E-01
  8.00000000E-01  1.50000000E+00  1.50000000E+00  8.00000000E-01  8.00000000E-01
  1.50000000E+00  1.50000000E+00  8.00000000E-01  8.00000000E-01  1.50000000E+00
  1.50000000E+00  8.00000000E-01  8.00000000E-01  1.50000000E+00  1.50000000E+00
  8.00000000E-01  8.00000000E-01  1.50000000E+00  1.50000000E+00  8.00000000E-01
  8.00000000E-01  1.50000000E+00  1.50000000E+00  8.00000000E-01  8.00000000E-01
  1.50000000E+00  1.50000000E+00  8.00000000E-01  8.00000000E-01  1.50000000E+00
  1.50000000E+00  8.00000000E-01  8.00000000E-01  1.50000000E+00  1.50000000E+00
  8.00000000E-01  8.00000000E-01  1.50000000E+00  1.50000000E+00  8.00000000E-01
  8.00000000E-01  1.50000000E+00  1.50000000E+00  8.00000000E-01  8.00000000E-01
  1.50000000E+00  1.50000000E+00  8.00000000E-01  8.00000000E-01  1.50000000E+00
  1.50000000E+00  8.00000000E-01  8.00000000E-01  1.50000000E+00  1.50000000E+00
  8.00000000E-01  8.00000000E-01  1.50000000E+00  1.50000000E+00  8.00000000E-01
  8.00000000E-01  1.50000000E+00  1.50000000E+00  8.00000000E-01  8.00000000E-01
  1.50000000E+00  1.50000000E+00  8.00000000E-01  8.00000000E-01  1.50000000E+00
  1.50000000E+00  8.00000000E-01  8.00000000E-01  1.50000000E+00  1.50000000E+00
  8.00000000E-01  8.00000000E-01  1.50000000E+00  1.50000000E+00  8.00000000E-01
  8.00000000E-01  1.50000000E+00  1.50000000E+00  8.00000000E-01  8.00000000E-01
  1.50000000E+00  1.50000000E+00  8.00000000E-01  8.00000000E-01  1.50000000E+00
  1.50000000E+00  8.00000000E-01  8.00000000E-01  1.50000000E+00  1.50000000E+00
  8.00000000E-01  8.00000000E-01  1.50000000E+00  1.50000000E+00  8.00000000E-01
  8.00000000E-01  1.50000000E+00  1.50000000E+00  8.00000000E-01  8.00000000E-01
  1.50000000E+00  1.50000000E+00  8.00000000E-01  8.00000000E-01  1.50000000E+00
  1.50000000E+00  8.00000000E-01  8.00000000E-01  1.50000000E+00  1.50000000E+00
  8.00000000E-01  8.00000000E-01  1.50000000E+00  1.50000000E+00  8.00000000E-01
  8.00000000E-01  1.50000000E+00  1.50000000E+00  8.00000000E-01  8.00000000E-01
  1.50000000E+00  1.50000000E+00  8.00000000E-01  8.00000000E-01  1.50000000E+00
  1.50000000E+00  8.00000000E-01  8.00000000E-01  1.50000000E+00  1.50000000E+00
  8.00000000E-01  8.00000000E-01  1.50000000E+00  1.50000000E+00  8.00000000E-01
  8.00000000E-01  1.50000000E+00  1.50000000E+00  8.00000000E-01  8.00000000E-01
  1.50000000E+00  1.50000000E+00  8.00000000E-01  8.00000000E-01  1.50000000E+00
  1.50000000E+00  8.00000000E-01  8.00000000E-01  1.50000000E+00  1.50000000E+00
  8.00000000E-01  8.00000000E-01  1.50000000E+00  1.50000000E+00  8.00000000E-01
  8.00000000E-01  1.50000000E+00  1.50000000E+00  8.00000000E-01  8.00000000E-01
  1.50000000E+00  1.50000000E+00  8.00000000E-01  8.00000000E-01  1.50000000E+00
  1.50000000E+00  8.00000000E-01  8.00000000E-01  1.50000000E+00  1.50000000E+00
  8.00000000E-01  8.00000000E-01  1.50000000E+00  1.50000000E+00  8.00000000E-01
  8.00000000E-01  1.50000000E+00  1.50000000E+00  8.00000000E-01  8.00000000E-01
  1.50000000E+00  1.50000000E+00  8.00000000E-01  8.00000000E-01  1.50000000E+00
  1.50000000E+00  8.00000000E-01  8.00000000E-01  1.50000000E+00  1.50000000E+00
  8.00000000E-01  8.00000000E-01  1.50000000E+00  1.50000000E+00  8.00000000E-01
  8.00000000E-01  1.50000000E+00  1.50000000E+00  8.00000000E-01  8.00000000E-01
  1.50000000E+00  1.50000000E+00  8.00000000E-01  8.00000000E-01  1.50000000E+00
  1.50000000E+00  8.00000000E-01  8.00000000E-01  1.50000000E+00  1.50000000E+00
  8.00000000E-01  8.00000000E-01  1.50000000E+00  1.50000000E+00  8.00000000E-01
  8.00000000E-01  1.50000000E+00  1.50000000E+00  8.00000000E-01  8.00000000E-01
  1.50000000E+00  1.50000000E+00  8.00000000E-01  8.00000000E-01  1.50000000E+00
  1.50000000E+00  8.00000000E-01  8.00000000E-01  1.50000000E+00  1.50000000E+00
  8.00000000E-01  8.00000000E-01  1.50000000E+00  1.50000000E+00  8.00000000E-01
  8.00000000E-01  1.50000000E+00  1.50000000E+00  8.00000000E-01  8.00000000E-01
  1.50000000E+00  1.50000000E+00  8.00000000E-01  8.00000000E-01  1.50000000E+00
  1.50000000E+00  8.00000000E-01  8.00000000E-01  1.50000000E+00  1.50000000E+00
  8.00000000E-01  8.00000000E-01  1.50000000E+00  1.50000000E+00  8.00000000E-01
  8.00000000E-01  1.50000000E+00  1.50000000E+00  8.00000000E-01  8.00000000E-01
  1.50000000E+00  1.50000000E+00  8.00000000E-01  8.00000000E-01  1.50000000E+00
  1.50000000E+00  8.00000000E-01  8.00000000E-01  1.50000000E+00  1.50000000E+00
  8.00000000E-01  8.00000000E-01  1.50000000E+00  1.50000000E+00  8.00000000E-01
  8.00000000E-01  1.50000000E+00  1.50000000E+00  8.00000000E-01  8.00000000E-01
  1.50000000E+00  1.50000000E+00  8.00000000E-01  8.00000000E-01  1.50000000E+00
  1.50000000E+00  8.00000000E-01  8.00000000E-01  1.50000000E+00  1.50000000E+00
  8.00000000E-01  8.00000000E-01  1.50000000E+00  1.50000000E+00  8.00000000E-01
  8.00000000E-01  1.50000000E+00  1.50000000E+00  8.00000000E-01  8.00000000E-01
  1.50000000E+00  1.50000000E+00  8.00000000E-01  8.00000000E-01  1.50000000E+00
  1.50000000E+00  8.00000000E-01  8.00000000E-01  1.50000000E+00  1.50000000E+00
  8.00000000E-01  8.00000000E-01  1.50000000E+00  1.50000000E+00  8.00000000E-01
  8.00000000E-01  1.50000000E+00  1.50000000E+00  8.00000000E-01  8.00000000E-01
  1.50000000E+00  1.50000000E+00  8.00000000E-01  8.00000000E-01  1.50000000E+00
  1.50000000E+00  8.00000000E-01  8.00000000E-01  1.50000000E+00  1.50000000E+00
  8.00000000E-01  8.00000000E-01  1.50000000E+00  1.50000000E+00  8.00000000E-01
  8.00000000E-01  1.50000000E+00  1.50000000E+00  8.00000000E-01  8.00000000E-01
  1.50000000E+00  1.50000000E+00  8.00000000E-01  8.00000000E-01  1.50000000E+00
  1.50000000E+00  8.00000000E-01  8.00000000E-01  1.50000000E+00  1.50000000E+00
  8.00000000E-01  8.00000000E-01  1.50000000E+00  1.50000000E+00  8.00000000E-01
  8.00000000E-01  1.50000000E+00  1.50000000E+00  8.00000000E-01  8.00000000E-01
  1.50000000E+00  1.50000000E+00  8.00000000E-01  8.00000000E-01  1.50000000E+00
  1.50000000E+00  8.00000000E-01  8.00000000E-01  1.50000000E+00  1.50000000E+00
  8.00000000E-01  8.00000000E-01  1.50000000E+00  1.50000000E+00  8.00000000E-01
  8.00000000E-01  1.50000000E+00  1.50000000E+00  8.00000000E-01  8.00000000E-01
  1.50000000E+00  1.50000000E+00  8.00000000E-01  8.00000000E-01  1.50000000E+00
  1.50000000E+00  8.00000000E-01  8.00000000E-01  1.50000000E+00  1.50000000E+00
  8.00000000E-01  8.00000000E-01  1.50000000E+00  1.50000000E+00  8.00000000E-01
  8.00000000E-01  1.50000000E+00  1.50000000E+00  8.00000000E-01  8.00000000E-01
  1.50000000E+00  1.50000000E+00  8.00000000E-01  8.00000000E-01  1.50000000E+00
  1.50000000E+00  8.00000000E-01  8.00000000E-01  1.50000000E+00  1.50000000E+00
  8.00000000E-01  8.00000000E-01  1.50000000E+00  1.50000000E+00  8.00000000E-01
  8.00000000E-01  1.50000000E+00  1.50000000E+00  8.00000000E-01  8.00000000E-01
  1.50000000E+00  1.50000000E+00  8.00000000E-01  8.00000000E-01  1.50000000E+00
  1.50000000E+00  8.00000000E-01  8.00000000E-01  1.50000000E+00  1.50000000E+00
  8.00000000E-01  8.00000000E-01  1.50000000E+00  1.50000000E+00  8.00000000E-01
  8.00000000E-01  1.50000000E+00  1.50000000E+00  8.00000000E-01  8.00000000E-01
  1.50000000E+00  1.50000000E+00  8.00000000E-01  8.00000000E-01  1.50000000E+00
  1.50000000E+00  8.00000000E-01  8.00000000E-01  1.50000000E+00  1.50000000E+00
  8.00000000E-01  8.00000000E-01  1.50000000E+00  1.50000000E+00  8.00000000E-01
  8.00000000E-01  1.50000000E+00  1.50000000E+00  8.00000000E-01  8.00000000E-01
  1.50000000E+00  1.50000000E+00  8.00000000E-01  8.00000000E-01  1.50000000E+00
  1.50000000E+00  8.00000000E-01  8.00000000E-01  1.50000000E+00  1.50000000E+00
  8.00000000E-01  8.00000000E-01  1.50000000E+00  1.50000000E+00  8.00000000E-01
  8.00000000E-01  1.50000000E+00  1.50000000E+00  8.00000000E-01  8.00000000E-01
  1.50000000E+00  1.50000000E+00  8.00000000E-01  8.00000000E-01  1.50000000E+00
  1.50000000E+00  8.00000000E-01  8.00000000E-01  1.50000000E+00  1.50000000E+00
  8.00000000E-01  8.00000000E-01  1.50000000E+00  1.50000000E+00  8.00000000E-01
  8.00000000E-01  1.50000000E+00  1.50000000E+00  8.00000000E-01  8.00000000E-01
  1.50000000E+00  1.50000000E+00  8.00000000E-01  8.00000000E-01  1.50000000E+00
  1.50000000E+00  8.00000000E-01  8.00000000E-01  1.50000000E+00  1.50000000E+00
  8.00000000E-01  8.00000000E-01  1.50000000E+00  1.50000000E+00  8.00000000E-01
  8.00000000E-01  1.50000000E+00  1.50000000E+00  8.00000000E-01  8.00000000E-01
  1.50000000E+00  1.50000000E+00  8.00000000E-01  8.00000000E-01  1.50000000E+00
  1.50000000E+00  8.00000000E-01  8.00000000E-01  1.50000000E+00  1.50000000E+00
  8.00000000E-01  8.00000000E-01  1.50000000E+00  1.50000000E+00  8.00000000E-01
  8.00000000E-01  1.50000000E+00  1.50000000E+00  8.00000000E-01  8.00000000E-01
  1.50000000E+00  1.50000000E+00  8.00000000E-01  8.00000000E-01  1.50000000E+00
  1.50000000E+00  8.00000000E-01  8.00000000E-01  1.50000000E+00  1.50000000E+00
  8.00000000E-01  8.00000000E-01  1.50000000E+00  1.50000000E+00  8.00000000E-01
  8.00000000E-01  1.50000000E+00  1.50000000E+00  8.00000000E-01  8.00000000E-01
  1.50000000E+00  1.50000000E+00  8.00000000E-01  8.00000000E-01  1.50000000E+00
  1.50000000E+00  8.00000000E-01  8.00000000E-01  1.50000000E+00  1.50000000E+00
  8.00000000E-01  8.00000000E-01  1.50000000E+00  1.50000000E+00  8.00000000E-01
  8.00000000E-01  1.50000000E+00  1.50000000E+00  8.00000000E-01  8.00000000E-01
  1.50000000E+00  1.50000000E+00  8.00000000E-01  8.00000000E-01  1.50000000E+00
  1.50000000E+00  8.00000000E-01  8.00000000E-01  1.50000000E+00  1.50000000E+00
  8.00000000E-01  8.00000000E-01  1.50000000E+00  1.50000000E+00  8.00000000E-01
  8.00000000E-01  1.50000000E+00  1.50000000E+00  8.00000000E-01  8.00000000E-01
  1.50000000E+00  1.50000000E+00  8.00000000E-01  8.00000000E-01  1.50000000E+00
  1.50000000E+00  8.00000000E-01  8.00000000E-01  1.50000000E+00  1.50000000E+00
  8.00000000E-01  8.00000000E-01  1.50000000E+00  1.50000000E+00  8.00000000E-01
  8.00000000E-01  1.50000000E+00  1.50000000E+00  8.00000000E-01  8.00000000E-01
  1.50000000E+00  1.50000000E+00  8.00000000E-01  8.00000000E-01  1.50000000E+00
  1.50000000E+00  8.00000000E-01  8.00000000E-01  1.50000000E+00  1.50000000E+00
  8.00000000E-01  8.00000000E-01  1.50000000E+00  1.50000000E+00  8.00000000E-01
  8.00000000E-01  1.50000000E+00  1.50000000E+00  8.00000000E-01  8.00000000E-01
  1.50000000E+00  1.50000000E+00  8.00000000E-01  8.00000000E-01  1.50000000E+00
  1.50000000E+00  8.00000000E-01  8.00000000E-01  1.50000000E+00  1.50000000E+00
  8.00000000E-01  8.00000000E-01  1.50000000E+00  1.50000000E+00  8.00000000E-01
  8.00000000E-01  1.50000000E+00  1.50000000E+00  8.00000000E-01  8.00000000E-01
  1.50000000E+00  1.50000000E+00  8.00000000E-01  8.00000000E-01  1.50000000E+00
  1.50000000E+00  8.00000000E-01  8.00000000E-01  1.50000000E+00  1.50000000E+00
  8.00000000E-01  8.00000000E-01  1.50000000E+00  1.50000000E+00  8.00000000E-01
  8.00000000E-01  1.50000000E+00  1.50000000E+00  8.00000000E-01  8.00000000E-01
  1.50000000E+00  1.50000000E+00  8.00000000E-01  8.00000000E-01  1.50000000E+00
  1.50000000E+00  8.00000000E-01  8.00000000E-01  1.50000000E+00  1.50000000E+00
  8.00000000E-01  8.00000000E-01  1.50000000E+00  1.50000000E+00  8.00000000E-01
  8.00000000E-01  1.50000000E+00  1.50000000E+00  8.00000000E-01  8.00000000E-01
  1.50000000E+00  1.50000000E+00  8.00000000E-01  8.00000000E-01  1.50000000E+00
  1.50000000E+00  8.00000000E-01  8.00000000E-01  1.50000000E+00  1.50000000E+00
  8.00000000E-01  8.00000000E-01  1.50000000E+00  1.50000000E+00  8.00000000E-01
  8.00000000E-01  1.50000000E+00  1.50000000E+00  8.00000000E-01  8.00000000E-01
  1.50000000E+00  1.50000000E+00  8.00000000E-01  8.00000000E-01  1.50000000E+00
  1.50000000E+00  8.00000000E-01  8.00000000E-01  1.50000000E+00  1.50000000E+00
  8.00000000E-01  8.00000000E-01  1.50000000E+00  1.50000000E+00  8.00000000E-01
  8.00000000E-01  1.50000000E+00  1.50000000E+00  8.00000000E-01  8.00000000E-01
  1.50000000E+00  1.50000000E+00  8.00000000E-01  8.00000000E-01  1.50000000E+00
  1.50000000E+00  8.00000000E-01  8.00000000E-01  1.50000000E+00  1.50000000E+00
  8.00000000E-01  8.00000000E-01  1.50000000E+00  1.50000000E+00  8.00000000E-01
  8.00000000E-01  1.50000000E+00  1.50000000E+00  8.00000000E-01  8.00000000E-01
  1.50000000E+00  1.50000000E+00  8.00000000E-01  8.00000000E-01  1.50000000E+00
  1.50000000E+00  8.00000000E-01  8.00000000E-01  1.50000000E+00  1.50000000E+00
  8.00000000E-01  8.00000000E-01  1.50000000E+00  1.50000000E+00  8.00000000E-01
  8.00000000E-01  1.50000000E+00  1.50000000E+00  8.00000000E-01  8.00000000E-01
  1.50000000E+00  1.50000000E+00  8.00000000E-01  8.00000000E-01  1.50000000E+00
  1.50000000E+00  8.00000000E-01  8.00000000E-01  1.50000000E+00  1.50000000E+00
  8.00000000E-01  8.00000000E-01  1.50000000E+00  1.50000000E+00  8.00000000E-01
  8.00000000E-01  1.50000000E+00  1.50000000E+00  8.00000000E-01  8.00000000E-01
  1.50000000E+00  1.50000000E+00  8.00000000E-01  8.00000000E-01  1.50000000E+00
  1.50000000E+00  8.00000000E-01  8.00000000E-01  1.50000000E+00  1.50000000E+00
  8.00000000E-01  8.00000000E-01  1.50000000E+00  1.50000000E+00  8.00000000E-01
  8.00000000E-01  1.50000000E+00  1.50000000E+00  8.00000000E-01  8.00000000E-01
  1.50000000E+00  1.50000000E+00  8.00000000E-01  8.00000000E-01  1.50000000E+00
  1.50000000E+00  8.00000000E-01  8.00000000E-01  1.50000000E+00  1.50000000E+00
  8.00000000E-01  8.00000000E-01  1.50000000E+00  1.50000000E+00  8.00000000E-01
  8.00000000E-01  1.50000000E+00  1.50000000E+00  8.00000000E-01  8.00000000E-01
  1.50000000E+00  1.50000000E+00  8.00000000E-01  8.00000000E-01  1.50000000E+00
  1.50000000E+00  8.00000000E-01  8.00000000E-01  1.50000000E+00  1.50000000E+00
  8.00000000E-01  8.00000000E-01  1.50000000E+00  1.50000000E+00  8.00000000E-01
  8.00000000E-01  1.50000000E+00  1.50000000E+00  8.00000000E-01  8.00000000E-01
  1.50000000E+00  1.50000000E+00  8.00000000E-01  8.00000000E-01  1.50000000E+00
  1.50000000E+00  8.00000000E-01  8.00000000E-01  1.50000000E+00  1.50000000E+00
  8.00000000E-01  8.00000000E-01  1.50000000E+00  1.50000000E+00  8.00000000E-01
  8.00000000E-01  1.50000000E+00  1.50000000E+00  8.00000000E-01  8.00000000E-01
  1.50000000E+00  1.50000000E+00  8.00000000E-01  8.00000000E-01  1.50000000E+00
  1.50000000E+00  8.00000000E-01  8.00000000E-01  1.50000000E+00  1.50000000E+00
  8.00000000E-01  8.00000000E-01  1.50000000E+00  1.50000000E+00  8.00000000E-01
  8.00000000E-01  1.50000000E+00  1.50000000E+00  8.00000000E-01  8.00000000E-01
  1.50000000E+00  1.50000000E+00  8.00000000E-01  8.00000000E-01  1.50000000E+00
  1.50000000E+00  8.00000000E-01  8.00000000E-01  1.50000000E+00  1.50000000E+00
  8.00000000E-01  8.00000000E-01  1.50000000E+00  1.50000000E+00  8.00000000E-01
  8.00000000E-01  1.50000000E+00  1.50000000E+00  8.00000000E-01  8.00000000E-01
  1.50000000E+00  1.50000000E+00  8.00000000E-01  8.00000000E-01  1.50000000E+00
  1.50000000E+00  8.00000000E-01  8.00000000E-01  1.50000000E+00  1.50000000E+00
  8.00000000E-01  8.00000000E-01  1.50000000E+00  1.50000000E+00  8.00000000E-01
  8.00000000E-01  1.50000000E+00  1.50000000E+00  8.00000000E-01  8.00000000E-01
  1.50000000E+00  1.50000000E+00  8.00000000E-01  8.00000000E-01  1.50000000E+00
  1.50000000E+00  8.00000000E-01  8.00000000E-01  1.50000000E+00  1.50000000E+00
  8.00000000E-01  8.00000000E-01  1.50000000E+00  1.50000000E+00  8.00000000E-01
  8.00000000E-01  1.50000000E+00  1.50000000E+00  8.00000000E-01  8.00000000E-01
  1.50000000E+00  1.50000000E+00  8.00000000E-01  8.00000000E-01  1.50000000E+00
  1.50000000E+00  8.00000000E-01  8.00000000E-01  1.50000000E+00  1.50000000E+00
  8.00000000E-01  8.00000000E-01  1.50000000E+00  1.50000000E+00  8.00000000E-01
  8.00000000E-01  1.50000000E+00  1.50000000E+00  8.00000000E-01  8.00000000E-01
  1.50000000E+00  1.50000000E+00  8.00000000E-01  8.00000000E-01  1.50000000E+00
  1.50000000E+00  8.00000000E-01  8.00000000E-01  1.50000000E+00  1.50000000E+00
  8.00000000E-01  8.00000000E-01  1.50000000E+00  1.50000000E+00  8.00000000E-01
  8.00000000E-01  1.50000000E+00  1.50000000E+00  8.00000000E-01  8.00000000E-01
  1.50000000E+00  1.50000000E+00  8.00000000E-01  8.00000000E-01  1.50000000E+00
  1.50000000E+00  8.00000000E-01  8.00000000E-01  1.50000000E+00  1.50000000E+00
  8.00000000E-01  8.00000000E-01  1.50000000E+00  1.50000000E+00  8.00000000E-01
  8.00000000E-01  1.50000000E+00  1.50000000E+00  8.00000000E-01  8.00000000E-01
  1.50000000E+00  1.50000000E+00  8.00000000E-01  8.00000000E-01  1.50000000E+00
  1.50000000E+00  8.00000000E-01  8.00000000E-01  1.50000000E+00  1.50000000E+00
  8.00000000E-01  8.00000000E-01  1.50000000E+00  1.50000000E+00  8.00000000E-01
  8.00000000E-01  1.50000000E+00  1.50000000E+00  8.00000000E-01  8.00000000E-01
  1.50000000E+00  1.50000000E+00  8.00000000E-01  8.00000000E-01  1.50000000E+00
  1.50000000E+00  8.00000000E-01  8.00000000E-01  1.50000000E+00  1.50000000E+00
  8.00000000E-01  8.00000000E-01  1.50000000E+00  1.50000000E+00  8.00000000E-01
  8.00000000E-01  1.50000000E+00  1.50000000E+00  8.00000000E-01  8.00000000E-01
  1.50000000E+00  1.50000000E+00  8.00000000E-01  8.00000000E-01  1.50000000E+00
  1.50000000E+00  8.00000000E-01  8.00000000E-01  1.50000000E+00  1.50000000E+00
  8.00000000E-01  8.00000000E-01  1.50000000E+00  1.50000000E+00  8.00000000E-01
  8.00000000E-01  1.50000000E+00  1.50000000E+00  8.00000000E-01  8.00000000E-01
  1.50000000E+00  1.50000000E+00  8.00000000E-01  8.00000000E-01  1.50000000E+00
  1.50000000E+00  8.00000000E-01  8.00000000E-01  1.50000000E+00  1.50000000E+00
  8.00000000E-01  8.00000000E-01  1.50000000E+00  1.50000000E+00  8.00000000E-01
  8.00000000E-01  1.50000000E+00  1.50000000E+00  8.00000000E-01  8.00000000E-01
  1.50000000E+00  1.50000000E+00  8.00000000E-01  8.00000000E-01  1.50000000E+00
  1.50000000E+00  8.00000000E-01  8.00000000E-01  1.50000000E+00  1.50000000E+00
  8.00000000E-01  8.00000000E-01  1.50000000E+00  1.50000000E+00  8.00000000E-01
  8.00000000E-01  1.50000000E+00  1.50000000E+00  8.00000000E-01  8.00000000E-01
  1.50000000E+00  1.50000000E+00  8.00000000E-01  8.00000000E-01  1.50000000E+00
  1.50000000E+00  8.00000000E-01  8.00000000E-01  1.50000000E+00  1.50000000E+00
  8.00000000E-01  8.00000000E-01  1.50000000E+00  1.50000000E+00  8.00000000E-01
  8.00000000E-01  1.50000000E+00  1.50000000E+00  8.00000000E-01  8.00000000E-01
  1.50000000E+00  1.50000000E+00  8.00000000E-01  8.00000000E-01  1.50000000E+00
  1.50000000E+00  8.00000000E-01  8.00000000E-01  1.50000000E+00  1.50000000E+00
  8.00000000E-01  8.00000000E-01  1.50000000E+00  1.50000000E+00  8.00000000E-01
  8.00000000E-01  1.50000000E+00  1.50000000E+00  8.00000000E-01  8.00000000E-01
  1.50000000E+00  1.50000000E+00  8.00000000E-01  8.00000000E-01  1.50000000E+00
  1.50000000E+00  8.00000000E-01  8.00000000E-01  1.50000000E+00  1.50000000E+00
  8.00000000E-01  8.00000000E-01  1.50000000E+00  1.50000000E+00  8.00000000E-01
  8.00000000E-01  1.50000000E+00  1.50000000E+00  8.00000000E-01  8.00000000E-01
  1.50000000E+00  1.50000000E+00  8.00000000E-01  8.00000000E-01  1.50000000E+00
  1.50000000E+00  8.00000000E-01  8.00000000E-01  1.50000000E+00  1.50000000E+00
  8.00000000E-01  8.00000000E-01  1.50000000E+00  1.50000000E+00  8.00000000E-01
  8.00000000E-01  1.50000000E+00  1.50000000E+00  8.00000000E-01  8.00000000E-01
  1.50000000E+00  1.50000000E+00  8.00000000E-01  8.00000000E-01  1.50000000E+00
  1.50000000E+00  8.00000000E-01  8.00000000E-01  1.50000000E+00  1.50000000E+00
  8.00000000E-01  8.00000000E-01  1.50000000E+00  1.50000000E+00  8.00000000E-01
  8.00000000E-01  1.50000000E+00  1.50000000E+00  8.00000000E-01  8.00000000E-01
  1.50000000E+00  1.50000000E+00  8.00000000E-01  8.00000000E-01  1.50000000E+00
  1.50000000E+00  8.00000000E-01  8.00000000E-01  1.50000000E+00  1.50000000E+00
  8.00000000E-01  8.00000000E-01  1.50000000E+00  1.50000000E+00  8.00000000E-01
  8.00000000E-01  1.50000000E+00  1.50000000E+00  8.00000000E-01  8.00000000E-01
  1.50000000E+00  1.50000000E+00  8.00000000E-01  8.00000000E-01  1.50000000E+00
  1.50000000E+00  8.00000000E-01  8.00000000E-01  1.50000000E+00  1.50000000E+00
  8.00000000E-01  8.00000000E-01  1.50000000E+00  1.50000000E+00  8.00000000E-01
  8.00000000E-01  1.50000000E+00  1.50000000E+00  8.00000000E-01  8.00000000E-01
  1.50000000E+00  1.50000000E+00  8.00000000E-01  8.00000000E-01  1.50000000E+00
  1.50000000E+00  8.00000000E-01  8.00000000E-01  1.50000000E+00  1.50000000E+00
  8.00000000E-01  8.00000000E-01  1.50000000E+00  1.50000000E+00  8.00000000E-01
  8.00000000E-01  1.50000000E+00  1.50000000E+00  8.00000000E-01  8.00000000E-01
  1.50000000E+00  1.50000000E+00  8.00000000E-01  8.00000000E-01  1.50000000E+00
  1.50000000E+00  8.00000000E-01  8.00000000E-01  1.50000000E+00  1.50000000E+00
  8.00000000E-01  8.00000000E-01  1.50000000E+00  1.50000000E+00  8.00000000E-01
  8.00000000E-01  1.50000000E+00  1.50000000E+00  8.00000000E-01  8.00000000E-01
  1.50000000E+00  1.50000000E+00  8.00000000E-01  8.00000000E-01  1.50000000E+00
  1.50000000E+00  8.00000000E-01  8.00000000E-01  1.50000000E+00  1.50000000E+00
  8.00000000E-01  8.00000000E-01  1.50000000E+00  1.50000000E+00  8.00000000E-01
  8.00000000E-01  1.50000000E+00  1.50000000E+00  8.00000000E-01  8.00000000E-01
  1.50000000E+00  1.50000000E+00  8.00000000E-01  8.00000000E-01  1.50000000E+00
  1.50000000E+00  8.00000000E-01  8.00000000E-01  1.50000000E+00  1.50000000E+00
  8.00000000E-01  8.00000000E-01  1.50000000E+00  1.50000000E+00  8.00000000E-01
  8.00000000E-01  1.50000000E+00  1.50000000E+00  8.00000000E-01  8.00000000E-01
  1.50000000E+00  1.50000000E+00  8.00000000E-01  8.00000000E-01  1.50000000E+00
  1.50000000E+00  8.00000000E-01  8.00000000E-01  1.50000000E+00  1.50000000E+00
  8.00000000E-01  8.00000000E-01  1.50000000E+00  1.50000000E+00  8.00000000E-01
  8.00000000E-01  1.50000000E+00  1.50000000E+00  8.00000000E-01  8.00000000E-01
  1.50000000E+00  1.50000000E+00  8.00000000E-01  8.00000000E-01  1.50000000E+00
  1.50000000E+00  8.00000000E-01  8.00000000E-01  1.50000000E+00  1.50000000E+00
  8.00000000E-01  8.00000000E-01  1.50000000E+00  1.50000000E+00  8.00000000E-01
  8.00000000E-01  1.50000000E+00  1.50000000E+00  8.00000000E-01  8.00000000E-01
  1.50000000E+00  1.50000000E+00  8.00000000E-01  8.00000000E-01  1.50000000E+00
  1.50000000E+00  8.00000000E-01  8.00000000E-01  1.50000000E+00  1.50000000E+00
  8.00000000E-01  8.00000000E-01  1.50000000E+00  1.50000000E+00  8.00000000E-01
  8.00000000E-01  1.50000000E+00  1.50000000E+00  8.00000000E-01  8.00000000E-01
  1.50000000E+00  1.50000000E+00  8.00000000E-01  8.00000000E-01  1.50000000E+00
  1.50000000E+00  8.00000000E-01  8.00000000E-01  1.50000000E+00  1.50000000E+00
  8.00000000E-01  8.00000000E-01  1.50000000E+00  1.50000000E+00  8.00000000E-01
  8.00000000E-01  1.50000000E+00  1.50000000E+00  8.00000000E-01  8.00000000E-01
  1.50000000E+00  1.50000000E+00  8.00000000E-01  8.00000000E-01  1.50000000E+00
  1.50000000E+00  8.00000000E-01  8.00000000E-01  1.50000000E+00  1.50000000E+00
  8.00000000E-01  8.00000000E-01  1.50000000E+00  1.50000000E+00  8.00000000E-01
  8.00000000E-01  1.50000000E+00  1.50000000E+00  8.00000000E-01  8.00000000E-01
  1.50000000E+00  1.50000000E+00  8.00000000E-01  8.00000000E-01  1.50000000E+00
  1.50000000E+00  8.00000000E-01  8.00000000E-01  1.50000000E+00  1.50000000E+00
  8.00000000E-01  8.00000000E-01  1.50000000E+00  1.50000000E+00  8.00000000E-01
  8.00000000E-01  1.50000000E+00  1.50000000E+00  8.00000000E-01  8.00000000E-01
  1.50000000E+00  1.50000000E+00  8.00000000E-01  8.00000000E-01  1.50000000E+00
  1.50000000E+00  8.00000000E-01  8.00000000E-01  1.50000000E+00  1.50000000E+00
  8.00000000E-01  8.00000000E-01  1.50000000E+00  1.50000000E+00  8.00000000E-01
  8.00000000E-01  1.50000000E+00  1.50000000E+00  8.00000000E-01  8.00000000E-01
  1.50000000E+00  1.50000000E+00  8.00000000E-01  8.00000000E-01  1.50000000E+00
  1.50000000E+00  8.00000000E-01  8.00000000E-01  1.50000000E+00  1.50000000E+00
  8.00000000E-01  8.00000000E-01  1.50000000E+00  1.50000000E+00  8.00000000E-01
  8.00000000E-01  1.50000000E+00  1.50000000E+00  8.00000000E-01  8.00000000E-01
  1.50000000E+00  1.50000000E+00  8.00000000E-01  8.00000000E-01  1.50000000E+00
  1.50000000E+00  8.00000000E-01  8.00000000E-01  1.50000000E+00  1.50000000E+00
  8.00000000E-01  8.00000000E-01  1.50000000E+00  1.50000000E+00  8.00000000E-01
  8.00000000E-01  1.50000000E+00  1.50000000E+00  8.00000000E-01  8.00000000E-01
  1.50000000E+00  1.50000000E+00  8.00000000E-01  8.00000000E-01  1.50000000E+00
  1.50000000E+00  8.00000000E-01  8.00000000E-01  1.50000000E+00  1.50000000E+00
  8.00000000E-01  8.00000000E-01  1.50000000E+00  1.50000000E+00  8.00000000E-01
  8.00000000E-01  1.50000000E+00  1.50000000E+00  8.00000000E-01  8.00000000E-01
  1.50000000E+00  1.50000000E+00  8.00000000E-01  8.00000000E-01  1.50000000E+00
  1.50000000E+00  8.00000000E-01  8.00000000E-01  1.50000000E+00  1.50000000E+00
  8.00000000E-01  8.00000000E-01  1.50000000E+00  1.50000000E+00  8.00000000E-01
  8.00000000E-01  1.50000000E+00  1.50000000E+00  8.00000000E-01  8.00000000E-01
  1.50000000E+00  1.50000000E+00  8.00000000E-01  8.00000000E-01  1.50000000E+00
  1.50000000E+00  8.00000000E-01  8.00000000E-01  1.50000000E+00  1.50000000E+00
  8.00000000E-01  8.00000000E-01  1.50000000E+00  1.50000000E+00  8.00000000E-01
  8.00000000E-01  1.50000000E+00  1.50000000E+00  8.00000000E-01  8.00000000E-01
  1.50000000E+00  1.50000000E+00  8.00000000E-01  8.00000000E-01  1.50000000E+00
  1.50000000E+00  8.00000000E-01  8.00000000E-01  1.50000000E+00  1.50000000E+00
  8.00000000E-01  8.00000000E-01  1.50000000E+00  1.50000000E+00  8.00000000E-01
  8.00000000E-01  1.50000000E+00  1.50000000E+00  8.00000000E-01  8.00000000E-01
  1.50000000E+00  1.50000000E+00  8.00000000E-01  8.00000000E-01  1.50000000E+00
  1.50000000E+00  8.00000000E-01  8.00000000E-01  1.50000000E+00  1.50000000E+00
  8.00000000E-01  8.00000000E-01  1.50000000E+00  1.50000000E+00  8.00000000E-01
  8.00000000E-01  1.50000000E+00  1.50000000E+00  8.00000000E-01  8.00000000E-01
  1.50000000E+00  1.50000000E+00  8.00000000E-01  8.00000000E-01  1.50000000E+00
  1.50000000E+00  8.00000000E-01  8.00000000E-01  1.50000000E+00  1.50000000E+00
  8.00000000E-01  8.00000000E-01  1.50000000E+00  1.50000000E+00  8.00000000E-01
  8.00000000E-01  1.50000000E+00  1.50000000E+00  8.00000000E-01  8.00000000E-01
  1.50000000E+00  1.50000000E+00  8.00000000E-01  8.00000000E-01  1.50000000E+00
  1.50000000E+00  8.00000000E-01  8.00000000E-01  1.50000000E+00  1.50000000E+00
  8.00000000E-01  8.00000000E-01  1.50000000E+00  1.50000000E+00  8.00000000E-01
  8.00000000E-01  1.50000000E+00  1.50000000E+00  8.00000000E-01  8.00000000E-01
  1.50000000E+00  1.50000000E+00  8.00000000E-01  8.00000000E-01  1.50000000E+00
  1.50000000E+00  8.00000000E-01  8.00000000E-01  1.50000000E+00  1.50000000E+00
  8.00000000E-01  8.00000000E-01  1.50000000E+00  1.50000000E+00  8.00000000E-01
  8.00000000E-01  1.50000000E+00  1.50000000E+00  8.00000000E-01  8.00000000E-01
  1.50000000E+00  1.50000000E+00  8.00000000E-01  8.00000000E-01  1.50000000E+00
  1.50000000E+00  8.00000000E-01  8.00000000E-01  1.50000000E+00  1.50000000E+00
  8.00000000E-01  8.00000000E-01  1.50000000E+00  1.50000000E+00  8.00000000E-01
  8.00000000E-01  1.50000000E+00  1.50000000E+00  8.00000000E-01  8.00000000E-01
  1.50000000E+00  1.50000000E+00  8.00000000E-01  8.00000000E-01  1.50000000E+00
  1.50000000E+00  8.00000000E-01  8.00000000E-01  1.50000000E+00  1.50000000E+00
  8.00000000E-01  8.00000000E-01  1.50000000E+00  1.50000000E+00  8.00000000E-01
  8.00000000E-01  1.50000000E+00  1.50000000E+00  8.00000000E-01  8.00000000E-01
  1.50000000E+00  1.50000000E+00  8.00000000E-01  8.00000000E-01  1.50000000E+00
  1.50000000E+00  8.00000000E-01  8.00000000E-01  1.50000000E+00  1.50000000E+00
  8.00000000E-01  8.00000000E-01  1.50000000E+00  1.50000000E+00  8.00000000E-01
  8.00000000E-01  1.50000000E+00  1.50000000E+00  8.00000000E-01  8.00000000E-01
  1.50000000E+00  1.50000000E+00  8.00000000E-01  8.00000000E-01  1.50000000E+00
  1.50000000E+00  8.00000000E-01  8.00000000E-01  1.50000000E+00  1.50000000E+00
  8.00000000E-01  8.00000000E-01  1.50000000E+00  1.50000000E+00  8.00000000E-01
  8.00000000E-01  1.50000000E+00  1.50000000E+00  8.00000000E-01  8.00000000E-01
  1.50000000E+00  1.50000000E+00  8.00000000E-01  8.00000000E-01  1.50000000E+00
  1.50000000E+00  8.00000000E-01  8.00000000E-01  1.50000000E+00  1.50000000E+00
  8.00000000E-01  8.00000000E-01  1.50000000E+00  1.50000000E+00  8.00000000E-01
  8.00000000E-01  1.50000000E+00  1.50000000E+00  8.00000000E-01  8.00000000E-01
  1.50000000E+00  1.50000000E+00  8.00000000E-01  8.00000000E-01  1.50000000E+00
  1.50000000E+00  8.00000000E-01  8.00000000E-01  1.50000000E+00  1.50000000E+00
  8.00000000E-01  8.00000000E-01  1.50000000E+00  1.50000000E+00  8.00000000E-01
  8.00000000E-01  1.50000000E+00  1.50000000E+00  8.00000000E-01  8.00000000E-01
  1.50000000E+00  1.50000000E+00  8.00000000E-01  8.00000000E-01  1.50000000E+00
  1.50000000E+00  8.00000000E-01  8.00000000E-01  1.50000000E+00  1.50000000E+00
  8.00000000E-01  8.00000000E-01  1.50000000E+00  1.50000000E+00  8.00000000E-01
  8.00000000E-01  1.50000000E+00  1.50000000E+00  8.00000000E-01  8.00000000E-01
  1.50000000E+00  1.50000000E+00  8.00000000E-01  8.00000000E-01  1.50000000E+00
  1.50000000E+00  8.00000000E-01  8.00000000E-01  1.50000000E+00  1.50000000E+00
  8.00000000E-01  8.00000000E-01  1.50000000E+00  1.50000000E+00  8.00000000E-01
  8.00000000E-01  1.50000000E+00  1.50000000E+00  8.00000000E-01  8.00000000E-01
  1.50000000E+00  1.50000000E+00  8.00000000E-01  8.00000000E-01  1.50000000E+00
  1.50000000E+00  8.00000000E-01  8.00000000E-01  1.50000000E+00  1.50000000E+00
  8.00000000E-01  8.00000000E-01  1.50000000E+00  1.50000000E+00  8.00000000E-01
  8.00000000E-01  1.50000000E+00  1.50000000E+00  8.00000000E-01  8.00000000E-01
  1.50000000E+00  1.50000000E+00  8.00000000E-01  8.00000000E-01  1.50000000E+00
  1.50000000E+00  8.00000000E-01  8.00000000E-01  1.50000000E+00  1.50000000E+00
  8.00000000E-01  8.00000000E-01  1.50000000E+00  1.50000000E+00  8.00000000E-01
  8.00000000E-01  1.50000000E+00  1.50000000E+00  8.00000000E-01  8.00000000E-01
  1.50000000E+00  1.50000000E+00  8.00000000E-01  8.00000000E-01  1.50000000E+00
  1.50000000E+00  8.00000000E-01  8.00000000E-01  1.50000000E+00  1.50000000E+00
  8.00000000E-01  8.00000000E-01  1.50000000E+00  1.50000000E+00  8.00000000E-01
  8.00000000E-01  1.50000000E+00  1.50000000E+00  8.00000000E-01  8.00000000E-01
  1.50000000E+00  1.50000000E+00  8.00000000E-01  8.00000000E-01  1.50000000E+00
  1.50000000E+00  8.00000000E-01  8.00000000E-01  1.50000000E+00  1.50000000E+00
  8.00000000E-01  8.00000000E-01  1.50000000E+00  1.50000000E+00  8.00000000E-01
  8.00000000E-01  1.50000000E+00  1.50000000E+00  8.00000000E-01  8.00000000E-01
  1.50000000E+00  1.50000000E+00  8.00000000E-01  8.00000000E-01  1.50000000E+00
  1.50000000E+00  8.00000000E-01  8.00000000E-01  1.50000000E+00  1.50000000E+00
  8.00000000E-01  8.00000000E-01  1.50000000E+00  1.50000000E+00  8.00000000E-01
  8.00000000E-01  1.50000000E+00  1.50000000E+00  8.00000000E-01  8.00000000E-01
  1.50000000E+00  1.50000000E+00  8.00000000E-01  8.00000000E-01  1.50000000E+00
  1.50000000E+00  8.00000000E-01  8.00000000E-01  1.50000000E+00  1.50000000E+00
  8.00000000E-01  8.00000000E-01  1.50000000E+00  1.50000000E+00  8.00000000E-01
  8.00000000E-01  1.50000000E+00  1.50000000E+00  8.00000000E-01  8.00000000E-01
  1.50000000E+00  1.50000000E+00  8.00000000E-01  8.00000000E-01  1.50000000E+00
  1.50000000E+00  8.00000000E-01  8.00000000E-01  1.50000000E+00  1.50000000E+00
  8.00000000E-01  8.00000000E-01  1.50000000E+00  1.50000000E+00  8.00000000E-01
  8.00000000E-01  1.50000000E+00  1.50000000E+00  8.00000000E-01  8.00000000E-01
  1.50000000E+00  1.50000000E+00  8.00000000E-01  8.00000000E-01  1.50000000E+00
  1.50000000E+00  8.00000000E-01  8.00000000E-01  1.50000000E+00  1.50000000E+00
  8.00000000E-01  8.00000000E-01  1.50000000E+00  1.50000000E+00  8.00000000E-01
  8.00000000E-01  1.50000000E+00  1.50000000E+00  8.00000000E-01  8.00000000E-01
  1.50000000E+00  1.50000000E+00  8.00000000E-01  8.00000000E-01  1.50000000E+00
  1.50000000E+00  8.00000000E-01  8.00000000E-01  1.50000000E+00  1.50000000E+00
  8.00000000E-01  8.00000000E-01  1.50000000E+00  1.50000000E+00  8.00000000E-01
  8.00000000E-01  1.50000000E+00  1.50000000E+00  8.00000000E-01  8.00000000E-01
  1.50000000E+00  1.50000000E+00  8.00000000E-01  8.00000000E-01  1.50000000E+00
  1.50000000E+00  8.00000000E-01  8.00000000E-01  1.50000000E+00  1.50000000E+00
  8.00000000E-01  8.00000000E-01  1.50000000E+00  1.50000000E+00  8.00000000E-01
  8.00000000E-01  1.50000000E+00  1.50000000E+00  8.00000000E-01  8.00000000E-01
  1.50000000E+00  1.50000000E+00  8.00000000E-01  8.00000000E-01  1.50000000E+00
  1.50000000E+00  8.00000000E-01  8.00000000E-01  1.50000000E+00  1.50000000E+00
  8.00000000E-01  8.00000000E-01  1.50000000E+00  1.50000000E+00  8.00000000E-01
  8.00000000E-01  1.50000000E+00  1.50000000E+00  8.00000000E-01  8.00000000E-01
  1.50000000E+00  1.50000000E+00  8.00000000E-01  8.00000000E-01  1.50000000E+00
  1.50000000E+00  8.00000000E-01  8.00000000E-01  1.50000000E+00  1.50000000E+00
  8.00000000E-01  8.00000000E-01  1.50000000E+00  1.50000000E+00  8.00000000E-01
  8.00000000E-01  1.50000000E+00  1.50000000E+00  8.00000000E-01  8.00000000E-01
  1.50000000E+00  1.50000000E+00  8.00000000E-01  8.00000000E-01  1.50000000E+00
  1.50000000E+00  8.00000000E-01  8.00000000E-01  1.50000000E+00  1.50000000E+00
  8.00000000E-01  8.00000000E-01  1.50000000E+00  1.50000000E+00  8.00000000E-01
  8.00000000E-01  1.50000000E+00  1.50000000E+00  8.00000000E-01  8.00000000E-01
  1.50000000E+00  1.50000000E+00  8.00000000E-01  8.00000000E-01  1.50000000E+00
  1.50000000E+00  8.00000000E-01  8.00000000E-01  1.50000000E+00  1.50000000E+00
  8.00000000E-01  8.00000000E-01  1.50000000E+00  1.50000000E+00  8.00000000E-01
  8.00000000E-01  1.50000000E+00  1.50000000E+00  8.00000000E-01  8.00000000E-01
  1.50000000E+00  1.50000000E+00  8.00000000E-01  8.00000000E-01  1.50000000E+00
  1.50000000E+00  8.00000000E-01  8.00000000E-01  1.50000000E+00  1.50000000E+00
  8.00000000E-01  8.00000000E-01  1.50000000E+00  1.50000000E+00  8.00000000E-01
  8.00000000E-01  1.50000000E+00  1.50000000E+00  8.00000000E-01  8.00000000E-01
  1.50000000E+00  1.50000000E+00  8.00000000E-01  8.00000000E-01  1.50000000E+00
  1.50000000E+00  8.00000000E-01  8.00000000E-01  1.50000000E+00  1.50000000E+00
  8.00000000E-01  8.00000000E-01  1.50000000E+00  1.50000000E+00  8.00000000E-01
  8.00000000E-01  1.50000000E+00  1.50000000E+00  8.00000000E-01  8.00000000E-01
  1.50000000E+00  1.50000000E+00  8.00000000E-01  8.00000000E-01  1.50000000E+00
  1.50000000E+00  8.00000000E-01  8.00000000E-01  1.50000000E+00  1.50000000E+00
  8.00000000E-01  8.00000000E-01  1.50000000E+00  1.50000000E+00  8.00000000E-01
  8.00000000E-01  1.50000000E+00  1.50000000E+00  8.00000000E-01  8.00000000E-01
  1.50000000E+00  1.50000000E+00  8.00000000E-01  8.00000000E-01  1.50000000E+00
  1.50000000E+00  8.00000000E-01  8.00000000E-01  1.50000000E+00  1.50000000E+00
  8.00000000E-01  8.00000000E-01  1.50000000E+00  1.50000000E+00  8.00000000E-01
  8.00000000E-01  1.50000000E+00  1.50000000E+00  8.00000000E-01  8.00000000E-01
  1.50000000E+00  1.50000000E+00  8.00000000E-01  8.00000000E-01  1.50000000E+00
  1.50000000E+00  8.00000000E-01  8.00000000E-01  1.50000000E+00  1.50000000E+00
  8.00000000E-01  8.00000000E-01  1.50000000E+00  1.50000000E+00  8.00000000E-01
  8.00000000E-01  1.50000000E+00  1.50000000E+00  8.00000000E-01  8.00000000E-01
  1.50000000E+00  1.50000000E+00  8.00000000E-01  8.00000000E-01  1.50000000E+00
  1.50000000E+00  8.00000000E-01  8.00000000E-01  1.50000000E+00  1.50000000E+00
  8.00000000E-01  8.00000000E-01  1.50000000E+00  1.50000000E+00  8.00000000E-01
  8.00000000E-01  1.50000000E+00  1.50000000E+00  8.00000000E-01  8.00000000E-01
  1.50000000E+00  1.50000000E+00  8.00000000E-01  8.00000000E-01  1.50000000E+00
  1.50000000E+00  8.00000000E-01  8.00000000E-01  1.50000000E+00  1.50000000E+00
  8.00000000E-01  8.00000000E-01  1.50000000E+00  1.50000000E+00  8.00000000E-01
  8.00000000E-01  1.50000000E+00  1.50000000E+00  8.00000000E-01  8.00000000E-01
  1.50000000E+00  1.50000000E+00  8.00000000E-01  8.00000000E-01  1.50000000E+00
  1.50000000E+00  8.00000000E-01  8.00000000E-01  1.50000000E+00  1.50000000E+00
  8.00000000E-01  8.00000000E-01  1.50000000E+00  1.50000000E+00  8.00000000E-01
  8.00000000E-01  1.50000000E+00  1.50000000E+00  8.00000000E-01  8.00000000E-01
  1.50000000E+00  1.50000000E+00  8.00000000E-01  8.00000000E-01  1.50000000E+00
  1.50000000E+00  8.00000000E-01  8.00000000E-01  1.50000000E+00  1.50000000E+00
  8.00000000E-01  8.00000000E-01  1.50000000E+00  1.50000000E+00  8.00000000E-01
  8.00000000E-01  1.50000000E+00  1.50000000E+00  8.00000000E-01  8.00000000E-01
  1.50000000E+00  1.50000000E+00  8.00000000E-01  8.00000000E-01  1.50000000E+00
  1.50000000E+00  8.00000000E-01  8.00000000E-01  1.50000000E+00  1.50000000E+00
  8.00000000E-01  8.00000000E-01  1.50000000E+00  1.50000000E+00  8.00000000E-01
  8.00000000E-01  1.50000000E+00  1.50000000E+00  8.00000000E-01  8.00000000E-01
  1.50000000E+00  1.50000000E+00  8.00000000E-01  8.00000000E-01  1.50000000E+00
  1.50000000E+00  8.00000000E-01  8.00000000E-01  1.50000000E+00  1.50000000E+00
  8.00000000E-01  8.00000000E-01  1.50000000E+00  1.50000000E+00  8.00000000E-01
  8.00000000E-01  1.50000000E+00  1.50000000E+00  8.00000000E-01  8.00000000E-01
  1.50000000E+00  1.50000000E+00  8.00000000E-01  8.00000000E-01  1.50000000E+00
  1.50000000E+00  8.00000000E-01  8.00000000E-01  1.50000000E+00  1.50000000E+00
  8.00000000E-01  8.00000000E-01  1.50000000E+00  1.50000000E+00  8.00000000E-01
  8.00000000E-01  1.50000000E+00  1.50000000E+00  8.00000000E-01  8.00000000E-01
  1.50000000E+00  1.50000000E+00  8.00000000E-01  8.00000000E-01  1.50000000E+00
  1.50000000E+00  8.00000000E-01  8.00000000E-01  1.50000000E+00  1.50000000E+00
  8.00000000E-01  8.00000000E-01  1.50000000E+00  1.50000000E+00  8.00000000E-01
  8.00000000E-01  1.50000000E+00  1.50000000E+00  8.00000000E-01  8.00000000E-01
  1.50000000E+00  1.50000000E+00  8.00000000E-01  8.00000000E-01  1.50000000E+00
  1.50000000E+00  8.00000000E-01  8.00000000E-01  1.50000000E+00  1.50000000E+00
  8.00000000E-01  8.00000000E-01  1.50000000E+00  1.50000000E+00  8.00000000E-01
  8.00000000E-01  1.50000000E+00  1.50000000E+00  8.00000000E-01  8.00000000E-01
  1.50000000E+00  1.50000000E+00  8.00000000E-01  8.00000000E-01  1.50000000E+00
  1.50000000E+00  8.00000000E-01  8.00000000E-01  1.50000000E+00  1.50000000E+00
  8.00000000E-01  8.00000000E-01  1.50000000E+00  1.50000000E+00  8.00000000E-01
  8.00000000E-01  1.50000000E+00  1.50000000E+00  8.00000000E-01  8.00000000E-01
  1.50000000E+00  1.50000000E+00  8.00000000E-01  8.00000000E-01  1.50000000E+00
  1.50000000E+00  8.00000000E-01  8.00000000E-01  1.50000000E+00  1.50000000E+00
  8.00000000E-01  8.00000000E-01  1.50000000E+00  1.50000000E+00  8.00000000E-01
  8.00000000E-01  1.50000000E+00  1.50000000E+00  8.00000000E-01  8.00000000E-01
  1.50000000E+00  1.50000000E+00  8.00000000E-01  8.00000000E-01  1.50000000E+00
  1.50000000E+00  8.00000000E-01  8.00000000E-01  1.50000000E+00  1.50000000E+00
  8.00000000E-01  8.00000000E-01  1.50000000E+00  1.50000000E+00  8.00000000E-01
  8.00000000E-01  1.50000000E+00  1.50000000E+00  8.00000000E-01  8.00000000E-01
  1.50000000E+00  1.50000000E+00  8.00000000E-01  8.00000000E-01  1.50000000E+00
  1.50000000E+00  8.00000000E-01  8.00000000E-01  1.50000000E+00  1.50000000E+00
  8.00000000E-01  8.00000000E-01  1.50000000E+00  1.50000000E+00  8.00000000E-01
  8.00000000E-01  1.50000000E+00  1.50000000E+00  8.00000000E-01  8.00000000E-01
  1.50000000E+00  1.50000000E+00  8.00000000E-01  8.00000000E-01  1.50000000E+00
  1.50000000E+00  8.00000000E-01  8.00000000E-01  1.50000000E+00  1.50000000E+00
  8.00000000E-01  8.00000000E-01  1.50000000E+00  1.50000000E+00  8.00000000E-01
  8.00000000E-01  1.50000000E+00  1.50000000E+00  8.00000000E-01  8.00000000E-01
  1.50000000E+00  1.50000000E+00  8.00000000E-01  8.00000000E-01  1.50000000E+00
  1.50000000E+00  8.00000000E-01  8.00000000E-01  1.50000000E+00  1.50000000E+00
  8.00000000E-01  8.00000000E-01  1.50000000E+00  1.50000000E+00  8.00000000E-01
  8.00000000E-01  1.50000000E+00  1.50000000E+00  8.00000000E-01  8.00000000E-01
  1.50000000E+00  1.50000000E+00  8.00000000E-01  8.00000000E-01  1.50000000E+00
  1.50000000E+00  8.00000000E-01  8.00000000E-01  1.50000000E+00  1.50000000E+00
  8.00000000E-01  8.00000000E-01  1.50000000E+00  1.50000000E+00  8.00000000E-01
  8.00000000E-01  1.50000000E+00  1.50000000E+00  8.00000000E-01  8.00000000E-01
  1.50000000E+00  1.50000000E+00  8.00000000E-01  8.00000000E-01  1.50000000E+00
  1.50000000E+00  8.00000000E-01  8.00000000E-01  1.50000000E+00  1.50000000E+00
  8.00000000E-01  8.00000000E-01  1.50000000E+00  1.50000000E+00  8.00000000E-01
  8.00000000E-01  1.50000000E+00  1.50000000E+00  8.00000000E-01  8.00000000E-01
  1.50000000E+00  1.50000000E+00  8.00000000E-01  8.00000000E-01  1.50000000E+00
  1.50000000E+00  8.00000000E-01  8.00000000E-01  1.50000000E+00  1.50000000E+00
  8.00000000E-01  8.00000000E-01  1.50000000E+00  1.50000000E+00  8.00000000E-01
  8.00000000E-01  1.50000000E+00  1.50000000E+00  8.00000000E-01  8.00000000E-01
  1.50000000E+00  1.50000000E+00  8.00000000E-01  8.00000000E-01  1.50000000E+00
  1.50000000E+00  8.00000000E-01  8.00000000E-01  1.50000000E+00  1.50000000E+00
  8.00000000E-01  8.00000000E-01  1.50000000E+00  1.50000000E+00  8.00000000E-01
  8.00000000E-01  1.50000000E+00  1.50000000E+00  8.00000000E-01  8.00000000E-01
  1.50000000E+00  1.50000000E+00  8.00000000E-01  8.00000000E-01  1.50000000E+00
  1.50000000E+00  8.00000000E-01  8.00000000E-01  1.50000000E+00  1.50000000E+00
  8.00000000E-01  8.00000000E-01  1.50000000E+00  1.50000000E+00  8.00000000E-01
  8.00000000E-01  1.50000000E+00  1.50000000E+00  8.00000000E-01  8.00000000E-01
  1.50000000E+00  1.50000000E+00  8.00000000E-01  8.00000000E-01  1.50000000E+00
  1.50000000E+00  8.00000000E-01  8.00000000E-01  1.50000000E+00  1.50000000E+00
  8.00000000E-01  8.00000000E-01  1.50000000E+00  1.50000000E+00  8.00000000E-01
  8.00000000E-01  1.50000000E+00  1.50000000E+00  8.00000000E-01  8.00000000E-01
  1.50000000E+00  1.50000000E+00  8.00000000E-01  8.00000000E-01  1.50000000E+00
  1.50000000E+00  8.00000000E-01  8.00000000E-01  1.50000000E+00  1.50000000E+00
  8.00000000E-01  8.00000000E-01  1.50000000E+00  1.50000000E+00  8.00000000E-01
  8.00000000E-01  1.50000000E+00  1.50000000E+00  8.00000000E-01  8.00000000E-01
  1.50000000E+00  1.50000000E+00  8.00000000E-01  8.00000000E-01  1.50000000E+00
  1.50000000E+00  8.00000000E-01  8.00000000E-01  1.50000000E+00  1.50000000E+00
  8.00000000E-01  8.00000000E-01  1.50000000E+00  1.50000000E+00  8.00000000E-01
  8.00000000E-01  1.50000000E+00  1.50000000E+00  8.00000000E-01  8.00000000E-01
  1.50000000E+00  1.50000000E+00  8.00000000E-01  8.00000000E-01  1.50000000E+00
  1.50000000E+00  8.00000000E-01  8.00000000E-01  1.50000000E+00  1.50000000E+00
  8.00000000E-01  8.00000000E-01  1.50000000E+00  1.50000000E+00  8.00000000E-01
  8.00000000E-01  1.50000000E+00  1.50000000E+00  8.00000000E-01  8.00000000E-01
  1.50000000E+00  1.50000000E+00  8.00000000E-01  8.00000000E-01  1.50000000E+00
  1.50000000E+00  8.00000000E-01  8.00000000E-01  1.50000000E+00  1.50000000E+00
  8.00000000E-01  8.00000000E-01  1.50000000E+00  1.50000000E+00  8.00000000E-01
  8.00000000E-01  1.50000000E+00  1.50000000E+00  8.00000000E-01  8.00000000E-01
  1.50000000E+00  1.50000000E+00  8.00000000E-01  8.00000000E-01  1.50000000E+00
  1.50000000E+00  8.00000000E-01  8.00000000E-01  1.50000000E+00  1.50000000E+00
  8.00000000E-01  8.00000000E-01  1.50000000E+00  1.50000000E+00  8.00000000E-01
  8.00000000E-01  1.50000000E+00  1.50000000E+00  8.00000000E-01  8.00000000E-01
  1.50000000E+00  1.50000000E+00  8.00000000E-01  8.00000000E-01  1.50000000E+00
  1.50000000E+00  8.00000000E-01  8.00000000E-01  1.50000000E+00  1.50000000E+00
  8.00000000E-01  8.00000000E-01  1.50000000E+00  1.50000000E+00  8.00000000E-01
  8.00000000E-01  1.50000000E+00  1.50000000E+00  8.00000000E-01  8.00000000E-01
  1.50000000E+00  1.50000000E+00  8.00000000E-01  8.00000000E-01  1.50000000E+00
  1.50000000E+00  8.00000000E-01  8.00000000E-01  1.50000000E+00  1.50000000E+00
  8.00000000E-01  8.00000000E-01  1.50000000E+00  1.50000000E+00  8.00000000E-01
  8.00000000E-01  1.50000000E+00  1.50000000E+00  8.00000000E-01  8.00000000E-01
  1.50000000E+00  1.50000000E+00  8.00000000E-01  8.00000000E-01  1.50000000E+00
  1.50000000E+00  8.00000000E-01  8.00000000E-01  1.50000000E+00  1.50000000E+00
  8.00000000E-01  8.00000000E-01  1.50000000E+00  1.50000000E+00  8.00000000E-01
  8.00000000E-01  1.50000000E+00  1.50000000E+00  8.00000000E-01  8.00000000E-01
  1.50000000E+00  1.50000000E+00  8.00000000E-01  8.00000000E-01  1.50000000E+00
  1.50000000E+00  8.00000000E-01  8.00000000E-01  1.50000000E+00  1.50000000E+00
  8.00000000E-01  8.00000000E-01  1.50000000E+00  1.50000000E+00  8.00000000E-01
  8.00000000E-01  1.50000000E+00  1.50000000E+00  8.00000000E-01  8.00000000E-01
  1.50000000E+00  1.50000000E+00  8.00000000E-01  8.00000000E-01  1.50000000E+00
  1.50000000E+00  8.00000000E-01  8.00000000E-01  1.50000000E+00  1.50000000E+00
  8.00000000E-01  8.00000000E-01  1.50000000E+00  1.50000000E+00  8.00000000E-01
  8.00000000E-01  1.50000000E+00  1.50000000E+00  8.00000000E-01  8.00000000E-01
  1.50000000E+00  1.50000000E+00  8.00000000E-01  8.00000000E-01  1.50000000E+00
  1.50000000E+00  8.00000000E-01  8.00000000E-01  1.50000000E+00  1.50000000E+00
  8.00000000E-01  8.00000000E-01  1.50000000E+00  1.50000000E+00  8.00000000E-01
  8.00000000E-01  1.50000000E+00  1.50000000E+00  8.00000000E-01  8.00000000E-01
  1.50000000E+00  1.50000000E+00  8.00000000E-01  8.00000000E-01  1.50000000E+00
  1.50000000E+00  8.00000000E-01  8.00000000E-01  1.50000000E+00  1.50000000E+00
  8.00000000E-01  8.00000000E-01  1.50000000E+00  1.50000000E+00  8.00000000E-01
  8.00000000E-01  1.50000000E+00  1.50000000E+00  8.00000000E-01  8.00000000E-01
  1.50000000E+00  1.50000000E+00  8.00000000E-01  8.00000000E-01  1.50000000E+00
  1.50000000E+00  8.00000000E-01  8.00000000E-01  1.50000000E+00  1.50000000E+00
  8.00000000E-01  8.00000000E-01  1.50000000E+00  1.50000000E+00  8.00000000E-01
  8.00000000E-01  1.50000000E+00  1.50000000E+00  8.00000000E-01  8.00000000E-01
  1.50000000E+00  1.50000000E+00  8.00000000E-01  8.00000000E-01  1.50000000E+00
  1.50000000E+00  8.00000000E-01  8.00000000E-01  1.50000000E+00  1.50000000E+00
  8.00000000E-01  8.00000000E-01  1.50000000E+00  1.50000000E+00  8.00000000E-01
  8.00000000E-01  1.50000000E+00  1.50000000E+00  8.00000000E-01  8.00000000E-01
  1.50000000E+00  1.50000000E+00  8.00000000E-01  8.00000000E-01  1.50000000E+00
  1.50000000E+00  8.00000000E-01  8.00000000E-01  1.50000000E+00  1.50000000E+00
  8.00000000E-01  8.00000000E-01  1.50000000E+00  1.50000000E+00  8.00000000E-01
  8.00000000E-01  1.50000000E+00  1.50000000E+00  8.00000000E-01  8.00000000E-01
  1.50000000E+00  1.50000000E+00  8.00000000E-01  8.00000000E-01  1.50000000E+00
  1.50000000E+00  8.00000000E-01  8.00000000E-01  1.50000000E+00  1.50000000E+00
  8.00000000E-01  8.00000000E-01  1.50000000E+00  1.50000000E+00  8.00000000E-01
  8.00000000E-01  1.50000000E+00  1.50000000E+00  8.00000000E-01  8.00000000E-01
  1.50000000E+00  1.50000000E+00  8.00000000E-01  8.00000000E-01  1.50000000E+00
  1.50000000E+00  8.00000000E-01  8.00000000E-01  1.50000000E+00  1.50000000E+00
  8.00000000E-01  8.00000000E-01  1.50000000E+00  1.50000000E+00  8.00000000E-01
  8.00000000E-01  1.50000000E+00  1.50000000E+00  8.00000000E-01  8.00000000E-01
  1.50000000E+00  1.50000000E+00  8.00000000E-01  8.00000000E-01  1.50000000E+00
  1.50000000E+00  8.00000000E-01  8.00000000E-01  1.50000000E+00  1.50000000E+00
  8.00000000E-01  8.00000000E-01  1.50000000E+00  1.50000000E+00  8.00000000E-01
  8.00000000E-01  1.50000000E+00  1.50000000E+00  8.00000000E-01  8.00000000E-01
  1.50000000E+00  1.50000000E+00  8.00000000E-01  8.00000000E-01  1.50000000E+00
  1.50000000E+00  8.00000000E-01  8.00000000E-01  1.50000000E+00  1.50000000E+00
  8.00000000E-01  8.00000000E-01  1.50000000E+00  1.50000000E+00  8.00000000E-01
  8.00000000E-01  1.50000000E+00  1.50000000E+00  8.00000000E-01  8.00000000E-01
  1.50000000E+00  1.50000000E+00  8.00000000E-01  8.00000000E-01  1.50000000E+00
  1.50000000E+00  8.00000000E-01  8.00000000E-01  1.50000000E+00  1.50000000E+00
  8.00000000E-01  8.00000000E-01  1.50000000E+00  1.50000000E+00  8.00000000E-01
  8.00000000E-01  1.50000000E+00  1.50000000E+00  8.00000000E-01  8.00000000E-01
  1.50000000E+00  1.50000000E+00  8.00000000E-01  8.00000000E-01  1.50000000E+00
  1.50000000E+00  8.00000000E-01  8.00000000E-01  1.50000000E+00  1.50000000E+00
  8.00000000E-01  8.00000000E-01  1.50000000E+00  1.50000000E+00  8.00000000E-01
  8.00000000E-01  1.50000000E+00  1.50000000E+00  8.00000000E-01  8.00000000E-01
  1.50000000E+00  1.50000000E+00  8.00000000E-01  8.00000000E-01  1.50000000E+00
  1.50000000E+00  8.00000000E-01  8.00000000E-01  1.50000000E+00  1.50000000E+00
  8.00000000E-01  8.00000000E-01  1.50000000E+00  1.50000000E+00  8.00000000E-01
  8.00000000E-01  1.50000000E+00  1.50000000E+00  8.00000000E-01  8.00000000E-01
  1.50000000E+00  1.50000000E+00  8.00000000E-01  8.00000000E-01  1.50000000E+00
  1.50000000E+00  8.00000000E-01  8.00000000E-01  1.50000000E+00  1.50000000E+00
  8.00000000E-01  8.00000000E-01  1.50000000E+00  1.50000000E+00  8.00000000E-01
  8.00000000E-01  1.50000000E+00  1.50000000E+00  8.00000000E-01  8.00000000E-01
  1.50000000E+00  1.50000000E+00  8.00000000E-01  8.00000000E-01  1.50000000E+00
  1.50000000E+00  8.00000000E-01  8.00000000E-01  1.50000000E+00  1.50000000E+00
  8.00000000E-01  8.00000000E-01  1.50000000E+00  1.50000000E+00  8.00000000E-01
  8.00000000E-01  1.50000000E+00  1.50000000E+00  8.00000000E-01  8.00000000E-01
  1.50000000E+00  1.50000000E+00  8.00000000E-01  8.00000000E-01  1.50000000E+00
  1.50000000E+00  8.00000000E-01  8.00000000E-01  1.50000000E+00  1.50000000E+00
  8.00000000E-01  8.00000000E-01  1.50000000E+00  1.50000000E+00  8.00000000E-01
  8.00000000E-01  1.50000000E+00  1.50000000E+00  8.00000000E-01  8.00000000E-01
  1.50000000E+00  1.50000000E+00  8.00000000E-01  8.00000000E-01  1.50000000E+00
  1.50000000E+00  8.00000000E-01  8.00000000E-01  1.50000000E+00  1.50000000E+00
  8.00000000E-01  8.00000000E-01  1.50000000E+00  1.50000000E+00  8.00000000E-01
  8.00000000E-01  1.50000000E+00  1.50000000E+00  8.00000000E-01  8.00000000E-01
  1.50000000E+00  1.50000000E+00  8.00000000E-01  8.00000000E-01  1.50000000E+00
  1.50000000E+00  8.00000000E-01  8.00000000E-01  1.50000000E+00  1.50000000E+00
  8.00000000E-01  8.00000000E-01  1.50000000E+00  1.50000000E+00  8.00000000E-01
  8.00000000E-01  1.50000000E+00  1.50000000E+00  8.00000000E-01  8.00000000E-01
  1.50000000E+00  1.50000000E+00  8.00000000E-01  8.00000000E-01  1.50000000E+00
  1.50000000E+00  8.00000000E-01  8.00000000E-01  1.50000000E+00  1.50000000E+00
  8.00000000E-01  8.00000000E-01  1.50000000E+00  1.50000000E+00  8.00000000E-01
  8.00000000E-01  1.50000000E+00  1.50000000E+00  8.00000000E-01  8.00000000E-01
  1.50000000E+00  1.50000000E+00  8.00000000E-01  8.00000000E-01  1.50000000E+00
  1.50000000E+00  8.00000000E-01  8.00000000E-01  1.50000000E+00  1.50000000E+00
  8.00000000E-01  8.00000000E-01  1.50000000E+00  1.50000000E+00  8.00000000E-01
  8.00000000E-01  1.50000000E+00  1.50000000E+00  8.00000000E-01  8.00000000E-01
  1.50000000E+00  1.50000000E+00  8.00000000E-01  8.00000000E-01  1.50000000E+00
  1.50000000E+00  8.00000000E-01  8.00000000E-01  1.50000000E+00  1.50000000E+00
  8.00000000E-01  8.00000000E-01  1.50000000E+00  1.50000000E+00  8.00000000E-01
  8.00000000E-01  1.50000000E+00  1.50000000E+00  8.00000000E-01  8.00000000E-01
  1.50000000E+00  1.50000000E+00  8.00000000E-01  8.00000000E-01  1.50000000E+00
  1.50000000E+00  8.00000000E-01  8.00000000E-01  1.50000000E+00  1.50000000E+00
  8.00000000E-01  8.00000000E-01  1.50000000E+00  1.50000000E+00  8.00000000E-01
  8.00000000E-01  1.50000000E+00  1.50000000E+00  8.00000000E-01  8.00000000E-01
  1.50000000E+00  1.50000000E+00  8.00000000E-01  8.00000000E-01  1.50000000E+00
  1.50000000E+00  8.00000000E-01  8.00000000E-01  1.50000000E+00  1.50000000E+00
  8.00000000E-01  8.00000000E-01  1.50000000E+00  1.50000000E+00  8.00000000E-01
  8.00000000E-01  1.50000000E+00  1.50000000E+00  8.00000000E-01  8.00000000E-01
  1.50000000E+00  1.50000000E+00  8.00000000E-01  8.00000000E-01  1.50000000E+00
  1.50000000E+00  8.00000000E-01  8.00000000E-01  1.50000000E+00  1.50000000E+00
  8.00000000E-01  8.00000000E-01  1.50000000E+00  1.50000000E+00  8.00000000E-01
  8.00000000E-01  1.50000000E+00  1.50000000E+00  8.00000000E-01  8.00000000E-01
  1.50000000E+00  1.50000000E+00  8.00000000E-01  8.00000000E-01  1.50000000E+00
  1.50000000E+00  8.00000000E-01  8.00000000E-01  1.50000000E+00  1.50000000E+00
  8.00000000E-01  8.00000000E-01  1.50000000E+00  1.50000000E+00  8.00000000E-01
  8.00000000E-01  1.50000000E+00  1.50000000E+00  8.00000000E-01  8.00000000E-01
  1.50000000E+00  1.50000000E+00  8.00000000E-01  8.00000000E-01  1.50000000E+00
  1.50000000E+00  8.00000000E-01  8.00000000E-01  1.50000000E+00  1.50000000E+00
  8.00000000E-01  8.00000000E-01  1.50000000E+00  1.50000000E+00  8.00000000E-01
  8.00000000E-01  1.50000000E+00  1.50000000E+00  8.00000000E-01  8.00000000E-01
  1.50000000E+00  1.50000000E+00  8.00000000E-01  8.00000000E-01  1.50000000E+00
  1.50000000E+00  8.00000000E-01  8.00000000E-01  1.50000000E+00  1.50000000E+00
  8.00000000E-01  8.00000000E-01  1.50000000E+00  1.50000000E+00  8.00000000E-01
  8.00000000E-01  1.50000000E+00  1.50000000E+00  8.00000000E-01  8.00000000E-01
  1.50000000E+00  1.50000000E+00  8.00000000E-01  8.00000000E-01  1.50000000E+00
  1.50000000E+00  8.00000000E-01  8.00000000E-01  1.50000000E+00  1.50000000E+00
  8.00000000E-01  8.00000000E-01  1.50000000E+00  1.50000000E+00  8.00000000E-01
  8.00000000E-01  1.50000000E+00  1.50000000E+00  8.00000000E-01  8.00000000E-01
  1.50000000E+00  1.50000000E+00  8.00000000E-01  8.00000000E-01  1.50000000E+00
  1.50000000E+00  8.00000000E-01  8.00000000E-01  1.50000000E+00  1.50000000E+00
  8.00000000E-01  8.00000000E-01  1.50000000E+00  1.50000000E+00  8.00000000E-01
  8.00000000E-01  1.50000000E+00  1.50000000E+00  8.00000000E-01  8.00000000E-01
  1.50000000E+00  1.50000000E+00  8.00000000E-01  8.00000000E-01  1.50000000E+00
  1.50000000E+00  8.00000000E-01  8.00000000E-01  1.50000000E+00  1.50000000E+00
  8.00000000E-01  8.00000000E-01  1.50000000E+00  1.50000000E+00  8.00000000E-01
  8.00000000E-01  1.50000000E+00  1.50000000E+00  8.00000000E-01  8.00000000E-01
  1.50000000E+00  1.50000000E+00  8.00000000E-01  8.00000000E-01  1.50000000E+00
  1.50000000E+00  8.00000000E-01  8.00000000E-01  1.50000000E+00  1.50000000E+00
  8.00000000E-01  8.00000000E-01  1.50000000E+00  1.50000000E+00  8.00000000E-01
  8.00000000E-01  1.50000000E+00  1.50000000E+00  8.00000000E-01  8.00000000E-01
  1.50000000E+00  1.50000000E+00  8.00000000E-01  8.00000000E-01  1.50000000E+00
  1.50000000E+00  8.00000000E-01  8.00000000E-01  1.50000000E+00  1.50000000E+00
  8.00000000E-01  8.00000000E-01  1.50000000E+00  1.50000000E+00  8.00000000E-01
  8.00000000E-01  1.50000000E+00  1.50000000E+00  8.00000000E-01  8.00000000E-01
  1.50000000E+00  1.50000000E+00  8.00000000E-01  8.00000000E-01  1.50000000E+00
  1.50000000E+00  8.00000000E-01  8.00000000E-01  1.50000000E+00  1.50000000E+00
  8.00000000E-01  8.00000000E-01  1.50000000E+00  1.50000000E+00  8.00000000E-01
  8.00000000E-01  1.50000000E+00  1.50000000E+00  8.00000000E-01  8.00000000E-01
  1.50000000E+00  1.50000000E+00  8.00000000E-01  8.00000000E-01  1.50000000E+00
  1.50000000E+00  8.00000000E-01  8.00000000E-01  1.50000000E+00  1.50000000E+00
  8.00000000E-01  8.00000000E-01  1.50000000E+00  1.50000000E+00  8.00000000E-01
  8.00000000E-01  1.50000000E+00  1.50000000E+00  8.00000000E-01  8.00000000E-01
  1.50000000E+00  1.50000000E+00  8.00000000E-01  8.00000000E-01  1.50000000E+00
  1.50000000E+00  8.00000000E-01  8.00000000E-01  1.50000000E+00  1.50000000E+00
  8.00000000E-01  8.00000000E-01  1.50000000E+00  1.50000000E+00  8.00000000E-01
  8.00000000E-01  1.50000000E+00  1.50000000E+00  8.00000000E-01  8.00000000E-01
  1.50000000E+00  1.50000000E+00  8.00000000E-01  8.00000000E-01  1.50000000E+00
  1.50000000E+00  8.00000000E-01  8.00000000E-01  1.50000000E+00  1.50000000E+00
  8.00000000E-01  8.00000000E-01  1.50000000E+00  1.50000000E+00  8.00000000E-01
  8.00000000E-01  1.50000000E+00  1.50000000E+00  8.00000000E-01  8.00000000E-01
  1.50000000E+00  1.50000000E+00  8.00000000E-01  8.00000000E-01  1.50000000E+00
  1.50000000E+00  8.00000000E-01  8.00000000E-01  1.50000000E+00  1.50000000E+00
  8.00000000E-01  8.00000000E-01  1.50000000E+00  1.50000000E+00  8.00000000E-01
  8.00000000E-01  1.50000000E+00  1.50000000E+00  8.00000000E-01  8.00000000E-01
  1.50000000E+00  1.50000000E+00  8.00000000E-01  8.00000000E-01  1.50000000E+00
  1.50000000E+00  8.00000000E-01  8.00000000E-01  1.50000000E+00  1.50000000E+00
  8.00000000E-01  8.00000000E-01  1.50000000E+00  1.50000000E+00  8.00000000E-01
  8.00000000E-01  1.50000000E+00  1.50000000E+00  8.00000000E-01  8.00000000E-01
  1.50000000E+00  1.50000000E+00  8.00000000E-01  8.00000000E-01  1.50000000E+00
  1.50000000E+00  8.00000000E-01  8.00000000E-01  1.50000000E+00  1.50000000E+00
  8.00000000E-01  8.00000000E-01  1.50000000E+00  1.50000000E+00  8.00000000E-01
  8.00000000E-01  1.50000000E+00  1.50000000E+00  8.00000000E-01  8.00000000E-01
  1.50000000E+00  1.50000000E+00  8.00000000E-01  8.00000000E-01  1.50000000E+00
  1.50000000E+00  8.00000000E-01  8.00000000E-01  1.50000000E+00  1.50000000E+00
  8.00000000E-01  8.00000000E-01  1.50000000E+00  1.50000000E+00  8.00000000E-01
  8.00000000E-01  1.50000000E+00  1.50000000E+00  8.00000000E-01  8.00000000E-01
  1.50000000E+00  1.50000000E+00  8.00000000E-01  8.00000000E-01  1.50000000E+00
  1.50000000E+00  8.00000000E-01  8.00000000E-01  1.50000000E+00  1.50000000E+00
  8.00000000E-01  8.00000000E-01  1.50000000E+00  1.50000000E+00  8.00000000E-01
  8.00000000E-01  1.50000000E+00  1.50000000E+00  8.00000000E-01  8.00000000E-01
  1.50000000E+00  1.50000000E+00  8.00000000E-01  8.00000000E-01  1.50000000E+00
  1.50000000E+00  8.00000000E-01  8.00000000E-01  1.50000000E+00  1.50000000E+00
  8.00000000E-01  8.00000000E-01  1.50000000E+00  1.50000000E+00  8.00000000E-01
  8.00000000E-01  1.50000000E+00  1.50000000E+00  8.00000000E-01  8.00000000E-01
  1.50000000E+00  1.50000000E+00  8.00000000E-01  8.00000000E-01  1.50000000E+00
  1.50000000E+00  8.00000000E-01  8.00000000E-01  1.50000000E+00  1.50000000E+00
  8.00000000E-01  8.00000000E-01  1.50000000E+00  1.50000000E+00  8.00000000E-01
  8.00000000E-01  1.50000000E+00  1.50000000E+00  8.00000000E-01  8.00000000E-01
  1.50000000E+00  1.50000000E+00  8.00000000E-01  8.00000000E-01  1.50000000E+00
  1.50000000E+00  8.00000000E-01  8.00000000E-01  1.50000000E+00  1.50000000E+00
  8.00000000E-01  8.00000000E-01  1.50000000E+00  1.50000000E+00  8.00000000E-01
  8.00000000E-01  1.50000000E+00  1.50000000E+00  8.00000000E-01  8.00000000E-01
  1.50000000E+00  1.50000000E+00  8.00000000E-01  8.00000000E-01  1.50000000E+00
  1.50000000E+00  8.00000000E-01  8.00000000E-01  1.50000000E+00  1.50000000E+00
  8.00000000E-01  8.00000000E-01  1.50000000E+00  1.50000000E+00  8.00000000E-01
  8.00000000E-01  1.50000000E+00  1.50000000E+00  8.00000000E-01  8.00000000E-01
  1.50000000E+00  1.50000000E+00  8.00000000E-01  8.00000000E-01  1.50000000E+00
  1.50000000E+00  8.00000000E-01  8.00000000E-01  1.50000000E+00  1.50000000E+00
  8.00000000E-01  8.00000000E-01  1.50000000E+00  1.50000000E+00  8.00000000E-01
  8.00000000E-01  1.50000000E+00  1.50000000E+00  8.00000000E-01  8.00000000E-01
  1.50000000E+00  1.50000000E+00  8.00000000E-01  8.00000000E-01  1.50000000E+00
  1.50000000E+00  8.00000000E-01  8.00000000E-01  1.50000000E+00  1.50000000E+00
  8.00000000E-01  8.00000000E-01  1.50000000E+00  1.50000000E+00  8.00000000E-01
  8.00000000E-01  1.50000000E+00  1.50000000E+00  8.00000000E-01  8.00000000E-01
  1.50000000E+00  1.50000000E+00  8.00000000E-01  8.00000000E-01  1.50000000E+00
  1.50000000E+00  8.00000000E-01  8.00000000E-01  1.50000000E+00  1.50000000E+00
  8.00000000E-01  8.00000000E-01  1.50000000E+00  1.50000000E+00  8.00000000E-01
  8.00000000E-01  1.50000000E+00  1.50000000E+00  8.00000000E-01  8.00000000E-01
  1.50000000E+00  1.50000000E+00  8.00000000E-01  8.00000000E-01  1.50000000E+00
  1.50000000E+00  8.00000000E-01  8.00000000E-01  1.50000000E+00  1.50000000E+00
  8.00000000E-01  8.00000000E-01  1.50000000E+00  1.50000000E+00  8.00000000E-01
  8.00000000E-01  1.50000000E+00  1.50000000E+00  8.00000000E-01  8.00000000E-01
  1.50000000E+00  1.50000000E+00  8.00000000E-01  8.00000000E-01  1.50000000E+00
  1.50000000E+00  8.00000000E-01  8.00000000E-01  1.50000000E+00  1.50000000E+00
  8.00000000E-01  8.00000000E-01  1.50000000E+00  1.50000000E+00  8.00000000E-01
  8.00000000E-01  1.50000000E+00  1.50000000E+00  8.00000000E-01  8.00000000E-01
  1.50000000E+00  1.50000000E+00  8.00000000E-01  8.00000000E-01  1.50000000E+00
  1.50000000E+00  8.00000000E-01  8.00000000E-01  1.50000000E+00  1.50000000E+00
  8.00000000E-01  8.00000000E-01  1.50000000E+00  1.50000000E+00  8.00000000E-01
  8.00000000E-01  1.50000000E+00  1.50000000E+00  8.00000000E-01  8.00000000E-01
  1.50000000E+00  1.50000000E+00  8.00000000E-01  8.00000000E-01  1.50000000E+00
  1.50000000E+00  8.00000000E-01  8.00000000E-01  1.50000000E+00  1.50000000E+00
  8.00000000E-01  8.00000000E-01  1.50000000E+00  1.50000000E+00  8.00000000E-01
  8.00000000E-01  1.50000000E+00  1.50000000E+00  8.00000000E-01  8.00000000E-01
  1.50000000E+00  1.50000000E+00  8.00000000E-01  8.00000000E-01  1.50000000E+00
  1.50000000E+00  8.00000000E-01  8.00000000E-01  1.50000000E+00  1.50000000E+00
  8.00000000E-01  8.00000000E-01  1.50000000E+00  1.50000000E+00  8.00000000E-01
  8.00000000E-01  1.50000000E+00  1.50000000E+00  8.00000000E-01  8.00000000E-01
  1.50000000E+00  1.50000000E+00  8.00000000E-01  8.00000000E-01  1.50000000E+00
  1.50000000E+00  8.00000000E-01  8.00000000E-01  1.50000000E+00  1.50000000E+00
  8.00000000E-01  8.00000000E-01  1.50000000E+00  1.50000000E+00  8.00000000E-01
  8.00000000E-01  1.50000000E+00  1.50000000E+00  8.00000000E-01  8.00000000E-01
  1.50000000E+00  1.50000000E+00  8.00000000E-01  8.00000000E-01  1.50000000E+00
  1.50000000E+00  8.00000000E-01  8.00000000E-01  1.50000000E+00  1.50000000E+00
  8.00000000E-01  8.00000000E-01  1.50000000E+00  1.50000000E+00  8.00000000E-01
  8.00000000E-01  1.50000000E+00  1.50000000E+00  8.00000000E-01  8.00000000E-01
  1.50000000E+00  1.50000000E+00  8.00000000E-01  8.00000000E-01  1.50000000E+00
  1.50000000E+00  8.00000000E-01  8.00000000E-01  1.50000000E+00  1.50000000E+00
  8.00000000E-01  8.00000000E-01  1.50000000E+00  1.50000000E+00  8.00000000E-01
  8.00000000E-01  1.50000000E+00  1.50000000E+00  8.00000000E-01  8.00000000E-01
  1.50000000E+00  1.50000000E+00  8.00000000E-01  8.00000000E-01  1.50000000E+00
  1.50000000E+00  8.00000000E-01  8.00000000E-01  1.50000000E+00  1.50000000E+00
  8.00000000E-01  8.00000000E-01  1.50000000E+00  1.50000000E+00  8.00000000E-01
  8.00000000E-01  1.50000000E+00  1.50000000E+00  8.00000000E-01  8.00000000E-01
  1.50000000E+00  1.50000000E+00  8.00000000E-01  8.00000000E-01  1.50000000E+00
  1.50000000E+00  8.00000000E-01  8.00000000E-01  1.50000000E+00  1.50000000E+00
  8.00000000E-01  8.00000000E-01  1.50000000E+00  1.50000000E+00  8.00000000E-01
  8.00000000E-01  1.50000000E+00  1.50000000E+00  8.00000000E-01  8.00000000E-01
  1.50000000E+00  1.50000000E+00  8.00000000E-01  8.00000000E-01  1.50000000E+00
  1.50000000E+00  8.00000000E-01  8.00000000E-01  1.50000000E+00  1.50000000E+00
  8.00000000E-01  8.00000000E-01  1.50000000E+00  1.50000000E+00  8.00000000E-01
  8.00000000E-01  1.50000000E+00  1.50000000E+00  8.00000000E-01  8.00000000E-01
  1.50000000E+00  1.50000000E+00  8.00000000E-01  8.00000000E-01  1.50000000E+00
  1.50000000E+00  8.00000000E-01  8.00000000E-01  1.50000000E+00  1.50000000E+00
  8.00000000E-01  8.00000000E-01  1.50000000E+00  1.50000000E+00  8.00000000E-01
  8.00000000E-01  1.50000000E+00  1.50000000E+00  8.00000000E-01  8.00000000E-01
  1.50000000E+00  1.50000000E+00  8.00000000E-01  8.00000000E-01  1.50000000E+00
  1.50000000E+00  8.00000000E-01  8.00000000E-01  1.50000000E+00  1.50000000E+00
  8.00000000E-01  8.00000000E-01  1.50000000E+00  1.50000000E+00  8.00000000E-01
  8.00000000E-01  1.50000000E+00  1.50000000E+00  8.00000000E-01  8.00000000E-01
  1.50000000E+00  1.50000000E+00  8.00000000E-01  8.00000000E-01  1.50000000E+00
  1.50000000E+00  8.00000000E-01  8.00000000E-01  1.50000000E+00  1.50000000E+00
  8.00000000E-01  8.00000000E-01  1.50000000E+00  1.50000000E+00  8.00000000E-01
  8.00000000E-01  1.50000000E+00  1.50000000E+00  8.00000000E-01  8.00000000E-01
  1.50000000E+00  1.50000000E+00  8.00000000E-01  8.00000000E-01  1.50000000E+00
  1.50000000E+00  8.00000000E-01  8.00000000E-01  1.50000000E+00  1.50000000E+00
  8.00000000E-01  8.00000000E-01  1.50000000E+00  1.50000000E+00  8.00000000E-01
  8.00000000E-01  1.50000000E+00  1.50000000E+00  8.00000000E-01  8.00000000E-01
  1.50000000E+00  1.50000000E+00  8.00000000E-01  8.00000000E-01  1.50000000E+00
  1.50000000E+00  8.00000000E-01  8.00000000E-01  1.50000000E+00  1.50000000E+00
  8.00000000E-01  8.00000000E-01  1.50000000E+00  1.50000000E+00  8.00000000E-01
  8.00000000E-01  1.50000000E+00  1.50000000E+00  8.00000000E-01  8.00000000E-01
  1.50000000E+00  1.50000000E+00  8.00000000E-01  8.00000000E-01  1.50000000E+00
  1.50000000E+00  8.00000000E-01  8.00000000E-01  1.50000000E+00  1.50000000E+00
  8.00000000E-01  8.00000000E-01  1.50000000E+00  1.50000000E+00  8.00000000E-01
  8.00000000E-01  1.50000000E+00  1.50000000E+00  8.00000000E-01  8.00000000E-01
  1.50000000E+00  1.50000000E+00  8.00000000E-01  8.00000000E-01  1.50000000E+00
  1.50000000E+00  8.00000000E-01  8.00000000E-01  1.50000000E+00  1.50000000E+00
  8.00000000E-01  8.00000000E-01  1.50000000E+00  1.50000000E+00  8.00000000E-01
  8.00000000E-01  1.50000000E+00  1.50000000E+00  8.00000000E-01  8.00000000E-01
  1.50000000E+00  1.50000000E+00  8.00000000E-01  8.00000000E-01  1.50000000E+00
  1.50000000E+00  8.00000000E-01  8.00000000E-01  1.50000000E+00  1.50000000E+00
  8.00000000E-01  8.00000000E-01  1.50000000E+00  1.50000000E+00  8.00000000E-01
  8.00000000E-01  1.50000000E+00  1.50000000E+00  8.00000000E-01  8.00000000E-01
  1.50000000E+00  1.50000000E+00  8.00000000E-01  8.00000000E-01  1.50000000E+00
  1.50000000E+00  8.00000000E-01  8.00000000E-01  1.50000000E+00  1.50000000E+00
  8.00000000E-01  8.00000000E-01  1.50000000E+00  1.50000000E+00  8.00000000E-01
  8.00000000E-01  1.50000000E+00  1.50000000E+00  8.00000000E-01  8.00000000E-01
  1.50000000E+00  1.50000000E+00  8.00000000E-01  8.00000000E-01  1.50000000E+00
  1.50000000E+00  8.00000000E-01  8.00000000E-01  1.50000000E+00  1.50000000E+00
  8.00000000E-01  8.00000000E-01  1.50000000E+00  1.50000000E+00  8.00000000E-01
  8.00000000E-01  1.50000000E+00  1.50000000E+00  8.00000000E-01  8.00000000E-01
  1.50000000E+00  1.50000000E+00  8.00000000E-01  8.00000000E-01  1.50000000E+00
  1.50000000E+00  8.00000000E-01  8.00000000E-01  1.50000000E+00  1.50000000E+00
  8.00000000E-01  8.00000000E-01  1.50000000E+00  1.50000000E+00  8.00000000E-01
  8.00000000E-01  1.50000000E+00  1.50000000E+00  8.00000000E-01  8.00000000E-01
  1.50000000E+00  1.50000000E+00  8.00000000E-01  8.00000000E-01  1.50000000E+00
  1.50000000E+00  8.00000000E-01  8.00000000E-01  1.50000000E+00  1.50000000E+00
  8.00000000E-01  8.00000000E-01  1.50000000E+00  1.50000000E+00  8.00000000E-01
  8.00000000E-01  1.50000000E+00  1.50000000E+00  8.00000000E-01  8.00000000E-01
  1.50000000E+00  1.50000000E+00  8.00000000E-01  8.00000000E-01  1.50000000E+00
  1.50000000E+00  8.00000000E-01  8.00000000E-01  1.50000000E+00  1.50000000E+00
  8.00000000E-01  8.00000000E-01  1.50000000E+00  1.50000000E+00  8.00000000E-01
  8.00000000E-01  1.50000000E+00  1.50000000E+00  8.00000000E-01  8.00000000E-01
  1.50000000E+00  1.50000000E+00  8.00000000E-01  8.00000000E-01  1.50000000E+00
  1.50000000E+00  8.00000000E-01  8.00000000E-01  1.50000000E+00  1.50000000E+00
  8.00000000E-01  8.00000000E-01  1.50000000E+00  1.50000000E+00  8.00000000E-01
  8.00000000E-01  1.50000000E+00  1.50000000E+00  8.00000000E-01  8.00000000E-01
  1.50000000E+00  1.50000000E+00  8.00000000E-01  8.00000000E-01  1.50000000E+00
  1.50000000E+00  8.00000000E-01  8.00000000E-01  1.50000000E+00  1.50000000E+00
  8.00000000E-01  8.00000000E-01  1.50000000E+00  1.50000000E+00  8.00000000E-01
  8.00000000E-01  1.50000000E+00  1.50000000E+00  8.00000000E-01  8.00000000E-01
  1.50000000E+00  1.50000000E+00  8.00000000E-01  8.00000000E-01  1.50000000E+00
  1.50000000E+00  8.00000000E-01  8.00000000E-01  1.50000000E+00  1.50000000E+00
  8.00000000E-01  8.00000000E-01  1.50000000E+00  1.50000000E+00  8.00000000E-01
  8.00000000E-01  1.50000000E+00  1.50000000E+00  8.00000000E-01  8.00000000E-01
  1.50000000E+00  1.50000000E+00  8.00000000E-01  8.00000000E-01  1.50000000E+00
  1.50000000E+00  8.00000000E-01  8.00000000E-01  1.50000000E+00  1.50000000E+00
  8.00000000E-01  8.00000000E-01  1.50000000E+00  1.50000000E+00  8.00000000E-01
  8.00000000E-01  1.50000000E+00  1.50000000E+00  8.00000000E-01  8.00000000E-01
  1.50000000E+00  1.50000000E+00  8.00000000E-01  8.00000000E-01  1.50000000E+00
  1.50000000E+00  8.00000000E-01  8.00000000E-01  1.50000000E+00  1.50000000E+00
  8.00000000E-01  8.00000000E-01  1.50000000E+00  1.50000000E+00  8.00000000E-01
  8.00000000E-01  1.50000000E+00  1.50000000E+00  8.00000000E-01  8.00000000E-01
  1.50000000E+00  1.50000000E+00  8.00000000E-01  8.00000000E-01  1.50000000E+00
  1.50000000E+00  8.00000000E-01  8.00000000E-01  1.50000000E+00  1.50000000E+00
  8.00000000E-01  8.00000000E-01  1.50000000E+00  1.50000000E+00  8.00000000E-01
  8.00000000E-01  1.50000000E+00  1.50000000E+00  8.00000000E-01  8.00000000E-01
  1.50000000E+00  1.50000000E+00  8.00000000E-01  8.00000000E-01  1.50000000E+00
  1.50000000E+00  8.00000000E-01  8.00000000E-01  1.50000000E+00  1.50000000E+00
  8.00000000E-01  8.00000000E-01  1.50000000E+00  1.50000000E+00  8.00000000E-01
  8.00000000E-01  1.50000000E+00  1.50000000E+00  8.00000000E-01  8.00000000E-01
  1.50000000E+00  1.50000000E+00  8.00000000E-01  8.00000000E-01  1.50000000E+00
  1.50000000E+00  8.00000000E-01  8.00000000E-01  1.50000000E+00  1.50000000E+00
  8.00000000E-01  8.00000000E-01  1.50000000E+00  1.50000000E+00  8.00000000E-01
  8.00000000E-01  1.50000000E+00  1.50000000E+00  8.00000000E-01  8.00000000E-01
  1.50000000E+00  1.50000000E+00  8.00000000E-01  8.00000000E-01  1.50000000E+00
  1.50000000E+00  8.00000000E-01  8.00000000E-01  1.50000000E+00  1.50000000E+00
  8.00000000E-01  8.00000000E-01  1.50000000E+00  1.50000000E+00  8.00000000E-01
  8.00000000E-01  1.50000000E+00  1.50000000E+00  8.00000000E-01  8.00000000E-01
  1.50000000E+00  1.50000000E+00  8.00000000E-01  8.00000000E-01  1.50000000E+00
  1.50000000E+00  8.00000000E-01  8.00000000E-01  1.50000000E+00  1.50000000E+00
  8.00000000E-01  8.00000000E-01  1.50000000E+00  1.50000000E+00  8.00000000E-01
  8.00000000E-01  1.50000000E+00  1.50000000E+00  8.00000000E-01  8.00000000E-01
  1.50000000E+00  1.50000000E+00  8.00000000E-01  8.00000000E-01  1.50000000E+00
  1.50000000E+00  8.00000000E-01  8.00000000E-01  1.50000000E+00  1.50000000E+00
  8.00000000E-01  8.00000000E-01  1.50000000E+00  1.50000000E+00  8.00000000E-01
  8.00000000E-01  1.50000000E+00  1.50000000E+00  8.00000000E-01  8.00000000E-01
  1.50000000E+00  1.50000000E+00  8.00000000E-01  8.00000000E-01  1.50000000E+00
  1.50000000E+00  8.00000000E-01  8.00000000E-01  1.50000000E+00  1.50000000E+00
  8.00000000E-01  8.00000000E-01  1.50000000E+00  1.50000000E+00  8.00000000E-01
  8.00000000E-01  1.50000000E+00  1.50000000E+00  8.00000000E-01  8.00000000E-01
  1.50000000E+00  1.50000000E+00  8.00000000E-01  8.00000000E-01  1.50000000E+00
  1.50000000E+00  8.00000000E-01  8.00000000E-01  1.50000000E+00  1.50000000E+00
  8.00000000E-01  8.00000000E-01  1.50000000E+00  1.50000000E+00  8.00000000E-01
  8.00000000E-01  1.50000000E+00  1.50000000E+00  8.00000000E-01  8.00000000E-01
  1.50000000E+00  1.50000000E+00  8.00000000E-01  8.00000000E-01  1.50000000E+00
  1.50000000E+00  8.00000000E-01  8.00000000E-01  1.50000000E+00  1.50000000E+00
  8.00000000E-01  8.00000000E-01  1.50000000E+00  1.50000000E+00  8.00000000E-01
  8.00000000E-01  1.50000000E+00  1.50000000E+00  8.00000000E-01  8.00000000E-01
  1.50000000E+00  1.50000000E+00  8.00000000E-01  8.00000000E-01  1.50000000E+00
  1.50000000E+00  8.00000000E-01  8.00000000E-01  1.50000000E+00  1.50000000E+00
  8.00000000E-01  8.00000000E-01  1.50000000E+00  1.50000000E+00  8.00000000E-01
  8.00000000E-01  1.50000000E+00  1.50000000E+00  8.00000000E-01  8.00000000E-01
  1.50000000E+00  1.50000000E+00  8.00000000E-01  8.00000000E-01  1.50000000E+00
  1.50000000E+00  8.00000000E-01  8.00000000E-01  1.50000000E+00  1.50000000E+00
  8.00000000E-01  8.00000000E-01  1.50000000E+00  1.50000000E+00  8.00000000E-01
  8.00000000E-01  1.50000000E+00  1.50000000E+00  8.00000000E-01  8.00000000E-01
  1.50000000E+00  1.50000000E+00  8.00000000E-01  8.00000000E-01  1.50000000E+00
  1.50000000E+00  8.00000000E-01  8.00000000E-01  1.50000000E+00  1.50000000E+00
  8.00000000E-01  8.00000000E-01  1.50000000E+00  1.50000000E+00  8.00000000E-01
  8.00000000E-01  1.50000000E+00  1.50000000E+00  8.00000000E-01  8.00000000E-01
  1.50000000E+00  1.50000000E+00  8.00000000E-01  8.00000000E-01  1.50000000E+00
  1.50000000E+00  8.00000000E-01  8.00000000E-01  1.50000000E+00  1.50000000E+00
  8.00000000E-01  8.00000000E-01  1.50000000E+00  1.50000000E+00  8.00000000E-01
  8.00000000E-01  1.50000000E+00  1.50000000E+00  8.00000000E-01  8.00000000E-01
  1.50000000E+00  1.50000000E+00  8.00000000E-01  8.00000000E-01  1.50000000E+00
  1.50000000E+00  8.00000000E-01  8.00000000E-01  1.50000000E+00  1.50000000E+00
  8.00000000E-01  8.00000000E-01  1.50000000E+00  1.50000000E+00  8.00000000E-01
  8.00000000E-01  1.50000000E+00  1.50000000E+00  8.00000000E-01  8.00000000E-01
  1.50000000E+00  1.50000000E+00  8.00000000E-01  8.00000000E-01  1.50000000E+00
  1.50000000E+00  8.00000000E-01  8.00000000E-01  1.50000000E+00  1.50000000E+00
  8.00000000E-01  8.00000000E-01  1.50000000E+00  1.50000000E+00  8.00000000E-01
  8.00000000E-01  1.50000000E+00  1.50000000E+00  8.00000000E-01  8.00000000E-01
  1.50000000E+00  1.50000000E+00  8.00000000E-01  8.00000000E-01  1.50000000E+00
  1.50000000E+00  8.00000000E-01  8.00000000E-01  1.50000000E+00  1.50000000E+00
  8.00000000E-01  8.00000000E-01  1.50000000E+00  1.50000000E+00  8.00000000E-01
  8.00000000E-01  1.50000000E+00  1.50000000E+00  8.00000000E-01  8.00000000E-01
  1.50000000E+00  1.50000000E+00  8.00000000E-01  8.00000000E-01  1.50000000E+00
  1.50000000E+00  8.00000000E-01  8.00000000E-01  1.50000000E+00  1.50000000E+00
  8.00000000E-01  8.00000000E-01  1.50000000E+00  1.50000000E+00  8.00000000E-01
  8.00000000E-01  1.50000000E+00  1.50000000E+00  8.00000000E-01  8.00000000E-01
  1.50000000E+00  1.50000000E+00  8.00000000E-01  8.00000000E-01  1.50000000E+00
  1.50000000E+00  8.00000000E-01  8.00000000E-01  1.50000000E+00  1.50000000E+00
  8.00000000E-01  8.00000000E-01  1.50000000E+00  1.50000000E+00  8.00000000E-01
  8.00000000E-01  1.50000000E+00  1.50000000E+00  8.00000000E-01  8.00000000E-01
  1.50000000E+00  1.50000000E+00  8.00000000E-01  8.00000000E-01  1.50000000E+00
  1.50000000E+00  8.00000000E-01  8.00000000E-01  1.50000000E+00  1.50000000E+00
  8.00000000E-01  8.00000000E-01  1.50000000E+00  1.50000000E+00  8.00000000E-01
  8.00000000E-01  1.50000000E+00  1.50000000E+00  8.00000000E-01  8.00000000E-01
  1.50000000E+00  1.50000000E+00  8.00000000E-01  8.00000000E-01  1.50000000E+00
  1.50000000E+00  8.00000000E-01  8.00000000E-01  1.50000000E+00  1.50000000E+00
  8.00000000E-01  8.00000000E-01  1.50000000E+00  1.50000000E+00  8.00000000E-01
  8.00000000E-01  1.50000000E+00  1.50000000E+00  8.00000000E-01  8.00000000E-01
  1.50000000E+00  1.50000000E+00  8.00000000E-01  8.00000000E-01  1.50000000E+00
  1.50000000E+00  8.00000000E-01  8.00000000E-01  1.50000000E+00  1.50000000E+00
  8.00000000E-01  8.00000000E-01  1.50000000E+00  1.50000000E+00  8.00000000E-01
  8.00000000E-01  1.50000000E+00  1.50000000E+00  8.00000000E-01  8.00000000E-01
  1.50000000E+00  1.50000000E+00  8.00000000E-01  8.00000000E-01  1.50000000E+00
  1.50000000E+00  8.00000000E-01  8.00000000E-01  1.50000000E+00  1.50000000E+00
  8.00000000E-01  8.00000000E-01  1.50000000E+00  1.50000000E+00  8.00000000E-01
  8.00000000E-01  1.50000000E+00  1.50000000E+00  8.00000000E-01  8.00000000E-01
  1.50000000E+00  1.50000000E+00  8.00000000E-01  8.00000000E-01  1.50000000E+00
  1.50000000E+00  8.00000000E-01  8.00000000E-01  1.50000000E+00  1.50000000E+00
  8.00000000E-01  8.00000000E-01  1.50000000E+00  1.50000000E+00  8.00000000E-01
  8.00000000E-01  1.50000000E+00  1.50000000E+00  8.00000000E-01  8.00000000E-01
  1.50000000E+00  1.50000000E+00  8.00000000E-01  8.00000000E-01  1.50000000E+00
  1.50000000E+00  8.00000000E-01  8.00000000E-01  1.50000000E+00  1.50000000E+00
  8.00000000E-01  8.00000000E-01  1.50000000E+00  1.50000000E+00  8.00000000E-01
  8.00000000E-01  1.50000000E+00  1.50000000E+00  8.00000000E-01  8.00000000E-01
  1.50000000E+00  1.50000000E+00  8.00000000E-01  8.00000000E-01  1.50000000E+00
  1.50000000E+00  8.00000000E-01  8.00000000E-01  1.50000000E+00  1.50000000E+00
  8.00000000E-01  8.00000000E-01  1.50000000E+00  1.50000000E+00  8.00000000E-01
  8.00000000E-01  1.50000000E+00  1.50000000E+00  8.00000000E-01  8.00000000E-01
  1.50000000E+00  1.50000000E+00  8.00000000E-01  8.00000000E-01  1.50000000E+00
  1.50000000E+00  8.00000000E-01  8.00000000E-01  1.50000000E+00  1.50000000E+00
  8.00000000E-01  8.00000000E-01  1.50000000E+00  1.50000000E+00  8.00000000E-01
  8.00000000E-01  1.50000000E+00  1.50000000E+00  8.00000000E-01  8.00000000E-01
  1.50000000E+00  1.50000000E+00  8.00000000E-01  8.00000000E-01  1.50000000E+00
  1.50000000E+00  8.00000000E-01  8.00000000E-01  1.50000000E+00  1.50000000E+00
  8.00000000E-01  8.00000000E-01  1.50000000E+00  1.50000000E+00  8.00000000E-01
  8.00000000E-01  1.50000000E+00  1.50000000E+00  8.00000000E-01  8.00000000E-01
  1.50000000E+00  1.50000000E+00  8.00000000E-01  8.00000000E-01  1.50000000E+00
  1.50000000E+00  8.00000000E-01  8.00000000E-01  1.50000000E+00  1.50000000E+00
  8.00000000E-01  8.00000000E-01  1.50000000E+00  1.50000000E+00  8.00000000E-01
  8.00000000E-01  1.50000000E+00  1.50000000E+00  8.00000000E-01  8.00000000E-01
  1.50000000E+00  1.50000000E+00  8.00000000E-01  8.00000000E-01  1.50000000E+00
  1.50000000E+00  8.00000000E-01  8.00000000E-01  1.50000000E+00  1.50000000E+00
  8.00000000E-01  8.00000000E-01  1.50000000E+00  1.50000000E+00  8.00000000E-01
  8.00000000E-01  1.50000000E+00  1.50000000E+00  8.00000000E-01  8.00000000E-01
  1.50000000E+00  1.50000000E+00  8.00000000E-01  8.00000000E-01  1.50000000E+00
  1.50000000E+00  8.00000000E-01  8.00000000E-01  1.50000000E+00  1.50000000E+00
  8.00000000E-01  8.00000000E-01  1.50000000E+00  1.50000000E+00  8.00000000E-01
  8.00000000E-01  1.50000000E+00  1.50000000E+00  8.00000000E-01  8.00000000E-01
  1.50000000E+00  1.50000000E+00  8.00000000E-01  8.00000000E-01  1.50000000E+00
  1.50000000E+00  8.00000000E-01  8.00000000E-01  1.50000000E+00  1.50000000E+00
  8.00000000E-01  8.00000000E-01  1.50000000E+00  1.50000000E+00  8.00000000E-01
  8.00000000E-01  1.50000000E+00  1.50000000E+00  8.00000000E-01  8.00000000E-01
  1.50000000E+00  1.50000000E+00  8.00000000E-01  8.00000000E-01  1.50000000E+00
  1.50000000E+00  8.00000000E-01  8.00000000E-01  1.50000000E+00  1.50000000E+00
  8.00000000E-01  8.00000000E-01  1.50000000E+00  1.50000000E+00  8.00000000E-01
  8.00000000E-01  1.50000000E+00  1.50000000E+00  8.00000000E-01  8.00000000E-01
  1.50000000E+00  1.50000000E+00  8.00000000E-01  8.00000000E-01  1.50000000E+00
  1.50000000E+00  8.00000000E-01  8.00000000E-01  1.50000000E+00  1.50000000E+00
  8.00000000E-01  8.00000000E-01  1.50000000E+00  1.50000000E+00  8.00000000E-01
  8.00000000E-01  1.50000000E+00  1.50000000E+00  8.00000000E-01  8.00000000E-01
  1.50000000E+00  1.50000000E+00  8.00000000E-01  8.00000000E-01  1.50000000E+00
  1.50000000E+00  8.00000000E-01  8.00000000E-01  1.50000000E+00  1.50000000E+00
  8.00000000E-01  8.00000000E-01  1.50000000E+00  1.50000000E+00  8.00000000E-01
  8.00000000E-01  1.50000000E+00  1.50000000E+00  8.00000000E-01  8.00000000E-01
  1.50000000E+00  1.50000000E+00  8.00000000E-01  8.00000000E-01  1.50000000E+00
  1.50000000E+00  8.00000000E-01  8.00000000E-01  1.50000000E+00  1.50000000E+00
  8.00000000E-01  8.00000000E-01  1.50000000E+00  1.50000000E+00  8.00000000E-01
  8.00000000E-01  1.50000000E+00  1.50000000E+00  8.00000000E-01  8.00000000E-01
  1.50000000E+00  1.50000000E+00  8.00000000E-01  8.00000000E-01  1.50000000E+00
  1.50000000E+00  8.00000000E-01  8.00000000E-01  1.50000000E+00  1.50000000E+00
  8.00000000E-01  8.00000000E-01  1.50000000E+00  1.50000000E+00  8.00000000E-01
  8.00000000E-01  1.50000000E+00  1.50000000E+00  8.00000000E-01  8.00000000E-01
  1.50000000E+00  1.50000000E+00  8.00000000E-01  8.00000000E-01  1.50000000E+00
  1.50000000E+00  8.00000000E-01  8.00000000E-01  1.50000000E+00  1.50000000E+00
  8.00000000E-01  8.00000000E-01  1.50000000E+00  1.50000000E+00  8.00000000E-01
  8.00000000E-01  1.50000000E+00  1.50000000E+00  8.00000000E-01  8.00000000E-01
  1.50000000E+00  1.50000000E+00  8.00000000E-01  8.00000000E-01  1.50000000E+00
  1.50000000E+00  8.00000000E-01  8.00000000E-01  1.50000000E+00  1.50000000E+00
  8.00000000E-01  8.00000000E-01  1.50000000E+00  1.50000000E+00  8.00000000E-01
  8.00000000E-01  1.50000000E+00  1.50000000E+00  8.00000000E-01  8.00000000E-01
  1.50000000E+00  1.50000000E+00  8.00000000E-01  8.00000000E-01  1.50000000E+00
  1.50000000E+00  8.00000000E-01  8.00000000E-01  1.50000000E+00  1.50000000E+00
  8.00000000E-01  8.00000000E-01  1.50000000E+00  1.50000000E+00  8.00000000E-01
  8.00000000E-01  1.50000000E+00  1.50000000E+00  8.00000000E-01  8.00000000E-01
  1.50000000E+00  1.50000000E+00  8.00000000E-01  8.00000000E-01  1.50000000E+00
  1.50000000E+00  8.00000000E-01  8.00000000E-01  1.50000000E+00  1.50000000E+00
  8.00000000E-01  8.00000000E-01  1.50000000E+00  1.50000000E+00  8.00000000E-01
  8.00000000E-01  1.50000000E+00  1.50000000E+00  8.00000000E-01  8.00000000E-01
  1.50000000E+00  1.50000000E+00  8.00000000E-01  8.00000000E-01  1.50000000E+00
  1.50000000E+00  8.00000000E-01  8.00000000E-01  1.50000000E+00  1.50000000E+00
  8.00000000E-01  8.00000000E-01  1.50000000E+00  1.50000000E+00  8.00000000E-01
  8.00000000E-01  1.50000000E+00  1.50000000E+00  8.00000000E-01  8.00000000E-01
  1.50000000E+00  1.50000000E+00  8.00000000E-01  8.00000000E-01  1.50000000E+00
  1.50000000E+00  8.00000000E-01  8.00000000E-01  1.50000000E+00  1.50000000E+00
  8.00000000E-01  8.00000000E-01  1.50000000E+00  1.50000000E+00  8.00000000E-01
  8.00000000E-01  1.50000000E+00  1.50000000E+00  8.00000000E-01  8.00000000E-01
  1.50000000E+00  1.50000000E+00  8.00000000E-01  8.00000000E-01  1.50000000E+00
  1.50000000E+00  8.00000000E-01  8.00000000E-01  1.50000000E+00  1.50000000E+00
  8.00000000E-01  8.00000000E-01  1.50000000E+00  1.50000000E+00  8.00000000E-01
  8.00000000E-01  1.50000000E+00  1.50000000E+00  8.00000000E-01  8.00000000E-01
  1.50000000E+00  1.50000000E+00  8.00000000E-01  8.00000000E-01  1.50000000E+00
  1.50000000E+00  8.00000000E-01  8.00000000E-01  1.50000000E+00  1.50000000E+00
  8.00000000E-01  8.00000000E-01  1.50000000E+00  1.50000000E+00  8.00000000E-01
  8.00000000E-01  1.50000000E+00  1.50000000E+00  8.00000000E-01  8.00000000E-01
  1.50000000E+00  1.50000000E+00  8.00000000E-01  8.00000000E-01  1.50000000E+00
  1.50000000E+00  8.00000000E-01  8.00000000E-01  1.50000000E+00  1.50000000E+00
  8.00000000E-01  8.00000000E-01  1.50000000E+00  1.50000000E+00  8.00000000E-01
  8.00000000E-01  1.50000000E+00  1.50000000E+00  8.00000000E-01  8.00000000E-01
  1.50000000E+00  1.50000000E+00  8.00000000E-01  8.00000000E-01  1.50000000E+00
  1.50000000E+00  8.00000000E-01  8.00000000E-01  1.50000000E+00  1.50000000E+00
  8.00000000E-01  8.00000000E-01  1.50000000E+00  1.50000000E+00  8.00000000E-01
  8.00000000E-01  1.50000000E+00  1.50000000E+00  8.00000000E-01  8.00000000E-01
  1.50000000E+00  1.50000000E+00  8.00000000E-01  8.00000000E-01  1.50000000E+00
  1.50000000E+00  8.00000000E-01  8.00000000E-01  1.50000000E+00  1.50000000E+00
  8.00000000E-01  8.00000000E-01  1.50000000E+00  1.50000000E+00  8.00000000E-01
  8.00000000E-01  1.50000000E+00  1.50000000E+00  8.00000000E-01  8.00000000E-01
  1.50000000E+00  1.50000000E+00  8.00000000E-01  8.00000000E-01  1.50000000E+00
  1.50000000E+00  8.00000000E-01  8.00000000E-01  1.50000000E+00  1.50000000E+00
  8.00000000E-01  8.00000000E-01  1.50000000E+00  1.50000000E+00  8.00000000E-01
  8.00000000E-01  1.50000000E+00  1.50000000E+00  8.00000000E-01  8.00000000E-01
  1.50000000E+00  1.50000000E+00  8.00000000E-01  8.00000000E-01  1.50000000E+00
  1.50000000E+00  8.00000000E-01  8.00000000E-01  1.50000000E+00  1.50000000E+00
  8.00000000E-01  8.00000000E-01  1.50000000E+00  1.50000000E+00  8.00000000E-01
  8.00000000E-01  1.50000000E+00  1.50000000E+00  8.00000000E-01  8.00000000E-01
  1.50000000E+00  1.50000000E+00  8.00000000E-01  8.00000000E-01  1.50000000E+00
  1.50000000E+00  8.00000000E-01  8.00000000E-01  1.50000000E+00  1.50000000E+00
  8.00000000E-01  8.00000000E-01  1.50000000E+00  1.50000000E+00  8.00000000E-01
  8.00000000E-01  1.50000000E+00  1.50000000E+00  8.00000000E-01  8.00000000E-01
  1.50000000E+00  1.50000000E+00  8.00000000E-01  8.00000000E-01  1.50000000E+00
  1.50000000E+00  8.00000000E-01  8.00000000E-01  1.50000000E+00  1.50000000E+00
  8.00000000E-01  8.00000000E-01  1.50000000E+00  1.50000000E+00  8.00000000E-01
  8.00000000E-01  1.50000000E+00  1.50000000E+00  8.00000000E-01  8.00000000E-01
  1.50000000E+00  1.50000000E+00  8.00000000E-01  8.00000000E-01  1.50000000E+00
  1.50000000E+00  8.00000000E-01  8.00000000E-01  1.50000000E+00  1.50000000E+00
  8.00000000E-01  8.00000000E-01  1.50000000E+00  1.50000000E+00  8.00000000E-01
  8.00000000E-01  1.50000000E+00  1.50000000E+00  8.00000000E-01  8.00000000E-01
  1.50000000E+00  1.50000000E+00  8.00000000E-01  8.00000000E-01  1.50000000E+00
  1.50000000E+00  8.00000000E-01  8.00000000E-01  1.50000000E+00  1.50000000E+00
  8.00000000E-01  8.00000000E-01  1.50000000E+00  1.50000000E+00  8.00000000E-01
  8.00000000E-01  1.50000000E+00  1.50000000E+00  8.00000000E-01  8.00000000E-01
  1.50000000E+00  1.50000000E+00  8.00000000E-01  8.00000000E-01  1.50000000E+00
  1.50000000E+00  8.00000000E-01  8.00000000E-01  1.50000000E+00  1.50000000E+00
  8.00000000E-01  8.00000000E-01  1.50000000E+00  1.50000000E+00  8.00000000E-01
  8.00000000E-01  1.50000000E+00  1.50000000E+00  8.00000000E-01  8.00000000E-01
  1.50000000E+00  1.50000000E+00  8.00000000E-01  8.00000000E-01  1.50000000E+00
  1.50000000E+00  8.00000000E-01  8.00000000E-01  1.50000000E+00  1.50000000E+00
  8.00000000E-01  8.00000000E-01  1.50000000E+00  1.50000000E+00  8.00000000E-01
  8.00000000E-01  1.50000000E+00  1.50000000E+00  8.00000000E-01  8.00000000E-01
  1.50000000E+00  1.50000000E+00  8.00000000E-01  8.00000000E-01  1.50000000E+00
  1.50000000E+00  8.00000000E-01  8.00000000E-01  1.50000000E+00  1.50000000E+00
  8.00000000E-01  8.00000000E-01  1.50000000E+00  1.50000000E+00  8.00000000E-01
  8.00000000E-01  1.50000000E+00  1.50000000E+00  8.00000000E-01  8.00000000E-01
  1.50000000E+00  1.50000000E+00  8.00000000E-01  8.00000000E-01  1.50000000E+00
  1.50000000E+00  8.00000000E-01  8.00000000E-01  1.50000000E+00  1.50000000E+00
  8.00000000E-01  8.00000000E-01  1.50000000E+00  1.50000000E+00  8.00000000E-01
  8.00000000E-01  1.50000000E+00  1.50000000E+00  8.00000000E-01  8.00000000E-01
  1.50000000E+00  1.50000000E+00  8.00000000E-01  8.00000000E-01  1.50000000E+00
  1.50000000E+00  8.00000000E-01  8.00000000E-01  1.50000000E+00  1.50000000E+00
  8.00000000E-01  8.00000000E-01  1.50000000E+00  1.50000000E+00  8.00000000E-01
  8.00000000E-01  1.50000000E+00  1.50000000E+00  8.00000000E-01  8.00000000E-01
  1.50000000E+00  1.50000000E+00  8.00000000E-01  8.00000000E-01  1.50000000E+00
  1.50000000E+00  8.00000000E-01  8.00000000E-01  1.50000000E+00  1.50000000E+00
  8.00000000E-01  8.00000000E-01  1.50000000E+00  1.50000000E+00  8.00000000E-01
  8.00000000E-01  1.50000000E+00  1.50000000E+00  8.00000000E-01  8.00000000E-01
  1.50000000E+00  1.50000000E+00  8.00000000E-01  8.00000000E-01  1.50000000E+00
  1.50000000E+00  8.00000000E-01  8.00000000E-01  1.50000000E+00  1.50000000E+00
  8.00000000E-01  8.00000000E-01  1.50000000E+00  1.50000000E+00  8.00000000E-01
  8.00000000E-01  1.50000000E+00  1.50000000E+00  8.00000000E-01  8.00000000E-01
  1.50000000E+00  1.50000000E+00  8.00000000E-01  8.00000000E-01  1.50000000E+00
  1.50000000E+00  8.00000000E-01  8.00000000E-01  1.50000000E+00  1.50000000E+00
  8.00000000E-01  8.00000000E-01  1.50000000E+00  1.50000000E+00  8.00000000E-01
  8.00000000E-01  1.50000000E+00  1.50000000E+00  8.00000000E-01  8.00000000E-01
  1.50000000E+00  1.50000000E+00  8.00000000E-01  8.00000000E-01  1.50000000E+00
  1.50000000E+00  8.00000000E-01  8.00000000E-01  1.50000000E+00  1.50000000E+00
  8.00000000E-01  8.00000000E-01  1.50000000E+00  1.50000000E+00  8.00000000E-01
  8.00000000E-01  1.50000000E+00  1.50000000E+00  8.00000000E-01  8.00000000E-01
  1.50000000E+00  1.50000000E+00  8.00000000E-01  8.00000000E-01  1.50000000E+00
  1.50000000E+00  8.00000000E-01  8.00000000E-01  1.50000000E+00  1.50000000E+00
  8.00000000E-01  8.00000000E-01  1.50000000E+00  1.50000000E+00  8.00000000E-01
  8.00000000E-01  1.50000000E+00  1.50000000E+00  8.00000000E-01  8.00000000E-01
  1.50000000E+00  1.50000000E+00  8.00000000E-01  8.00000000E-01  1.50000000E+00
  1.50000000E+00  8.00000000E-01  8.00000000E-01  1.50000000E+00  1.50000000E+00
  8.00000000E-01  8.00000000E-01  1.50000000E+00  1.50000000E+00  8.00000000E-01
  8.00000000E-01  1.50000000E+00  1.50000000E+00  8.00000000E-01  8.00000000E-01
  1.50000000E+00  1.50000000E+00  8.00000000E-01  8.00000000E-01  1.50000000E+00
  1.50000000E+00  8.00000000E-01  8.00000000E-01  1.50000000E+00  1.50000000E+00
  8.00000000E-01  8.00000000E-01  1.50000000E+00  1.50000000E+00  8.00000000E-01
  8.00000000E-01  1.50000000E+00  1.50000000E+00  8.00000000E-01  8.00000000E-01
  1.50000000E+00  1.50000000E+00  8.00000000E-01  8.00000000E-01  1.50000000E+00
  1.50000000E+00  8.00000000E-01  8.00000000E-01  1.50000000E+00  1.50000000E+00
  8.00000000E-01  8.00000000E-01  1.50000000E+00  1.50000000E+00  8.00000000E-01
  8.00000000E-01  1.50000000E+00  1.50000000E+00  8.00000000E-01  8.00000000E-01
  1.50000000E+00  1.50000000E+00  8.00000000E-01  8.00000000E-01  1.50000000E+00
  1.50000000E+00  8.00000000E-01  8.00000000E-01  1.50000000E+00  1.50000000E+00
  8.00000000E-01  8.00000000E-01  1.50000000E+00  1.50000000E+00  8.00000000E-01
  8.00000000E-01  1.50000000E+00  1.50000000E+00  8.00000000E-01  8.00000000E-01
  1.50000000E+00  1.50000000E+00  8.00000000E-01  8.00000000E-01  1.50000000E+00
  1.50000000E+00  8.00000000E-01  8.00000000E-01  1.50000000E+00  1.50000000E+00
  8.00000000E-01  8.00000000E-01  1.50000000E+00  1.50000000E+00  8.00000000E-01
  8.00000000E-01  1.50000000E+00  1.50000000E+00  8.00000000E-01  8.00000000E-01
  1.50000000E+00  1.50000000E+00  8.00000000E-01  8.00000000E-01  1.50000000E+00
  1.50000000E+00  8.00000000E-01  8.00000000E-01  1.50000000E+00  1.50000000E+00
  8.00000000E-01  8.00000000E-01  1.50000000E+00  1.50000000E+00  8.00000000E-01
  8.00000000E-01  1.50000000E+00  1.50000000E+00  8.00000000E-01  8.00000000E-01
  1.50000000E+00  1.50000000E+00  8.00000000E-01  8.00000000E-01  1.50000000E+00
  1.50000000E+00  8.00000000E-01  8.00000000E-01  1.50000000E+00  1.50000000E+00
  8.00000000E-01  8.00000000E-01  1.50000000E+00  1.50000000E+00  8.00000000E-01
  8.00000000E-01  1.50000000E+00  1.50000000E+00  8.00000000E-01  8.00000000E-01
  1.50000000E+00  1.50000000E+00  8.00000000E-01  8.00000000E-01  1.50000000E+00
  1.50000000E+00  8.00000000E-01  8.00000000E-01  1.50000000E+00  1.50000000E+00
  8.00000000E-01  8.00000000E-01  1.50000000E+00  1.50000000E+00  8.00000000E-01
  8.00000000E-01  1.50000000E+00  1.50000000E+00  8.00000000E-01  8.00000000E-01
  1.50000000E+00  1.50000000E+00  8.00000000E-01  8.00000000E-01  1.50000000E+00
  1.50000000E+00  8.00000000E-01  8.00000000E-01  1.50000000E+00  1.50000000E+00
  8.00000000E-01  8.00000000E-01  1.50000000E+00  1.50000000E+00  8.00000000E-01
  8.00000000E-01  1.50000000E+00  1.50000000E+00  8.00000000E-01  8.00000000E-01
  1.50000000E+00  1.50000000E+00  8.00000000E-01  8.00000000E-01  1.50000000E+00
  1.50000000E+00  8.00000000E-01  8.00000000E-01  1.50000000E+00  1.50000000E+00
  8.00000000E-01  8.00000000E-01  1.50000000E+00  1.50000000E+00  8.00000000E-01
  8.00000000E-01  1.50000000E+00  1.50000000E+00  8.00000000E-01  8.00000000E-01
  1.50000000E+00  1.50000000E+00  8.00000000E-01  8.00000000E-01  1.50000000E+00
  1.50000000E+00  8.00000000E-01  8.00000000E-01  1.50000000E+00  1.50000000E+00
  8.00000000E-01  8.00000000E-01  1.50000000E+00  1.50000000E+00  8.00000000E-01
  8.00000000E-01  1.50000000E+00  1.50000000E+00  8.00000000E-01  8.00000000E-01
  1.50000000E+00  1.50000000E+00  8.00000000E-01  8.00000000E-01  1.50000000E+00
  1.50000000E+00  8.00000000E-01  8.00000000E-01  1.50000000E+00  1.50000000E+00
  8.00000000E-01  8.00000000E-01  1.50000000E+00  1.50000000E+00  8.00000000E-01
  8.00000000E-01  1.50000000E+00  1.50000000E+00  8.00000000E-01  8.00000000E-01
  1.50000000E+00  1.50000000E+00  8.00000000E-01  8.00000000E-01  1.50000000E+00
  1.50000000E+00  8.00000000E-01  8.00000000E-01  1.50000000E+00  1.50000000E+00
  8.00000000E-01  8.00000000E-01  1.50000000E+00  1.50000000E+00  8.00000000E-01
  8.00000000E-01  1.50000000E+00  1.50000000E+00  8.00000000E-01  8.00000000E-01
  1.50000000E+00  1.50000000E+00  8.00000000E-01  8.00000000E-01  1.50000000E+00
  1.50000000E+00  8.00000000E-01  8.00000000E-01  1.50000000E+00  1.50000000E+00
  8.00000000E-01  8.00000000E-01  1.50000000E+00  1.50000000E+00  8.00000000E-01
  8.00000000E-01  1.50000000E+00  1.50000000E+00  8.00000000E-01  8.00000000E-01
  1.50000000E+00  1.50000000E+00  8.00000000E-01  8.00000000E-01  1.50000000E+00
  1.50000000E+00  8.00000000E-01  8.00000000E-01  1.50000000E+00  1.50000000E+00
  8.00000000E-01  8.00000000E-01  1.50000000E+00  1.50000000E+00  8.00000000E-01
  8.00000000E-01  1.50000000E+00  1.50000000E+00  8.00000000E-01  8.00000000E-01
  1.50000000E+00  1.50000000E+00  8.00000000E-01  8.00000000E-01  1.50000000E+00
  1.50000000E+00  8.00000000E-01  8.00000000E-01  1.50000000E+00  1.50000000E+00
  8.00000000E-01  8.00000000E-01  1.50000000E+00  1.50000000E+00  8.00000000E-01
  8.00000000E-01  1.50000000E+00  1.50000000E+00  8.00000000E-01  8.00000000E-01
  1.50000000E+00  1.50000000E+00  8.00000000E-01  8.00000000E-01  1.50000000E+00
  1.50000000E+00  8.00000000E-01  8.00000000E-01  1.50000000E+00  1.50000000E+00
  8.00000000E-01  8.00000000E-01  1.50000000E+00  1.50000000E+00  8.00000000E-01
  8.00000000E-01  1.50000000E+00  1.50000000E+00  8.00000000E-01  8.00000000E-01
  1.50000000E+00  1.50000000E+00  8.00000000E-01  8.00000000E-01  1.50000000E+00
  1.50000000E+00  8.00000000E-01  8.00000000E-01  1.50000000E+00  1.50000000E+00
  8.00000000E-01  8.00000000E-01  1.50000000E+00  1.50000000E+00  8.00000000E-01
  8.00000000E-01  1.50000000E+00  1.50000000E+00  8.00000000E-01  8.00000000E-01
  1.50000000E+00  1.50000000E+00  8.00000000E-01  8.00000000E-01  1.50000000E+00
  1.50000000E+00  8.00000000E-01  8.00000000E-01  1.50000000E+00  1.50000000E+00
  8.00000000E-01  8.00000000E-01  1.50000000E+00  1.50000000E+00  8.00000000E-01
  8.00000000E-01  1.50000000E+00  1.50000000E+00  8.00000000E-01  8.00000000E-01
  1.50000000E+00  1.50000000E+00  8.00000000E-01  8.00000000E-01  1.50000000E+00
  1.50000000E+00  8.00000000E-01  8.00000000E-01  1.50000000E+00  1.50000000E+00
  8.00000000E-01  8.00000000E-01  1.50000000E+00  1.50000000E+00  8.00000000E-01
  8.00000000E-01  1.50000000E+00  1.50000000E+00  8.00000000E-01  8.00000000E-01
  1.50000000E+00  1.50000000E+00  8.00000000E-01  8.00000000E-01  1.50000000E+00
  1.50000000E+00  8.00000000E-01  8.00000000E-01  1.50000000E+00  1.50000000E+00
  8.00000000E-01  8.00000000E-01  1.50000000E+00  1.50000000E+00  8.00000000E-01
  8.00000000E-01  1.50000000E+00  1.50000000E+00  8.00000000E-01  8.00000000E-01
  1.50000000E+00  1.50000000E+00  8.00000000E-01  8.00000000E-01  1.50000000E+00
  1.50000000E+00  8.00000000E-01  8.00000000E-01  1.50000000E+00  1.50000000E+00
  8.00000000E-01  8.00000000E-01  1.50000000E+00  1.50000000E+00  8.00000000E-01
  8.00000000E-01  1.50000000E+00  1.50000000E+00  8.00000000E-01  8.00000000E-01
  1.50000000E+00  1.50000000E+00  8.00000000E-01  8.00000000E-01  1.50000000E+00
  1.50000000E+00  8.00000000E-01  8.00000000E-01  1.50000000E+00  1.50000000E+00
  8.00000000E-01  8.00000000E-01  1.50000000E+00  1.50000000E+00  8.00000000E-01
  8.00000000E-01  1.50000000E+00  1.50000000E+00  8.00000000E-01  8.00000000E-01
  1.50000000E+00  1.50000000E+00  8.00000000E-01  8.00000000E-01  1.50000000E+00
  1.50000000E+00  8.00000000E-01  8.00000000E-01  1.50000000E+00  1.50000000E+00
  8.00000000E-01  8.00000000E-01  1.50000000E+00  1.50000000E+00  8.00000000E-01
  8.00000000E-01  1.50000000E+00  1.50000000E+00  8.00000000E-01  8.00000000E-01
  1.50000000E+00  1.50000000E+00  8.00000000E-01  8.00000000E-01  1.50000000E+00
  1.50000000E+00  8.00000000E-01  8.00000000E-01  1.50000000E+00  1.50000000E+00
  8.00000000E-01  8.00000000E-01  1.50000000E+00  1.50000000E+00  8.00000000E-01
  8.00000000E-01  1.50000000E+00  1.50000000E+00  8.00000000E-01  8.00000000E-01
  1.50000000E+00  1.50000000E+00  8.00000000E-01  8.00000000E-01  1.50000000E+00
  1.50000000E+00  8.00000000E-01  8.00000000E-01  1.50000000E+00  1.50000000E+00
  8.00000000E-01  8.00000000E-01  1.50000000E+00  1.50000000E+00  8.00000000E-01
  8.00000000E-01  1.50000000E+00  1.50000000E+00  8.00000000E-01  8.00000000E-01
  1.50000000E+00  1.50000000E+00  8.00000000E-01  8.00000000E-01  1.50000000E+00
  1.50000000E+00  8.00000000E-01  8.00000000E-01  1.50000000E+00  1.50000000E+00
  8.00000000E-01  8.00000000E-01  1.50000000E+00  1.50000000E+00  8.00000000E-01
  8.00000000E-01  1.50000000E+00  1.50000000E+00  8.00000000E-01  8.00000000E-01
  1.50000000E+00  1.50000000E+00  8.00000000E-01  8.00000000E-01  1.50000000E+00
  1.50000000E+00  8.00000000E-01  8.00000000E-01  1.50000000E+00  1.50000000E+00
  8.00000000E-01  8.00000000E-01  1.50000000E+00  1.50000000E+00  8.00000000E-01
  8.00000000E-01  1.50000000E+00  1.50000000E+00  8.00000000E-01  8.00000000E-01
  1.50000000E+00  1.50000000E+00  8.00000000E-01  8.00000000E-01  1.50000000E+00
  1.50000000E+00  8.00000000E-01  8.00000000E-01  1.50000000E+00  1.50000000E+00
  8.00000000E-01  8.00000000E-01  1.50000000E+00  1.50000000E+00  8.00000000E-01
  8.00000000E-01  1.50000000E+00  1.50000000E+00  8.00000000E-01  8.00000000E-01
  1.50000000E+00  1.50000000E+00  8.00000000E-01  8.00000000E-01  1.50000000E+00
  1.50000000E+00  8.00000000E-01  8.00000000E-01  1.50000000E+00  1.50000000E+00
  8.00000000E-01  8.00000000E-01  1.50000000E+00  1.50000000E+00  8.00000000E-01
  8.00000000E-01  1.50000000E+00  1.50000000E+00  8.00000000E-01  8.00000000E-01
  1.50000000E+00  1.50000000E+00  8.00000000E-01  8.00000000E-01  1.50000000E+00
  1.50000000E+00  8.00000000E-01  8.00000000E-01  1.50000000E+00  1.50000000E+00
  8.00000000E-01  8.00000000E-01  1.50000000E+00  1.50000000E+00  8.00000000E-01
  8.00000000E-01  1.50000000E+00  1.50000000E+00  8.00000000E-01  8.00000000E-01
  1.50000000E+00  1.50000000E+00  8.00000000E-01  8.00000000E-01  1.50000000E+00
  1.50000000E+00  8.00000000E-01  8.00000000E-01  1.50000000E+00  1.50000000E+00
  8.00000000E-01  8.00000000E-01  1.50000000E+00  1.50000000E+00  8.00000000E-01
  8.00000000E-01  1.50000000E+00  1.50000000E+00  8.00000000E-01  8.00000000E-01
  1.50000000E+00  1.50000000E+00  8.00000000E-01  8.00000000E-01  1.50000000E+00
  1.50000000E+00  8.00000000E-01  8.00000000E-01  1.50000000E+00  1.50000000E+00
  8.00000000E-01  8.00000000E-01  1.50000000E+00  1.50000000E+00  8.00000000E-01
  8.00000000E-01  1.50000000E+00  1.50000000E+00  8.00000000E-01  8.00000000E-01
  1.50000000E+00  1.50000000E+00  8.00000000E-01  8.00000000E-01  1.50000000E+00
  1.50000000E+00  8.00000000E-01  8.00000000E-01  1.50000000E+00  1.50000000E+00
  8.00000000E-01  8.00000000E-01  1.50000000E+00  1.50000000E+00  8.00000000E-01
  8.00000000E-01  1.50000000E+00  1.50000000E+00  8.00000000E-01  8.00000000E-01
  1.50000000E+00  1.50000000E+00  8.00000000E-01  8.00000000E-01  1.50000000E+00
  1.50000000E+00  8.00000000E-01  8.00000000E-01  1.50000000E+00  1.50000000E+00
  8.00000000E-01  8.00000000E-01  1.50000000E+00  1.50000000E+00  8.00000000E-01
  8.00000000E-01  1.50000000E+00  1.50000000E+00  8.00000000E-01  8.00000000E-01
  1.50000000E+00  1.50000000E+00  8.00000000E-01  8.00000000E-01  1.50000000E+00
  1.50000000E+00  8.00000000E-01  8.00000000E-01  1.50000000E+00  1.50000000E+00
  8.00000000E-01  8.00000000E-01  1.50000000E+00  1.50000000E+00  8.00000000E-01
  8.00000000E-01  1.50000000E+00  1.50000000E+00  8.00000000E-01  8.00000000E-01
  1.50000000E+00  1.50000000E+00  8.00000000E-01  8.00000000E-01  1.50000000E+00
  1.50000000E+00  8.00000000E-01  8.00000000E-01  1.50000000E+00  1.50000000E+00
  8.00000000E-01  8.00000000E-01  1.50000000E+00  1.50000000E+00  8.00000000E-01
  8.00000000E-01  1.50000000E+00  1.50000000E+00  8.00000000E-01  8.00000000E-01
  1.50000000E+00  1.50000000E+00  8.00000000E-01  8.00000000E-01  1.50000000E+00
  1.50000000E+00  8.00000000E-01  8.00000000E-01  1.50000000E+00  1.50000000E+00
  8.00000000E-01  8.00000000E-01  1.50000000E+00  1.50000000E+00  8.00000000E-01
  8.00000000E-01  1.50000000E+00  1.50000000E+00  8.00000000E-01  8.00000000E-01
  1.50000000E+00  1.50000000E+00  8.00000000E-01  8.00000000E-01  1.50000000E+00
  1.50000000E+00  8.00000000E-01  8.00000000E-01  1.50000000E+00  1.50000000E+00
  8.00000000E-01  8.00000000E-01  1.50000000E+00  1.50000000E+00  8.00000000E-01
  8.00000000E-01  1.50000000E+00  1.50000000E+00  8.00000000E-01  8.00000000E-01
  1.50000000E+00  1.50000000E+00  8.00000000E-01  8.00000000E-01  1.50000000E+00
  1.50000000E+00  8.00000000E-01  8.00000000E-01  1.50000000E+00  1.50000000E+00
  8.00000000E-01  8.00000000E-01  1.50000000E+00  1.50000000E+00  8.00000000E-01
  8.00000000E-01  1.50000000E+00  1.50000000E+00  8.00000000E-01  8.00000000E-01
  1.50000000E+00  1.50000000E+00  8.00000000E-01  8.00000000E-01  1.50000000E+00
  1.50000000E+00  8.00000000E-01  8.00000000E-01  1.50000000E+00  1.50000000E+00
  8.00000000E-01  8.00000000E-01  1.50000000E+00  1.50000000E+00  8.00000000E-01
  8.00000000E-01  1.50000000E+00  1.50000000E+00  8.00000000E-01  8.00000000E-01
  1.50000000E+00  1.50000000E+00  8.00000000E-01  8.00000000E-01  1.50000000E+00
  1.50000000E+00  8.00000000E-01  8.00000000E-01  1.50000000E+00  1.50000000E+00
  8.00000000E-01  8.00000000E-01  1.50000000E+00  1.50000000E+00  8.00000000E-01
  8.00000000E-01  1.50000000E+00  1.50000000E+00  8.00000000E-01  8.00000000E-01
  1.50000000E+00  1.50000000E+00  8.00000000E-01  8.00000000E-01  1.50000000E+00
  1.50000000E+00  8.00000000E-01  8.00000000E-01  1.50000000E+00  1.50000000E+00
  8.00000000E-01  8.00000000E-01  1.50000000E+00  1.50000000E+00  8.00000000E-01
  8.00000000E-01  1.50000000E+00  1.50000000E+00  8.00000000E-01  8.00000000E-01
  1.50000000E+00  1.50000000E+00  8.00000000E-01  8.00000000E-01  1.50000000E+00
  1.50000000E+00  8.00000000E-01  8.00000000E-01  1.50000000E+00  1.50000000E+00
  8.00000000E-01  8.00000000E-01  1.50000000E+00  1.50000000E+00  8.00000000E-01
  8.00000000E-01  1.50000000E+00  1.50000000E+00  8.00000000E-01  8.00000000E-01
  1.50000000E+00  1.50000000E+00  8.00000000E-01  8.00000000E-01  1.50000000E+00
  1.50000000E+00  8.00000000E-01  8.00000000E-01  1.50000000E+00  1.50000000E+00
  8.00000000E-01  8.00000000E-01  1.50000000E+00  1.50000000E+00  8.00000000E-01
  8.00000000E-01  1.50000000E+00  1.50000000E+00  8.00000000E-01  8.00000000E-01
  1.50000000E+00  1.50000000E+00  8.00000000E-01  8.00000000E-01  1.50000000E+00
  1.50000000E+00  8.00000000E-01  8.00000000E-01  1.50000000E+00  1.50000000E+00
  8.00000000E-01  8.00000000E-01  1.50000000E+00  1.50000000E+00  8.00000000E-01
  8.00000000E-01  1.50000000E+00  1.50000000E+00  8.00000000E-01  8.00000000E-01
  1.50000000E+00  1.50000000E+00  8.00000000E-01  8.00000000E-01  1.50000000E+00
  1.50000000E+00  8.00000000E-01  8.00000000E-01  1.50000000E+00  1.50000000E+00
  8.00000000E-01  8.00000000E-01  1.50000000E+00  1.50000000E+00  8.00000000E-01
  8.00000000E-01  1.50000000E+00  1.50000000E+00  8.00000000E-01  8.00000000E-01
  1.50000000E+00  1.50000000E+00  8.00000000E-01  8.00000000E-01  1.50000000E+00
  1.50000000E+00  8.00000000E-01  8.00000000E-01  1.50000000E+00  1.50000000E+00
  8.00000000E-01  8.00000000E-01  1.50000000E+00  1.50000000E+00  8.00000000E-01
  8.00000000E-01  1.50000000E+00  1.50000000E+00  8.00000000E-01  8.00000000E-01
  1.50000000E+00  1.50000000E+00  8.00000000E-01  8.00000000E-01  1.50000000E+00
  1.50000000E+00  8.00000000E-01  8.00000000E-01  1.50000000E+00  1.50000000E+00
  8.00000000E-01  8.00000000E-01  1.50000000E+00  1.50000000E+00  8.00000000E-01
  8.00000000E-01  1.50000000E+00  1.50000000E+00  8.00000000E-01  8.00000000E-01
  1.50000000E+00  1.50000000E+00  8.00000000E-01  8.00000000E-01  1.50000000E+00
  1.50000000E+00  8.00000000E-01  8.00000000E-01  1.50000000E+00  1.50000000E+00
  8.00000000E-01  8.00000000E-01  1.50000000E+00  1.50000000E+00  8.00000000E-01
  8.00000000E-01  1.50000000E+00  1.50000000E+00  8.00000000E-01  8.00000000E-01
  1.50000000E+00  1.50000000E+00  8.00000000E-01  8.00000000E-01  1.50000000E+00
  1.50000000E+00  8.00000000E-01  8.00000000E-01  1.50000000E+00  1.50000000E+00
  8.00000000E-01  8.00000000E-01  1.50000000E+00  1.50000000E+00  8.00000000E-01
  8.00000000E-01  1.50000000E+00  1.50000000E+00  8.00000000E-01  8.00000000E-01
  1.50000000E+00  1.50000000E+00  8.00000000E-01  8.00000000E-01  1.50000000E+00
  1.50000000E+00  8.00000000E-01  8.00000000E-01  1.50000000E+00  1.50000000E+00
  8.00000000E-01  8.00000000E-01  1.50000000E+00  1.50000000E+00  8.00000000E-01
  8.00000000E-01  1.50000000E+00  1.50000000E+00  8.00000000E-01  8.00000000E-01
  1.50000000E+00  1.50000000E+00  8.00000000E-01  8.00000000E-01  1.50000000E+00
  1.50000000E+00  8.00000000E-01  8.00000000E-01  1.50000000E+00  1.50000000E+00
  8.00000000E-01  8.00000000E-01  1.50000000E+00  1.50000000E+00  8.00000000E-01
  8.00000000E-01  1.50000000E+00  1.50000000E+00  8.00000000E-01  8.00000000E-01
  1.50000000E+00  1.50000000E+00  8.00000000E-01  8.00000000E-01  1.50000000E+00
  1.50000000E+00  8.00000000E-01  8.00000000E-01  1.50000000E+00  1.50000000E+00
  8.00000000E-01  8.00000000E-01  1.50000000E+00  1.50000000E+00  8.00000000E-01
  8.00000000E-01  1.50000000E+00  1.50000000E+00  8.00000000E-01  8.00000000E-01
  1.50000000E+00  1.50000000E+00  8.00000000E-01  8.00000000E-01  1.50000000E+00
  1.50000000E+00  8.00000000E-01  8.00000000E-01  1.50000000E+00  1.50000000E+00
  8.00000000E-01  8.00000000E-01  1.50000000E+00  1.50000000E+00  8.00000000E-01
  8.00000000E-01  1.50000000E+00  1.50000000E+00  8.00000000E-01  8.00000000E-01
  1.50000000E+00  1.50000000E+00  8.00000000E-01  8.00000000E-01  1.50000000E+00
  1.50000000E+00  8.00000000E-01  8.00000000E-01  1.50000000E+00  1.50000000E+00
  8.00000000E-01  8.00000000E-01  1.50000000E+00  1.50000000E+00  8.00000000E-01
  8.00000000E-01  1.50000000E+00  1.50000000E+00  8.00000000E-01  8.00000000E-01
  1.50000000E+00  1.50000000E+00  8.00000000E-01  8.00000000E-01  1.50000000E+00
  1.50000000E+00  8.00000000E-01  8.00000000E-01  1.50000000E+00  1.50000000E+00
  8.00000000E-01  8.00000000E-01  1.50000000E+00  1.50000000E+00  8.00000000E-01
  8.00000000E-01  1.50000000E+00  1.50000000E+00  8.00000000E-01  8.00000000E-01
  1.50000000E+00  1.50000000E+00  8.00000000E-01  8.00000000E-01  1.50000000E+00
  1.50000000E+00  8.00000000E-01  8.00000000E-01  1.50000000E+00  1.50000000E+00
  8.00000000E-01  8.00000000E-01  1.50000000E+00  1.50000000E+00  8.00000000E-01
  8.00000000E-01  1.50000000E+00  1.50000000E+00  8.00000000E-01  8.00000000E-01
  1.50000000E+00  1.50000000E+00  8.00000000E-01  8.00000000E-01  1.50000000E+00
  1.50000000E+00  8.00000000E-01  8.00000000E-01  1.50000000E+00  1.50000000E+00
  8.00000000E-01  8.00000000E-01  1.50000000E+00  1.50000000E+00  8.00000000E-01
  8.00000000E-01  1.50000000E+00  1.50000000E+00  8.00000000E-01  8.00000000E-01
  1.50000000E+00  1.50000000E+00  8.00000000E-01  8.00000000E-01  1.50000000E+00
  1.50000000E+00  8.00000000E-01  8.00000000E-01  1.50000000E+00  1.50000000E+00
  8.00000000E-01  8.00000000E-01  1.50000000E+00  1.50000000E+00  8.00000000E-01
  8.00000000E-01  1.50000000E+00  1.50000000E+00  8.00000000E-01  8.00000000E-01
  1.50000000E+00  1.50000000E+00  8.00000000E-01  8.00000000E-01  1.50000000E+00
  1.50000000E+00  8.00000000E-01  8.00000000E-01  1.50000000E+00  1.50000000E+00
  8.00000000E-01  8.00000000E-01  1.50000000E+00  1.50000000E+00  8.00000000E-01
  8.00000000E-01  1.50000000E+00  1.50000000E+00  8.00000000E-01  8.00000000E-01
  1.50000000E+00  1.50000000E+00  8.00000000E-01  8.00000000E-01  1.50000000E+00
  1.50000000E+00  8.00000000E-01  8.00000000E-01  1.50000000E+00  1.50000000E+00
  8.00000000E-01  8.00000000E-01  1.50000000E+00  1.50000000E+00  8.00000000E-01
  8.00000000E-01  1.50000000E+00  1.50000000E+00  8.00000000E-01  8.00000000E-01
  1.50000000E+00  1.50000000E+00  8.00000000E-01  8.00000000E-01  1.50000000E+00
  1.50000000E+00  8.00000000E-01  8.00000000E-01  1.50000000E+00  1.50000000E+00
  8.00000000E-01  8.00000000E-01  1.50000000E+00  1.50000000E+00  8.00000000E-01
  8.00000000E-01  1.50000000E+00  1.50000000E+00  8.00000000E-01  8.00000000E-01
  1.50000000E+00  1.50000000E+00  8.00000000E-01  8.00000000E-01  1.50000000E+00
  1.50000000E+00  8.00000000E-01  8.00000000E-01  1.50000000E+00  1.50000000E+00
  8.00000000E-01  8.00000000E-01  1.50000000E+00  1.50000000E+00  8.00000000E-01
  8.00000000E-01  1.50000000E+00  1.50000000E+00  8.00000000E-01  8.00000000E-01
  1.50000000E+00  1.50000000E+00  8.00000000E-01  8.00000000E-01  1.50000000E+00
  1.50000000E+00  8.00000000E-01  8.00000000E-01  1.50000000E+00  1.50000000E+00
  8.00000000E-01  8.00000000E-01  1.50000000E+00  1.50000000E+00  8.00000000E-01
  8.00000000E-01  1.50000000E+00  1.50000000E+00  8.00000000E-01  8.00000000E-01
  1.50000000E+00  1.50000000E+00  8.00000000E-01  8.00000000E-01  1.50000000E+00
  1.50000000E+00  8.00000000E-01  8.00000000E-01  1.50000000E+00  1.50000000E+00
  8.00000000E-01  8.00000000E-01  1.50000000E+00  1.50000000E+00  8.00000000E-01
  8.00000000E-01  1.50000000E+00  1.50000000E+00  8.00000000E-01  8.00000000E-01
  1.50000000E+00  1.50000000E+00  8.00000000E-01  8.00000000E-01  1.50000000E+00
  1.50000000E+00  8.00000000E-01  8.00000000E-01  1.50000000E+00  1.50000000E+00
  8.00000000E-01  8.00000000E-01  1.50000000E+00  1.50000000E+00  8.00000000E-01
  8.00000000E-01  1.50000000E+00  1.50000000E+00  8.00000000E-01  8.00000000E-01
  1.50000000E+00  1.50000000E+00  8.00000000E-01  8.00000000E-01  1.50000000E+00
  1.50000000E+00  8.00000000E-01  8.00000000E-01  1.50000000E+00  1.50000000E+00
  8.00000000E-01  8.00000000E-01  1.50000000E+00  1.50000000E+00  8.00000000E-01
  8.00000000E-01  1.50000000E+00  1.50000000E+00  8.00000000E-01  8.00000000E-01
  1.50000000E+00  1.50000000E+00  8.00000000E-01  8.00000000E-01  1.50000000E+00
  1.50000000E+00  8.00000000E-01  8.00000000E-01  1.50000000E+00  1.50000000E+00
  8.00000000E-01  8.00000000E-01  1.50000000E+00  1.50000000E+00  8.00000000E-01
  8.00000000E-01  1.50000000E+00  1.50000000E+00  8.00000000E-01  8.00000000E-01
  1.50000000E+00  1.50000000E+00  8.00000000E-01  8.00000000E-01  1.50000000E+00
  1.50000000E+00  8.00000000E-01  8.00000000E-01  1.50000000E+00  1.50000000E+00
  8.00000000E-01  8.00000000E-01  1.50000000E+00  1.50000000E+00  8.00000000E-01
  8.00000000E-01  1.50000000E+00  1.50000000E+00  8.00000000E-01  8.00000000E-01
  1.50000000E+00  1.50000000E+00  8.00000000E-01  8.00000000E-01  1.50000000E+00
  1.50000000E+00  8.00000000E-01  8.00000000E-01  1.50000000E+00  1.50000000E+00
  8.00000000E-01  8.00000000E-01  1.50000000E+00  1.50000000E+00  8.00000000E-01
  8.00000000E-01  1.50000000E+00  1.50000000E+00  8.00000000E-01  8.00000000E-01
  1.50000000E+00  1.50000000E+00  8.00000000E-01  8.00000000E-01  1.50000000E+00
  1.50000000E+00  8.00000000E-01  8.00000000E-01  1.50000000E+00  1.50000000E+00
  8.00000000E-01  8.00000000E-01  1.50000000E+00  1.50000000E+00  8.00000000E-01
  8.00000000E-01  1.50000000E+00  1.50000000E+00  8.00000000E-01  8.00000000E-01
  1.50000000E+00  1.50000000E+00  8.00000000E-01  8.00000000E-01  1.50000000E+00
  1.50000000E+00  8.00000000E-01  8.00000000E-01  1.50000000E+00  1.50000000E+00
  8.00000000E-01  8.00000000E-01  1.50000000E+00  1.50000000E+00  8.00000000E-01
  8.00000000E-01  1.50000000E+00  1.50000000E+00  8.00000000E-01  8.00000000E-01
  1.50000000E+00  1.50000000E+00  8.00000000E-01  8.00000000E-01  1.50000000E+00
  1.50000000E+00  8.00000000E-01  8.00000000E-01  1.50000000E+00  1.50000000E+00
  8.00000000E-01  8.00000000E-01  1.50000000E+00  1.50000000E+00  8.00000000E-01
  8.00000000E-01  1.50000000E+00  1.50000000E+00  8.00000000E-01  8.00000000E-01
  1.50000000E+00  1.50000000E+00  8.00000000E-01  8.00000000E-01  1.50000000E+00
  1.50000000E+00  8.00000000E-01  8.00000000E-01  1.50000000E+00  1.50000000E+00
  8.00000000E-01  8.00000000E-01  1.50000000E+00  1.50000000E+00  8.00000000E-01
  8.00000000E-01  1.50000000E+00  1.50000000E+00  8.00000000E-01  8.00000000E-01
  1.50000000E+00  1.50000000E+00  8.00000000E-01  8.00000000E-01  1.50000000E+00
  1.50000000E+00  8.00000000E-01  8.00000000E-01  1.50000000E+00  1.50000000E+00
  8.00000000E-01  8.00000000E-01  1.50000000E+00  1.50000000E+00  8.00000000E-01
  8.00000000E-01  1.50000000E+00  1.50000000E+00  8.00000000E-01  8.00000000E-01
  1.50000000E+00  1.50000000E+00  8.00000000E-01  8.00000000E-01  1.50000000E+00
  1.50000000E+00  8.00000000E-01  8.00000000E-01  1.50000000E+00  1.50000000E+00
  8.00000000E-01  8.00000000E-01  1.50000000E+00  1.50000000E+00  8.00000000E-01
  8.00000000E-01  1.50000000E+00  1.50000000E+00  8.00000000E-01  8.00000000E-01
  1.50000000E+00  1.50000000E+00  8.00000000E-01  8.00000000E-01  1.50000000E+00
  1.50000000E+00  8.00000000E-01  8.00000000E-01  1.50000000E+00  1.50000000E+00
  8.00000000E-01  8.00000000E-01  1.50000000E+00  1.50000000E+00  8.00000000E-01
  8.00000000E-01  1.50000000E+00  1.50000000E+00  8.00000000E-01  8.00000000E-01
  1.50000000E+00  1.50000000E+00  8.00000000E-01  8.00000000E-01  1.50000000E+00
  1.50000000E+00  8.00000000E-01  8.00000000E-01  1.50000000E+00  1.50000000E+00
  8.00000000E-01  8.00000000E-01  1.50000000E+00  1.50000000E+00  8.00000000E-01
  8.00000000E-01  1.50000000E+00  1.50000000E+00  8.00000000E-01  8.00000000E-01
  1.50000000E+00  1.50000000E+00  8.00000000E-01  8.00000000E-01  1.50000000E+00
  1.50000000E+00  8.00000000E-01  8.00000000E-01  1.50000000E+00  1.50000000E+00
  8.00000000E-01  8.00000000E-01  1.50000000E+00  1.50000000E+00  8.00000000E-01
  8.00000000E-01  1.50000000E+00  1.50000000E+00  8.00000000E-01  8.00000000E-01
  1.50000000E+00  1.50000000E+00  8.00000000E-01  8.00000000E-01  1.50000000E+00
  1.50000000E+00  8.00000000E-01  8.00000000E-01  1.50000000E+00  1.50000000E+00
  8.00000000E-01  8.00000000E-01  1.50000000E+00  1.50000000E+00  8.00000000E-01
  8.00000000E-01  1.50000000E+00  1.50000000E+00  8.00000000E-01  8.00000000E-01
  1.50000000E+00  1.50000000E+00  8.00000000E-01  8.00000000E-01  1.50000000E+00
  1.50000000E+00  8.00000000E-01  8.00000000E-01  1.50000000E+00  1.50000000E+00
  8.00000000E-01  8.00000000E-01  1.50000000E+00  1.50000000E+00  8.00000000E-01
  8.00000000E-01  1.50000000E+00  1.50000000E+00  8.00000000E-01  8.00000000E-01
  1.50000000E+00  1.50000000E+00  8.00000000E-01  8.00000000E-01  1.50000000E+00
  1.50000000E+00  8.00000000E-01  8.00000000E-01  1.50000000E+00  1.50000000E+00
  8.00000000E-01  8.00000000E-01  1.50000000E+00  1.50000000E+00  8.00000000E-01
  8.00000000E-01  1.50000000E+00  1.50000000E+00  8.00000000E-01  8.00000000E-01
  1.50000000E+00  1.50000000E+00  8.00000000E-01  8.00000000E-01  1.50000000E+00
  1.50000000E+00  8.00000000E-01  8.00000000E-01  1.50000000E+00  1.50000000E+00
  8.00000000E-01  8.00000000E-01  1.50000000E+00  1.50000000E+00  8.00000000E-01
  8.00000000E-01  1.50000000E+00  1.50000000E+00  8.00000000E-01  8.00000000E-01
  1.50000000E+00  1.50000000E+00  8.00000000E-01  8.00000000E-01  1.50000000E+00
  1.50000000E+00  8.00000000E-01  8.00000000E-01  1.50000000E+00  1.50000000E+00
  8.00000000E-01  8.00000000E-01  1.50000000E+00  1.50000000E+00  8.00000000E-01
  8.00000000E-01  1.50000000E+00  1.50000000E+00  8.00000000E-01  8.00000000E-01
  1.50000000E+00  1.50000000E+00  8.00000000E-01  8.00000000E-01  1.50000000E+00
  1.50000000E+00  8.00000000E-01  8.00000000E-01  1.50000000E+00  1.50000000E+00
  8.00000000E-01  8.00000000E-01  1.50000000E+00  1.50000000E+00  8.00000000E-01
  8.00000000E-01  1.50000000E+00  1.50000000E+00  8.00000000E-01  8.00000000E-01
  1.50000000E+00  1.50000000E+00  8.00000000E-01  8.00000000E-01  1.50000000E+00
  1.50000000E+00  8.00000000E-01  8.00000000E-01  1.50000000E+00  1.50000000E+00
  8.00000000E-01  8.00000000E-01  1.50000000E+00  1.50000000E+00  8.00000000E-01
  8.00000000E-01  1.50000000E+00  1.50000000E+00  8.00000000E-01  8.00000000E-01
  1.50000000E+00  1.50000000E+00  8.00000000E-01  8.00000000E-01  1.50000000E+00
  1.50000000E+00  8.00000000E-01  8.00000000E-01  1.50000000E+00  1.50000000E+00
  8.00000000E-01  8.00000000E-01  1.50000000E+00  1.50000000E+00  8.00000000E-01
  8.00000000E-01  1.50000000E+00  1.50000000E+00  8.00000000E-01  8.00000000E-01
  1.50000000E+00  1.50000000E+00  8.00000000E-01  8.00000000E-01  1.50000000E+00
  1.50000000E+00  8.00000000E-01  8.00000000E-01  1.50000000E+00  1.50000000E+00
  8.00000000E-01  8.00000000E-01  1.50000000E+00  1.50000000E+00  8.00000000E-01
  8.00000000E-01  1.50000000E+00  1.50000000E+00  8.00000000E-01  8.00000000E-01
  1.50000000E+00  1.50000000E+00  8.00000000E-01  8.00000000E-01  1.50000000E+00
  1.50000000E+00  8.00000000E-01  8.00000000E-01  1.50000000E+00  1.50000000E+00
  8.00000000E-01  8.00000000E-01  1.50000000E+00  1.50000000E+00  8.00000000E-01
  8.00000000E-01  1.50000000E+00  1.50000000E+00  8.00000000E-01  8.00000000E-01
  1.50000000E+00  1.50000000E+00  8.00000000E-01  8.00000000E-01  1.50000000E+00
  1.50000000E+00  8.00000000E-01  8.00000000E-01  1.50000000E+00  1.50000000E+00
  8.00000000E-01  8.00000000E-01  1.50000000E+00  1.50000000E+00  8.00000000E-01
  8.00000000E-01  1.50000000E+00  1.50000000E+00  8.00000000E-01  8.00000000E-01
  1.50000000E+00  1.50000000E+00  8.00000000E-01  8.00000000E-01  1.50000000E+00
  1.50000000E+00  8.00000000E-01  8.00000000E-01  1.50000000E+00  1.50000000E+00
  8.00000000E-01  8.00000000E-01  1.50000000E+00  1.50000000E+00  8.00000000E-01
  8.00000000E-01  1.50000000E+00  1.50000000E+00  8.00000000E-01  8.00000000E-01
  1.50000000E+00  1.50000000E+00  8.00000000E-01  8.00000000E-01  1.50000000E+00
  1.50000000E+00  8.00000000E-01  8.00000000E-01  1.50000000E+00  1.50000000E+00
  8.00000000E-01  8.00000000E-01  1.50000000E+00  1.50000000E+00  8.00000000E-01
  8.00000000E-01  1.50000000E+00  1.50000000E+00  8.00000000E-01  8.00000000E-01
  1.50000000E+00  1.50000000E+00  8.00000000E-01  8.00000000E-01  1.50000000E+00
  1.50000000E+00  8.00000000E-01  8.00000000E-01  1.50000000E+00  1.50000000E+00
  8.00000000E-01  8.00000000E-01  1.50000000E+00  1.50000000E+00  8.00000000E-01
  8.00000000E-01  1.50000000E+00  1.50000000E+00  8.00000000E-01  8.00000000E-01
  1.50000000E+00  1.50000000E+00  8.00000000E-01  8.00000000E-01  1.50000000E+00
  1.50000000E+00  8.00000000E-01  8.00000000E-01  1.50000000E+00  1.50000000E+00
  8.00000000E-01  8.00000000E-01  1.50000000E+00  1.50000000E+00  8.00000000E-01
  8.00000000E-01  1.50000000E+00  1.50000000E+00  8.00000000E-01  8.00000000E-01
  1.50000000E+00  1.50000000E+00  8.00000000E-01  8.00000000E-01  1.50000000E+00
  1.50000000E+00  8.00000000E-01  8.00000000E-01  1.50000000E+00  1.50000000E+00
  8.00000000E-01  8.00000000E-01  1.50000000E+00  1.50000000E+00  8.00000000E-01
  8.00000000E-01  1.50000000E+00  1.50000000E+00  8.00000000E-01  8.00000000E-01
  1.50000000E+00  1.50000000E+00  8.00000000E-01  8.00000000E-01  1.50000000E+00
  1.50000000E+00  8.00000000E-01  8.00000000E-01  1.50000000E+00  1.50000000E+00
  8.00000000E-01  8.00000000E-01  1.50000000E+00  1.50000000E+00  8.00000000E-01
  8.00000000E-01  1.50000000E+00  1.50000000E+00  8.00000000E-01  8.00000000E-01
  1.50000000E+00  1.50000000E+00  8.00000000E-01  8.00000000E-01  1.50000000E+00
  1.50000000E+00  8.00000000E-01  8.00000000E-01  1.50000000E+00  1.50000000E+00
  8.00000000E-01  8.00000000E-01  1.50000000E+00  1.50000000E+00  8.00000000E-01
  8.00000000E-01  1.50000000E+00  1.50000000E+00  8.00000000E-01  8.00000000E-01
  1.50000000E+00  1.50000000E+00  8.00000000E-01  8.00000000E-01  1.50000000E+00
  1.50000000E+00  8.00000000E-01  8.00000000E-01  1.50000000E+00  1.50000000E+00
  8.00000000E-01  8.00000000E-01  1.50000000E+00  1.50000000E+00  8.00000000E-01
  8.00000000E-01  1.50000000E+00  1.50000000E+00  8.00000000E-01  8.00000000E-01
  1.50000000E+00  1.50000000E+00  8.00000000E-01  8.00000000E-01  1.50000000E+00
  1.50000000E+00  8.00000000E-01  8.00000000E-01  1.50000000E+00  1.50000000E+00
  8.00000000E-01  8.00000000E-01  1.50000000E+00  1.50000000E+00  8.00000000E-01
  8.00000000E-01  1.50000000E+00  1.50000000E+00  8.00000000E-01  8.00000000E-01
  1.50000000E+00  1.50000000E+00  8.00000000E-01  8.00000000E-01  1.50000000E+00
  1.50000000E+00  8.00000000E-01  8.00000000E-01  1.50000000E+00  1.50000000E+00
  8.00000000E-01  8.00000000E-01  1.50000000E+00  1.50000000E+00  8.00000000E-01
  8.00000000E-01  1.50000000E+00  1.50000000E+00  8.00000000E-01  8.00000000E-01
  1.50000000E+00  1.50000000E+00  8.00000000E-01  8.00000000E-01  1.50000000E+00
  1.50000000E+00  8.00000000E-01  8.00000000E-01  1.50000000E+00  1.50000000E+00
  8.00000000E-01  8.00000000E-01  1.50000000E+00  1.50000000E+00  8.00000000E-01
  8.00000000E-01  1.50000000E+00  1.50000000E+00  8.00000000E-01  8.00000000E-01
  1.50000000E+00  1.50000000E+00  8.00000000E-01  8.00000000E-01  1.50000000E+00
  1.50000000E+00  8.00000000E-01  8.00000000E-01  1.50000000E+00  1.50000000E+00
  8.00000000E-01  8.00000000E-01  1.50000000E+00  1.50000000E+00  8.00000000E-01
  8.00000000E-01  1.50000000E+00  1.50000000E+00  8.00000000E-01  8.00000000E-01
  1.50000000E+00  1.50000000E+00  8.00000000E-01  8.00000000E-01  1.50000000E+00
  1.50000000E+00  8.00000000E-01  8.00000000E-01  1.50000000E+00  1.50000000E+00
  8.00000000E-01  8.00000000E-01  1.50000000E+00  1.50000000E+00  8.00000000E-01
  8.00000000E-01  1.50000000E+00  1.50000000E+00  8.00000000E-01  8.00000000E-01
  1.50000000E+00  1.50000000E+00  8.00000000E-01  8.00000000E-01  1.50000000E+00
  1.50000000E+00  8.00000000E-01  8.00000000E-01  1.50000000E+00  1.50000000E+00
  8.00000000E-01  8.00000000E-01  1.50000000E+00  1.50000000E+00  8.00000000E-01
  8.00000000E-01  1.50000000E+00  1.50000000E+00  8.00000000E-01  8.00000000E-01
  1.50000000E+00  1.50000000E+00  8.00000000E-01  8.00000000E-01  1.50000000E+00
  1.50000000E+00  8.00000000E-01  8.00000000E-01  1.50000000E+00  1.50000000E+00
  8.00000000E-01  8.00000000E-01  1.50000000E+00  1.50000000E+00  8.00000000E-01
  8.00000000E-01  1.50000000E+00  1.50000000E+00  8.00000000E-01  8.00000000E-01
  1.50000000E+00  1.50000000E+00  8.00000000E-01  8.00000000E-01  1.50000000E+00
  1.50000000E+00  8.00000000E-01  8.00000000E-01  1.50000000E+00  1.50000000E+00
  8.00000000E-01  8.00000000E-01  1.50000000E+00  1.50000000E+00  8.00000000E-01
  8.00000000E-01  1.50000000E+00  1.50000000E+00  8.00000000E-01  8.00000000E-01
  1.50000000E+00  1.50000000E+00  8.00000000E-01  8.00000000E-01  1.50000000E+00
  1.50000000E+00  8.00000000E-01  8.00000000E-01  1.50000000E+00  1.50000000E+00
  8.00000000E-01  8.00000000E-01  1.50000000E+00  1.50000000E+00  8.00000000E-01
  8.00000000E-01  1.50000000E+00  1.50000000E+00  8.00000000E-01  8.00000000E-01
  1.50000000E+00  1.50000000E+00  8.00000000E-01  8.00000000E-01  1.50000000E+00
  1.50000000E+00  8.00000000E-01  8.00000000E-01  1.50000000E+00  1.50000000E+00
  8.00000000E-01  8.00000000E-01  1.50000000E+00  1.50000000E+00  8.00000000E-01
  8.00000000E-01  1.50000000E+00  1.50000000E+00  8.00000000E-01  8.00000000E-01
  1.50000000E+00  1.50000000E+00  8.00000000E-01  8.00000000E-01  1.50000000E+00
  1.50000000E+00  8.00000000E-01  8.00000000E-01  1.50000000E+00  1.50000000E+00
  8.00000000E-01  8.00000000E-01  1.50000000E+00  1.50000000E+00  8.00000000E-01
  8.00000000E-01  1.50000000E+00  1.50000000E+00  8.00000000E-01  8.00000000E-01
  1.50000000E+00  1.50000000E+00  8.00000000E-01  8.00000000E-01  1.50000000E+00
  1.50000000E+00  8.00000000E-01  8.00000000E-01  1.50000000E+00  1.50000000E+00
  8.00000000E-01  8.00000000E-01  1.50000000E+00  1.50000000E+00  8.00000000E-01
  8.00000000E-01  1.50000000E+00  1.50000000E+00  8.00000000E-01  8.00000000E-01
  1.50000000E+00  1.50000000E+00  8.00000000E-01  8.00000000E-01  1.50000000E+00
  1.50000000E+00  8.00000000E-01  8.00000000E-01  1.50000000E+00  1.50000000E+00
  8.00000000E-01  8.00000000E-01  1.50000000E+00  1.50000000E+00  8.00000000E-01
  8.00000000E-01  1.50000000E+00  1.50000000E+00  8.00000000E-01  8.00000000E-01
  1.50000000E+00  1.50000000E+00  8.00000000E-01  8.00000000E-01  1.50000000E+00
  1.50000000E+00  8.00000000E-01  8.00000000E-01  1.50000000E+00  1.50000000E+00
  8.00000000E-01  8.00000000E-01  1.50000000E+00  1.50000000E+00  8.00000000E-01
  8.00000000E-01  1.50000000E+00  1.50000000E+00  8.00000000E-01  8.00000000E-01
  1.50000000E+00  1.50000000E+00  8.00000000E-01  8.00000000E-01  1.50000000E+00
  1.50000000E+00  8.00000000E-01  8.00000000E-01  1.50000000E+00  1.50000000E+00
  8.00000000E-01  8.00000000E-01  1.50000000E+00  1.50000000E+00  8.00000000E-01
  8.00000000E-01  1.50000000E+00  1.50000000E+00  8.00000000E-01  8.00000000E-01
  1.50000000E+00  1.50000000E+00  8.00000000E-01  8.00000000E-01  1.50000000E+00
  1.50000000E+00  8.00000000E-01  8.00000000E-01  1.50000000E+00  1.50000000E+00
  8.00000000E-01  8.00000000E-01  1.50000000E+00  1.50000000E+00  8.00000000E-01
  8.00000000E-01  1.50000000E+00  1.50000000E+00  8.00000000E-01  8.00000000E-01
  1.50000000E+00  1.50000000E+00  8.00000000E-01  8.00000000E-01  1.50000000E+00
  1.50000000E+00  8.00000000E-01  8.00000000E-01  1.50000000E+00  1.50000000E+00
  8.00000000E-01  8.00000000E-01  1.50000000E+00  1.50000000E+00  8.00000000E-01
  8.00000000E-01  1.50000000E+00  1.50000000E+00  8.00000000E-01  8.00000000E-01
  1.50000000E+00  1.50000000E+00  8.00000000E-01  8.00000000E-01  1.50000000E+00
  1.50000000E+00  8.00000000E-01  8.00000000E-01  1.50000000E+00  1.50000000E+00
  8.00000000E-01  8.00000000E-01  1.50000000E+00  1.50000000E+00  8.00000000E-01
  8.00000000E-01  1.50000000E+00  1.50000000E+00  8.00000000E-01  8.00000000E-01
  1.50000000E+00  1.50000000E+00  8.00000000E-01  8.00000000E-01  1.50000000E+00
  1.50000000E+00  8.00000000E-01  8.00000000E-01  1.50000000E+00  1.50000000E+00
  8.00000000E-01  8.00000000E-01  1.50000000E+00  1.50000000E+00  8.00000000E-01
  8.00000000E-01  1.50000000E+00  1.50000000E+00  8.00000000E-01  8.00000000E-01
  1.50000000E+00  1.50000000E+00  8.00000000E-01  8.00000000E-01  1.50000000E+00
  1.50000000E+00  8.00000000E-01  8.00000000E-01  1.50000000E+00  1.50000000E+00
  8.00000000E-01  8.00000000E-01  1.50000000E+00  1.50000000E+00  8.00000000E-01
  8.00000000E-01  1.50000000E+00  1.50000000E+00  8.00000000E-01  8.00000000E-01
  1.50000000E+00  1.50000000E+00  8.00000000E-01  8.00000000E-01  1.50000000E+00
  1.50000000E+00  8.00000000E-01  8.00000000E-01  1.50000000E+00  1.50000000E+00
  8.00000000E-01  8.00000000E-01  1.50000000E+00  1.50000000E+00  8.00000000E-01
  8.00000000E-01  1.50000000E+00  1.50000000E+00  8.00000000E-01  8.00000000E-01
  1.50000000E+00  1.50000000E+00  8.00000000E-01  8.00000000E-01  1.50000000E+00
  1.50000000E+00  8.00000000E-01  8.00000000E-01  1.50000000E+00  1.50000000E+00
  8.00000000E-01  8.00000000E-01  1.50000000E+00  1.50000000E+00  8.00000000E-01
  8.00000000E-01  1.50000000E+00  1.50000000E+00  8.00000000E-01  8.00000000E-01
  1.50000000E+00  1.50000000E+00  8.00000000E-01  8.00000000E-01  1.50000000E+00
  1.50000000E+00  8.00000000E-01  8.00000000E-01  1.50000000E+00  1.50000000E+00
  8.00000000E-01  8.00000000E-01  1.50000000E+00  1.50000000E+00  8.00000000E-01
  8.00000000E-01  1.50000000E+00  1.50000000E+00  8.00000000E-01  8.00000000E-01
  1.50000000E+00  1.50000000E+00  8.00000000E-01  8.00000000E-01  1.50000000E+00
  1.50000000E+00  8.00000000E-01  8.00000000E-01  1.50000000E+00  1.50000000E+00
  8.00000000E-01  8.00000000E-01  1.50000000E+00  1.50000000E+00  8.00000000E-01
  8.00000000E-01  1.50000000E+00  1.50000000E+00  8.00000000E-01  8.00000000E-01
  1.50000000E+00  1.50000000E+00  8.00000000E-01  8.00000000E-01  1.50000000E+00
  1.50000000E+00  8.00000000E-01  8.00000000E-01  1.50000000E+00  1.50000000E+00
  8.00000000E-01  8.00000000E-01  1.50000000E+00  1.50000000E+00  8.00000000E-01
  8.00000000E-01  1.50000000E+00  1.50000000E+00  8.00000000E-01  8.00000000E-01
  1.50000000E+00  1.50000000E+00  8.00000000E-01  8.00000000E-01  1.50000000E+00
  1.50000000E+00  8.00000000E-01  8.00000000E-01  1.50000000E+00  1.50000000E+00
  8.00000000E-01  8.00000000E-01  1.50000000E+00  1.50000000E+00  8.00000000E-01
  8.00000000E-01  1.50000000E+00  1.50000000E+00  8.00000000E-01  8.00000000E-01
  1.50000000E+00  1.50000000E+00  8.00000000E-01  8.00000000E-01  1.50000000E+00
  1.50000000E+00  8.00000000E-01  8.00000000E-01  1.50000000E+00  1.50000000E+00
  8.00000000E-01  8.00000000E-01  1.50000000E+00  1.50000000E+00  8.00000000E-01
  8.00000000E-01  1.50000000E+00  1.50000000E+00  8.00000000E-01  8.00000000E-01
  1.50000000E+00  1.50000000E+00  8.00000000E-01  8.00000000E-01  1.50000000E+00
  1.50000000E+00  8.00000000E-01  8.00000000E-01  1.50000000E+00  1.50000000E+00
  8.00000000E-01  8.00000000E-01  1.50000000E+00  1.50000000E+00  8.00000000E-01
  8.00000000E-01  1.50000000E+00  1.50000000E+00  8.00000000E-01  8.00000000E-01
  1.50000000E+00  1.50000000E+00  8.00000000E-01  8.00000000E-01  1.50000000E+00
  1.50000000E+00  8.00000000E-01  8.00000000E-01  1.50000000E+00  1.50000000E+00
  8.00000000E-01  8.00000000E-01  1.50000000E+00  1.50000000E+00  8.00000000E-01
  8.00000000E-01  1.50000000E+00  1.50000000E+00  8.00000000E-01  8.00000000E-01
  1.50000000E+00  1.50000000E+00  8.00000000E-01  8.00000000E-01  1.50000000E+00
  1.50000000E+00  8.00000000E-01  8.00000000E-01  1.50000000E+00  1.50000000E+00
  8.00000000E-01  8.00000000E-01  1.50000000E+00  1.50000000E+00  8.00000000E-01
  8.00000000E-01  1.50000000E+00  1.50000000E+00  8.00000000E-01  8.00000000E-01
  1.50000000E+00  1.50000000E+00  8.00000000E-01  8.00000000E-01  1.50000000E+00
  1.50000000E+00  8.00000000E-01  8.00000000E-01  1.50000000E+00  1.50000000E+00
  8.00000000E-01  8.00000000E-01  1.50000000E+00  1.50000000E+00  8.00000000E-01
  8.00000000E-01  1.50000000E+00  1.50000000E+00  8.00000000E-01  8.00000000E-01
  1.50000000E+00  1.50000000E+00  8.00000000E-01  8.00000000E-01  1.50000000E+00
  1.50000000E+00  8.00000000E-01  8.00000000E-01  1.50000000E+00  1.50000000E+00
  8.00000000E-01  8.00000000E-01  1.50000000E+00  1.50000000E+00  8.00000000E-01
  8.00000000E-01  1.50000000E+00  1.50000000E+00  8.00000000E-01  8.00000000E-01
  1.50000000E+00  1.50000000E+00  8.00000000E-01  8.00000000E-01  1.50000000E+00
  1.50000000E+00  8.00000000E-01  8.00000000E-01  1.50000000E+00  1.50000000E+00
  8.00000000E-01  8.00000000E-01  1.50000000E+00  1.50000000E+00  8.00000000E-01
  8.00000000E-01  1.50000000E+00  1.50000000E+00  8.00000000E-01  8.00000000E-01
  1.50000000E+00  1.50000000E+00  8.00000000E-01  8.00000000E-01  1.50000000E+00
  1.50000000E+00  8.00000000E-01  8.00000000E-01  1.50000000E+00  1.50000000E+00
  8.00000000E-01  8.00000000E-01  1.50000000E+00  1.50000000E+00  8.00000000E-01
  8.00000000E-01  1.50000000E+00  1.50000000E+00  8.00000000E-01  8.00000000E-01
  1.50000000E+00  1.50000000E+00  8.00000000E-01  8.00000000E-01  1.50000000E+00
  1.50000000E+00  8.00000000E-01  8.00000000E-01  1.50000000E+00  1.50000000E+00
  8.00000000E-01  8.00000000E-01  1.50000000E+00  1.50000000E+00  8.00000000E-01
  8.00000000E-01  1.50000000E+00  1.50000000E+00  8.00000000E-01  8.00000000E-01
  1.50000000E+00  1.50000000E+00  8.00000000E-01  8.00000000E-01  1.50000000E+00
  1.50000000E+00  8.00000000E-01  8.00000000E-01  1.50000000E+00  1.50000000E+00
  8.00000000E-01  8.00000000E-01  1.50000000E+00  1.50000000E+00  8.00000000E-01
  8.00000000E-01  1.50000000E+00  1.50000000E+00  8.00000000E-01  8.00000000E-01
  1.50000000E+00  1.50000000E+00  8.00000000E-01  8.00000000E-01  1.50000000E+00
  1.50000000E+00  8.00000000E-01  8.00000000E-01  1.50000000E+00  1.50000000E+00
  8.00000000E-01  8.00000000E-01  1.50000000E+00  1.50000000E+00  8.00000000E-01
  8.00000000E-01  1.50000000E+00  1.50000000E+00  8.00000000E-01  8.00000000E-01
  1.50000000E+00  1.50000000E+00  8.00000000E-01  8.00000000E-01  1.50000000E+00
  1.50000000E+00  8.00000000E-01  8.00000000E-01  1.50000000E+00  1.50000000E+00
  8.00000000E-01  8.00000000E-01  1.50000000E+00  1.50000000E+00  8.00000000E-01
  8.00000000E-01  1.50000000E+00  1.50000000E+00  8.00000000E-01  8.00000000E-01
  1.50000000E+00  1.50000000E+00  8.00000000E-01  8.00000000E-01  1.50000000E+00
  1.50000000E+00  8.00000000E-01  8.00000000E-01  1.50000000E+00  1.50000000E+00
  8.00000000E-01  8.00000000E-01  1.50000000E+00  1.50000000E+00  8.00000000E-01
  8.00000000E-01  1.50000000E+00  1.50000000E+00  8.00000000E-01  8.00000000E-01
  1.50000000E+00  1.50000000E+00  8.00000000E-01  8.00000000E-01  1.50000000E+00
  1.50000000E+00  8.00000000E-01  8.00000000E-01  1.50000000E+00  1.50000000E+00
  8.00000000E-01  8.00000000E-01  1.50000000E+00  1.50000000E+00  8.00000000E-01
  8.00000000E-01  1.50000000E+00  1.50000000E+00  8.00000000E-01  8.00000000E-01
  1.50000000E+00  1.50000000E+00  8.00000000E-01  8.00000000E-01  1.50000000E+00
  1.50000000E+00  8.00000000E-01  8.00000000E-01  1.50000000E+00  1.50000000E+00
  8.00000000E-01  8.00000000E-01  1.50000000E+00  1.50000000E+00  8.00000000E-01
  8.00000000E-01  1.50000000E+00  1.50000000E+00  8.00000000E-01  8.00000000E-01
  1.50000000E+00  1.50000000E+00  8.00000000E-01  8.00000000E-01  1.50000000E+00
  1.50000000E+00  8.00000000E-01  8.00000000E-01  1.50000000E+00  1.50000000E+00
  8.00000000E-01  8.00000000E-01  1.50000000E+00  1.50000000E+00  8.00000000E-01
  8.00000000E-01  1.50000000E+00  1.50000000E+00  8.00000000E-01  8.00000000E-01
  1.50000000E+00  1.50000000E+00  8.00000000E-01  8.00000000E-01  1.50000000E+00
  1.50000000E+00  8.00000000E-01  8.00000000E-01  1.50000000E+00  1.50000000E+00
  8.00000000E-01  8.00000000E-01  1.50000000E+00  1.50000000E+00  8.00000000E-01
  8.00000000E-01  1.50000000E+00  1.50000000E+00  8.00000000E-01  8.00000000E-01
  1.50000000E+00  1.50000000E+00  8.00000000E-01  8.00000000E-01  1.50000000E+00
  1.50000000E+00  8.00000000E-01  8.00000000E-01  1.50000000E+00  1.50000000E+00
  8.00000000E-01  8.00000000E-01  1.50000000E+00  1.50000000E+00  8.00000000E-01
  8.00000000E-01  1.50000000E+00  1.50000000E+00  8.00000000E-01  8.00000000E-01
  1.50000000E+00  1.50000000E+00  8.00000000E-01  8.00000000E-01  1.50000000E+00
  1.50000000E+00  8.00000000E-01  8.00000000E-01  1.50000000E+00  1.50000000E+00
  8.00000000E-01  8.00000000E-01  1.50000000E+00  1.50000000E+00  8.00000000E-01
  8.00000000E-01  1.50000000E+00  1.50000000E+00  8.00000000E-01  8.00000000E-01
  1.50000000E+00  1.50000000E+00  8.00000000E-01  8.00000000E-01  1.50000000E+00
  1.50000000E+00  8.00000000E-01  8.00000000E-01  1.50000000E+00  1.50000000E+00
  8.00000000E-01  8.00000000E-01  1.50000000E+00  1.50000000E+00  8.00000000E-01
  8.00000000E-01  1.50000000E+00  1.50000000E+00  8.00000000E-01  8.00000000E-01
  1.50000000E+00  1.50000000E+00  8.00000000E-01  8.00000000E-01  1.50000000E+00
  1.50000000E+00  8.00000000E-01  8.00000000E-01  1.50000000E+00  1.50000000E+00
  8.00000000E-01  8.00000000E-01  1.50000000E+00  1.50000000E+00  8.00000000E-01
  8.00000000E-01  1.50000000E+00  1.50000000E+00  8.00000000E-01  8.00000000E-01
  1.50000000E+00  1.50000000E+00  8.00000000E-01  8.00000000E-01  1.50000000E+00
  1.50000000E+00  8.00000000E-01  8.00000000E-01  1.50000000E+00  1.50000000E+00
  8.00000000E-01  8.00000000E-01  1.50000000E+00  1.50000000E+00  8.00000000E-01
  8.00000000E-01  1.50000000E+00  1.50000000E+00  8.00000000E-01  8.00000000E-01
  1.50000000E+00  1.50000000E+00  8.00000000E-01  8.00000000E-01  1.50000000E+00
  1.50000000E+00  8.00000000E-01  8.00000000E-01  1.50000000E+00  1.50000000E+00
  8.00000000E-01  8.00000000E-01  1.50000000E+00  1.50000000E+00  8.00000000E-01
  8.00000000E-01  1.50000000E+00  1.50000000E+00  8.00000000E-01  8.00000000E-01
  1.50000000E+00  1.50000000E+00  8.00000000E-01  8.00000000E-01  1.50000000E+00
  1.50000000E+00  8.00000000E-01  8.00000000E-01  1.50000000E+00  1.50000000E+00
  8.00000000E-01  8.00000000E-01  1.50000000E+00  1.50000000E+00  8.00000000E-01
  8.00000000E-01  1.50000000E+00  1.50000000E+00  8.00000000E-01  8.00000000E-01
  1.50000000E+00  1.50000000E+00  8.00000000E-01  8.00000000E-01  1.50000000E+00
  1.50000000E+00  8.00000000E-01  8.00000000E-01  1.50000000E+00  1.50000000E+00
  8.00000000E-01  8.00000000E-01  1.50000000E+00  1.50000000E+00  8.00000000E-01
  8.00000000E-01  1.50000000E+00  1.50000000E+00  8.00000000E-01  8.00000000E-01
  1.50000000E+00  1.50000000E+00  8.00000000E-01  8.00000000E-01  1.50000000E+00
  1.50000000E+00  8.00000000E-01  8.00000000E-01  1.50000000E+00  1.50000000E+00
  8.00000000E-01  8.00000000E-01  1.50000000E+00  1.50000000E+00  8.00000000E-01
  8.00000000E-01  1.50000000E+00  1.50000000E+00  8.00000000E-01  8.00000000E-01
  1.50000000E+00  1.50000000E+00  8.00000000E-01  8.00000000E-01  1.50000000E+00
  1.50000000E+00  8.00000000E-01  8.00000000E-01  1.50000000E+00  1.50000000E+00
  8.00000000E-01  8.00000000E-01  1.50000000E+00  1.50000000E+00  8.00000000E-01
  8.00000000E-01  1.50000000E+00  1.50000000E+00  8.00000000E-01  8.00000000E-01
  1.50000000E+00  1.50000000E+00  8.00000000E-01  8.00000000E-01  1.50000000E+00
  1.50000000E+00  8.00000000E-01  8.00000000E-01  1.50000000E+00  1.50000000E+00
  8.00000000E-01  8.00000000E-01  1.50000000E+00  1.50000000E+00  8.00000000E-01
  8.00000000E-01  1.50000000E+00  1.50000000E+00  8.00000000E-01  8.00000000E-01
  1.50000000E+00  1.50000000E+00  8.00000000E-01  8.00000000E-01  1.50000000E+00
  1.50000000E+00  8.00000000E-01  8.00000000E-01  1.50000000E+00  1.50000000E+00
  8.00000000E-01  8.00000000E-01  1.50000000E+00  1.50000000E+00  8.00000000E-01
  8.00000000E-01  1.50000000E+00  1.50000000E+00  8.00000000E-01  8.00000000E-01
  1.50000000E+00  1.50000000E+00  8.00000000E-01  8.00000000E-01  1.50000000E+00
  1.50000000E+00  8.00000000E-01  8.00000000E-01  1.50000000E+00  1.50000000E+00
  8.00000000E-01  8.00000000E-01  1.50000000E+00  1.50000000E+00  8.00000000E-01
  8.00000000E-01  1.50000000E+00  1.50000000E+00  8.00000000E-01  8.00000000E-01
  1.50000000E+00  1.50000000E+00  8.00000000E-01  8.00000000E-01  1.50000000E+00
  1.50000000E+00  8.00000000E-01  8.00000000E-01  1.50000000E+00  1.50000000E+00
  8.00000000E-01  8.00000000E-01  1.50000000E+00  1.50000000E+00  8.00000000E-01
  8.00000000E-01  1.50000000E+00  1.50000000E+00  8.00000000E-01  8.00000000E-01
  1.50000000E+00  1.50000000E+00  8.00000000E-01  8.00000000E-01  1.50000000E+00
  1.50000000E+00  8.00000000E-01  8.00000000E-01  1.50000000E+00  1.50000000E+00
  8.00000000E-01  8.00000000E-01  1.50000000E+00  1.50000000E+00  8.00000000E-01
  8.00000000E-01  1.50000000E+00  1.50000000E+00  8.00000000E-01  8.00000000E-01
  1.50000000E+00  1.50000000E+00  8.00000000E-01  8.00000000E-01  1.50000000E+00
  1.50000000E+00  8.00000000E-01  8.00000000E-01  1.50000000E+00  1.50000000E+00
  8.00000000E-01  8.00000000E-01  1.50000000E+00  1.50000000E+00  8.00000000E-01
  8.00000000E-01  1.50000000E+00  1.50000000E+00  8.00000000E-01  8.00000000E-01
  1.50000000E+00  1.50000000E+00  8.00000000E-01  8.00000000E-01  1.50000000E+00
  1.50000000E+00  8.00000000E-01  8.00000000E-01  1.50000000E+00  1.50000000E+00
  8.00000000E-01  8.00000000E-01  1.50000000E+00  1.50000000E+00  8.00000000E-01
  8.00000000E-01  1.50000000E+00  1.50000000E+00  8.00000000E-01  8.00000000E-01
  1.50000000E+00  1.50000000E+00  8.00000000E-01  8.00000000E-01  1.50000000E+00
  1.50000000E+00  8.00000000E-01  8.00000000E-01  1.50000000E+00  1.50000000E+00
  8.00000000E-01  8.00000000E-01  1.50000000E+00  1.50000000E+00  8.00000000E-01
  8.00000000E-01  1.50000000E+00  1.50000000E+00  8.00000000E-01  8.00000000E-01
  1.50000000E+00  1.50000000E+00  8.00000000E-01  8.00000000E-01  1.50000000E+00
  1.50000000E+00  8.00000000E-01  8.00000000E-01  1.50000000E+00  1.50000000E+00
  8.00000000E-01  8.00000000E-01  1.50000000E+00  1.50000000E+00  8.00000000E-01
  8.00000000E-01  1.50000000E+00  1.50000000E+00  8.00000000E-01  8.00000000E-01
  1.50000000E+00  1.50000000E+00  8.00000000E-01  8.00000000E-01  1.50000000E+00
  1.50000000E+00  8.00000000E-01  8.00000000E-01  1.50000000E+00  1.50000000E+00
  8.00000000E-01  8.00000000E-01  1.50000000E+00  1.50000000E+00  8.00000000E-01
  8.00000000E-01  1.50000000E+00  1.50000000E+00  8.00000000E-01  8.00000000E-01
  1.50000000E+00  1.50000000E+00  8.00000000E-01  8.00000000E-01  1.50000000E+00
  1.50000000E+00  8.00000000E-01  8.00000000E-01  1.50000000E+00  1.50000000E+00
  8.00000000E-01  8.00000000E-01  1.50000000E+00  1.50000000E+00  8.00000000E-01
  8.00000000E-01  1.50000000E+00  1.50000000E+00  8.00000000E-01  8.00000000E-01
  1.50000000E+00  1.50000000E+00  8.00000000E-01  8.00000000E-01  1.50000000E+00
  1.50000000E+00  8.00000000E-01  8.00000000E-01  1.50000000E+00  1.50000000E+00
  8.00000000E-01  8.00000000E-01  1.50000000E+00  1.50000000E+00  8.00000000E-01
  8.00000000E-01  1.50000000E+00  1.50000000E+00  8.00000000E-01  8.00000000E-01
  1.50000000E+00  1.50000000E+00  8.00000000E-01  8.00000000E-01  1.50000000E+00
  1.50000000E+00  8.00000000E-01  8.00000000E-01  1.50000000E+00  1.50000000E+00
  8.00000000E-01  8.00000000E-01  1.50000000E+00  1.50000000E+00  8.00000000E-01
  8.00000000E-01  1.50000000E+00  1.50000000E+00  8.00000000E-01  8.00000000E-01
  1.50000000E+00  1.50000000E+00  8.00000000E-01  8.00000000E-01  1.50000000E+00
  1.50000000E+00  8.00000000E-01  8.00000000E-01  1.50000000E+00  1.50000000E+00
  8.00000000E-01  8.00000000E-01  1.50000000E+00  1.50000000E+00  8.00000000E-01
  8.00000000E-01  1.50000000E+00  1.50000000E+00  8.00000000E-01  8.00000000E-01
  1.50000000E+00  1.50000000E+00  8.00000000E-01  8.00000000E-01  1.50000000E+00
  1.50000000E+00  8.00000000E-01  8.00000000E-01  1.50000000E+00  1.50000000E+00
  8.00000000E-01  8.00000000E-01  1.50000000E+00  1.50000000E+00  8.00000000E-01
  8.00000000E-01  1.50000000E+00  1.50000000E+00  8.00000000E-01  8.00000000E-01
  1.50000000E+00  1.50000000E+00  8.00000000E-01  8.00000000E-01  1.50000000E+00
  1.50000000E+00  8.00000000E-01  8.00000000E-01  1.50000000E+00  1.50000000E+00
  8.00000000E-01  8.00000000E-01  1.50000000E+00  1.50000000E+00  8.00000000E-01
  8.00000000E-01  1.50000000E+00  1.50000000E+00  8.00000000E-01  8.00000000E-01
  1.50000000E+00  1.50000000E+00  8.00000000E-01  8.00000000E-01  1.50000000E+00
  1.50000000E+00  8.00000000E-01  8.00000000E-01  1.50000000E+00  1.50000000E+00
  8.00000000E-01  8.00000000E-01  1.50000000E+00  1.50000000E+00  8.00000000E-01
  8.00000000E-01  1.50000000E+00  1.50000000E+00  8.00000000E-01  8.00000000E-01
  1.50000000E+00  1.50000000E+00  8.00000000E-01  8.00000000E-01  1.50000000E+00
  1.50000000E+00  8.00000000E-01  8.00000000E-01  1.50000000E+00  1.50000000E+00
  8.00000000E-01  8.00000000E-01  1.50000000E+00  1.50000000E+00  8.00000000E-01
  8.00000000E-01  1.50000000E+00  1.50000000E+00  8.00000000E-01  8.00000000E-01
  1.50000000E+00  1.50000000E+00  8.00000000E-01  8.00000000E-01  1.50000000E+00
  1.50000000E+00  8.00000000E-01  8.00000000E-01  1.50000000E+00  1.50000000E+00
  8.00000000E-01  8.00000000E-01  1.50000000E+00  1.50000000E+00  8.00000000E-01
  8.00000000E-01  1.50000000E+00  1.50000000E+00  8.00000000E-01  8.00000000E-01
  1.50000000E+00  1.50000000E+00  8.00000000E-01  8.00000000E-01  1.50000000E+00
  1.50000000E+00  8.00000000E-01  8.00000000E-01  1.50000000E+00  1.50000000E+00
  8.00000000E-01  8.00000000E-01  1.50000000E+00  1.50000000E+00  8.00000000E-01
  8.00000000E-01  1.50000000E+00  1.50000000E+00  8.00000000E-01  8.00000000E-01
  1.50000000E+00  1.50000000E+00  8.00000000E-01  8.00000000E-01  1.50000000E+00
  1.50000000E+00  8.00000000E-01  8.00000000E-01  1.50000000E+00  1.50000000E+00
  8.00000000E-01  8.00000000E-01  1.50000000E+00  1.50000000E+00  8.00000000E-01
  8.00000000E-01  1.50000000E+00  1.50000000E+00  8.00000000E-01  8.00000000E-01
  1.50000000E+00  1.50000000E+00  8.00000000E-01  8.00000000E-01  1.50000000E+00
  1.50000000E+00  8.00000000E-01  8.00000000E-01  1.50000000E+00  1.50000000E+00
  8.00000000E-01  8.00000000E-01  1.50000000E+00  1.50000000E+00  8.00000000E-01
  8.00000000E-01  1.50000000E+00  1.50000000E+00  8.00000000E-01  8.00000000E-01
  1.50000000E+00  1.50000000E+00  8.00000000E-01  8.00000000E-01  1.50000000E+00
  1.50000000E+00  8.00000000E-01  8.00000000E-01  1.50000000E+00  1.50000000E+00
  8.00000000E-01  8.00000000E-01  1.50000000E+00  1.50000000E+00  8.00000000E-01
  8.00000000E-01  1.50000000E+00  1.50000000E+00  8.00000000E-01  8.00000000E-01
  1.50000000E+00  1.50000000E+00  8.00000000E-01  8.00000000E-01  1.50000000E+00
  1.50000000E+00  8.00000000E-01  8.00000000E-01  1.50000000E+00  1.50000000E+00
  8.00000000E-01  8.00000000E-01  1.50000000E+00  1.50000000E+00  8.00000000E-01
  8.00000000E-01  1.50000000E+00  1.50000000E+00  8.00000000E-01  8.00000000E-01
  1.50000000E+00  1.50000000E+00  8.00000000E-01  8.00000000E-01  1.50000000E+00
  1.50000000E+00  8.00000000E-01  8.00000000E-01  1.50000000E+00  1.50000000E+00
  8.00000000E-01  8.00000000E-01  1.50000000E+00  1.50000000E+00  8.00000000E-01
  8.00000000E-01  1.50000000E+00  1.50000000E+00  8.00000000E-01  8.00000000E-01
  1.50000000E+00  1.50000000E+00  8.00000000E-01  8.00000000E-01  1.50000000E+00
  1.50000000E+00  8.00000000E-01  8.00000000E-01  1.50000000E+00  1.50000000E+00
  8.00000000E-01  8.00000000E-01  1.50000000E+00  1.50000000E+00  8.00000000E-01
  8.00000000E-01  1.50000000E+00  1.50000000E+00  8.00000000E-01  8.00000000E-01
  1.50000000E+00  1.50000000E+00  8.00000000E-01  8.00000000E-01  1.50000000E+00
  1.50000000E+00  8.00000000E-01  8.00000000E-01  1.50000000E+00  1.50000000E+00
  8.00000000E-01  8.00000000E-01  1.50000000E+00  1.50000000E+00  8.00000000E-01
  8.00000000E-01  1.50000000E+00  1.50000000E+00  8.00000000E-01  8.00000000E-01
  1.50000000E+00  1.50000000E+00  8.00000000E-01  8.00000000E-01  1.50000000E+00
  1.50000000E+00  8.00000000E-01  8.00000000E-01  1.50000000E+00  1.50000000E+00
  8.00000000E-01  8.00000000E-01  1.50000000E+00  1.50000000E+00  8.00000000E-01
  8.00000000E-01  1.50000000E+00  1.50000000E+00  8.00000000E-01  8.00000000E-01
  1.50000000E+00  1.50000000E+00  8.00000000E-01  8.00000000E-01  1.50000000E+00
  1.50000000E+00  8.00000000E-01  8.00000000E-01  1.50000000E+00  1.50000000E+00
  8.00000000E-01  8.00000000E-01  1.50000000E+00  1.50000000E+00  8.00000000E-01
  8.00000000E-01  1.50000000E+00  1.50000000E+00  8.00000000E-01  8.00000000E-01
  1.50000000E+00  1.50000000E+00  8.00000000E-01  8.00000000E-01  1.50000000E+00
  1.50000000E+00  8.00000000E-01  8.00000000E-01  1.50000000E+00  1.50000000E+00
  8.00000000E-01  8.00000000E-01  1.50000000E+00  1.50000000E+00  8.00000000E-01
  8.00000000E-01  1.50000000E+00  1.50000000E+00  8.00000000E-01  8.00000000E-01
  1.50000000E+00  1.50000000E+00  8.00000000E-01  8.00000000E-01  1.50000000E+00
  1.50000000E+00  8.00000000E-01  8.00000000E-01  1.50000000E+00  1.50000000E+00
  8.00000000E-01  8.00000000E-01  1.50000000E+00  1.50000000E+00  8.00000000E-01
  8.00000000E-01  1.50000000E+00  1.50000000E+00  8.00000000E-01  8.00000000E-01
  1.50000000E+00  1.50000000E+00  8.00000000E-01  8.00000000E-01  1.50000000E+00
  1.50000000E+00  8.00000000E-01  8.00000000E-01  1.50000000E+00  1.50000000E+00
  8.00000000E-01  8.00000000E-01  1.50000000E+00  1.50000000E+00  8.00000000E-01
  8.00000000E-01  1.50000000E+00  1.50000000E+00  8.00000000E-01  8.00000000E-01
  1.50000000E+00  1.50000000E+00  8.00000000E-01  8.00000000E-01  1.50000000E+00
  1.50000000E+00  8.00000000E-01  8.00000000E-01  1.50000000E+00  1.50000000E+00
  8.00000000E-01  8.00000000E-01  1.50000000E+00  1.50000000E+00  8.00000000E-01
  8.00000000E-01  1.50000000E+00  1.50000000E+00  8.00000000E-01  8.00000000E-01
  1.50000000E+00  1.50000000E+00  8.00000000E-01  8.00000000E-01  1.50000000E+00
  1.50000000E+00  8.00000000E-01  8.00000000E-01  1.50000000E+00  1.50000000E+00
  8.00000000E-01  8.00000000E-01  1.50000000E+00  1.50000000E+00  8.00000000E-01
  8.00000000E-01  1.50000000E+00  1.50000000E+00  8.00000000E-01  8.00000000E-01
  1.50000000E+00  1.50000000E+00  8.00000000E-01  8.00000000E-01  1.50000000E+00
  1.50000000E+00  8.00000000E-01  8.00000000E-01  1.50000000E+00  1.50000000E+00
  8.00000000E-01  8.00000000E-01  1.50000000E+00  1.50000000E+00  8.00000000E-01
  8.00000000E-01  1.50000000E+00  1.50000000E+00  8.00000000E-01  8.00000000E-01
  1.50000000E+00  1.50000000E+00  8.00000000E-01  8.00000000E-01  1.50000000E+00
  1.50000000E+00  8.00000000E-01  8.00000000E-01  1.50000000E+00  1.50000000E+00
  8.00000000E-01  8.00000000E-01  1.50000000E+00  1.50000000E+00  8.00000000E-01
  8.00000000E-01  1.50000000E+00  1.50000000E+00  8.00000000E-01  8.00000000E-01
  1.50000000E+00  1.50000000E+00  8.00000000E-01  8.00000000E-01  1.50000000E+00
  1.50000000E+00  8.00000000E-01  8.00000000E-01  1.50000000E+00  1.50000000E+00
  8.00000000E-01  8.00000000E-01  1.50000000E+00  1.50000000E+00  8.00000000E-01
  8.00000000E-01  1.50000000E+00  1.50000000E+00  8.00000000E-01  8.00000000E-01
  1.50000000E+00  1.50000000E+00  8.00000000E-01  8.00000000E-01  1.50000000E+00
  1.50000000E+00  8.00000000E-01  8.00000000E-01  1.50000000E+00  1.50000000E+00
  8.00000000E-01  8.00000000E-01  1.50000000E+00  1.50000000E+00  8.00000000E-01
  8.00000000E-01  1.50000000E+00  1.50000000E+00  8.00000000E-01  8.00000000E-01
  1.50000000E+00  1.50000000E+00  8.00000000E-01  8.00000000E-01  1.50000000E+00
  1.50000000E+00  8.00000000E-01  8.00000000E-01  1.50000000E+00  1.50000000E+00
  8.00000000E-01  8.00000000E-01  1.50000000E+00  1.50000000E+00  8.00000000E-01
  8.00000000E-01  1.50000000E+00  1.50000000E+00  8.00000000E-01  8.00000000E-01
  1.50000000E+00  1.50000000E+00  8.00000000E-01  8.00000000E-01  1.50000000E+00
  1.50000000E+00  8.00000000E-01  8.00000000E-01  1.50000000E+00  1.50000000E+00
  8.00000000E-01  8.00000000E-01  1.50000000E+00  1.50000000E+00  8.00000000E-01
  8.00000000E-01  1.50000000E+00  1.50000000E+00  8.00000000E-01  8.00000000E-01
  1.50000000E+00  1.50000000E+00  8.00000000E-01  8.00000000E-01  1.50000000E+00
  1.50000000E+00  8.00000000E-01  8.00000000E-01  1.50000000E+00  1.50000000E+00
  8.00000000E-01  8.00000000E-01  1.50000000E+00  1.50000000E+00  8.00000000E-01
  8.00000000E-01  1.50000000E+00  1.50000000E+00  8.00000000E-01  8.00000000E-01
  1.50000000E+00  1.50000000E+00  8.00000000E-01  8.00000000E-01  1.50000000E+00
  1.50000000E+00  8.00000000E-01  8.00000000E-01  1.50000000E+00  1.50000000E+00
  8.00000000E-01  8.00000000E-01  1.50000000E+00  1.50000000E+00  8.00000000E-01
  8.00000000E-01  1.50000000E+00  1.50000000E+00  8.00000000E-01  8.00000000E-01
  1.50000000E+00  1.50000000E+00  8.00000000E-01  8.00000000E-01  1.50000000E+00
  1.50000000E+00  8.00000000E-01  8.00000000E-01  1.50000000E+00  1.50000000E+00
  8.00000000E-01  8.00000000E-01  1.50000000E+00  1.50000000E+00  8.00000000E-01
  8.00000000E-01  1.50000000E+00  1.50000000E+00  8.00000000E-01  8.00000000E-01
  1.50000000E+00  1.50000000E+00  8.00000000E-01  8.00000000E-01  1.50000000E+00
  1.50000000E+00  8.00000000E-01  8.00000000E-01  1.50000000E+00  1.50000000E+00
  8.00000000E-01  8.00000000E-01  1.50000000E+00  1.50000000E+00  8.00000000E-01
  8.00000000E-01  1.50000000E+00  1.50000000E+00  8.00000000E-01  8.00000000E-01
  1.50000000E+00  1.50000000E+00  8.00000000E-01  8.00000000E-01  1.50000000E+00
  1.50000000E+00  8.00000000E-01  8.00000000E-01  1.50000000E+00  1.50000000E+00
  8.00000000E-01  8.00000000E-01  1.50000000E+00  1.50000000E+00  8.00000000E-01
  8.00000000E-01  1.50000000E+00  1.50000000E+00  8.00000000E-01  8.00000000E-01
  1.50000000E+00  1.50000000E+00  8.00000000E-01  8.00000000E-01  1.50000000E+00
  1.50000000E+00  8.00000000E-01  8.00000000E-01  1.50000000E+00  1.50000000E+00
  8.00000000E-01  8.00000000E-01  1.50000000E+00  1.50000000E+00  8.00000000E-01
  8.00000000E-01  1.50000000E+00  1.50000000E+00  8.00000000E-01  8.00000000E-01
  1.50000000E+00  1.50000000E+00  8.00000000E-01  8.00000000E-01  1.50000000E+00
  1.50000000E+00  8.00000000E-01  8.00000000E-01  1.50000000E+00  1.50000000E+00
  8.00000000E-01  8.00000000E-01  1.50000000E+00  1.50000000E+00  8.00000000E-01
  8.00000000E-01  1.50000000E+00  1.50000000E+00  8.00000000E-01  8.00000000E-01
  1.50000000E+00  1.50000000E+00  8.00000000E-01  8.00000000E-01  1.50000000E+00
  1.50000000E+00  8.00000000E-01  8.00000000E-01  1.50000000E+00  1.50000000E+00
  8.00000000E-01  8.00000000E-01  1.50000000E+00  1.50000000E+00  8.00000000E-01
  8.00000000E-01  1.50000000E+00  1.50000000E+00  8.00000000E-01  8.00000000E-01
  1.50000000E+00  1.50000000E+00  8.00000000E-01  8.00000000E-01  1.50000000E+00
  1.50000000E+00  8.00000000E-01  8.00000000E-01  1.50000000E+00  1.50000000E+00
  8.00000000E-01  8.00000000E-01  1.50000000E+00  1.50000000E+00  8.00000000E-01
  8.00000000E-01  1.50000000E+00  1.50000000E+00  8.00000000E-01  8.00000000E-01
  1.50000000E+00  1.50000000E+00  8.00000000E-01  8.00000000E-01  1.50000000E+00
  1.50000000E+00  8.00000000E-01  8.00000000E-01  1.50000000E+00  1.50000000E+00
  8.00000000E-01  8.00000000E-01  1.50000000E+00  1.50000000E+00  8.00000000E-01
  8.00000000E-01  1.50000000E+00  1.50000000E+00  8.00000000E-01  8.00000000E-01
  1.50000000E+00  1.50000000E+00  8.00000000E-01  8.00000000E-01  1.50000000E+00
  1.50000000E+00  8.00000000E-01  8.00000000E-01  1.50000000E+00  1.50000000E+00
  8.00000000E-01  8.00000000E-01  1.50000000E+00  1.50000000E+00  8.00000000E-01
  8.00000000E-01  1.50000000E+00  1.50000000E+00  8.00000000E-01  8.00000000E-01
  1.50000000E+00  1.50000000E+00  8.00000000E-01  8.00000000E-01  1.50000000E+00
  1.50000000E+00  8.00000000E-01  8.00000000E-01  1.50000000E+00  1.50000000E+00
  8.00000000E-01  8.00000000E-01  1.50000000E+00  1.50000000E+00  8.00000000E-01
  8.00000000E-01  1.50000000E+00  1.50000000E+00  8.00000000E-01  8.00000000E-01
  1.50000000E+00  1.50000000E+00  8.00000000E-01  8.00000000E-01  1.50000000E+00
  1.50000000E+00  8.00000000E-01  8.00000000E-01  1.50000000E+00  1.50000000E+00
  8.00000000E-01  8.00000000E-01  1.50000000E+00  1.50000000E+00  8.00000000E-01
  8.00000000E-01  1.50000000E+00  1.50000000E+00  8.00000000E-01  8.00000000E-01
  1.50000000E+00  1.50000000E+00  8.00000000E-01  8.00000000E-01  1.50000000E+00
  1.50000000E+00  8.00000000E-01  8.00000000E-01  1.50000000E+00  1.50000000E+00
  8.00000000E-01  8.00000000E-01  1.50000000E+00  1.50000000E+00  8.00000000E-01
  8.00000000E-01  1.50000000E+00  1.50000000E+00  8.00000000E-01  8.00000000E-01
  1.50000000E+00  1.50000000E+00  8.00000000E-01  8.00000000E-01  1.50000000E+00
  1.50000000E+00  8.00000000E-01  8.00000000E-01  1.50000000E+00  1.50000000E+00
  8.00000000E-01  8.00000000E-01  1.50000000E+00  1.50000000E+00  8.00000000E-01
  8.00000000E-01  1.50000000E+00  1.50000000E+00  8.00000000E-01  8.00000000E-01
  1.50000000E+00  1.50000000E+00  8.00000000E-01  8.00000000E-01  1.50000000E+00
  1.50000000E+00  8.00000000E-01  8.00000000E-01  1.50000000E+00  1.50000000E+00
  8.00000000E-01  8.00000000E-01  1.50000000E+00  1.50000000E+00  8.00000000E-01
  8.00000000E-01  1.50000000E+00  1.50000000E+00  8.00000000E-01  8.00000000E-01
  1.50000000E+00  1.50000000E+00  8.00000000E-01  8.00000000E-01  1.50000000E+00
  1.50000000E+00  8.00000000E-01  8.00000000E-01  1.50000000E+00  1.50000000E+00
  8.00000000E-01  8.00000000E-01  1.50000000E+00  1.50000000E+00  8.00000000E-01
  8.00000000E-01  1.50000000E+00  1.50000000E+00  8.00000000E-01  8.00000000E-01
  1.50000000E+00  1.50000000E+00  8.00000000E-01  8.00000000E-01  1.50000000E+00
  1.50000000E+00  8.00000000E-01  8.00000000E-01  1.50000000E+00  1.50000000E+00
  8.00000000E-01  8.00000000E-01  1.50000000E+00  1.50000000E+00  8.00000000E-01
  8.00000000E-01  1.50000000E+00  1.50000000E+00  8.00000000E-01  8.00000000E-01
  1.50000000E+00  1.50000000E+00  8.00000000E-01  8.00000000E-01  1.50000000E+00
  1.50000000E+00  8.00000000E-01  8.00000000E-01  1.50000000E+00  1.50000000E+00
  8.00000000E-01  8.00000000E-01  1.50000000E+00  1.50000000E+00  8.00000000E-01
  8.00000000E-01  1.50000000E+00  1.50000000E+00  8.00000000E-01  8.00000000E-01
  1.50000000E+00  1.50000000E+00  8.00000000E-01  8.00000000E-01  1.50000000E+00
  1.50000000E+00  8.00000000E-01  8.00000000E-01  1.50000000E+00  1.50000000E+00
  8.00000000E-01  8.00000000E-01  1.50000000E+00  1.50000000E+00  8.00000000E-01
  8.00000000E-01  1.50000000E+00  1.50000000E+00  8.00000000E-01  8.00000000E-01
  1.50000000E+00  1.50000000E+00  8.00000000E-01  8.00000000E-01  1.50000000E+00
  1.50000000E+00  8.00000000E-01  8.00000000E-01  1.50000000E+00  1.50000000E+00
  8.00000000E-01  8.00000000E-01  1.50000000E+00  1.50000000E+00  8.00000000E-01
  8.00000000E-01  1.50000000E+00  1.50000000E+00  8.00000000E-01  8.00000000E-01
  1.50000000E+00  1.50000000E+00  8.00000000E-01  8.00000000E-01  1.50000000E+00
  1.50000000E+00  8.00000000E-01  8.00000000E-01  1.50000000E+00  1.50000000E+00
  8.00000000E-01  8.00000000E-01  1.50000000E+00  1.50000000E+00  8.00000000E-01
  8.00000000E-01  1.50000000E+00  1.50000000E+00  8.00000000E-01  8.00000000E-01
  1.50000000E+00  1.50000000E+00  8.00000000E-01  8.00000000E-01  1.50000000E+00
  1.50000000E+00  8.00000000E-01  8.00000000E-01  1.50000000E+00  1.50000000E+00
  8.00000000E-01  8.00000000E-01  1.50000000E+00  1.50000000E+00  8.00000000E-01
  8.00000000E-01  1.50000000E+00  1.50000000E+00  8.00000000E-01  8.00000000E-01
  1.50000000E+00  1.50000000E+00  8.00000000E-01  8.00000000E-01  1.50000000E+00
  1.50000000E+00  8.00000000E-01  8.00000000E-01  1.50000000E+00  1.50000000E+00
  8.00000000E-01  8.00000000E-01  1.50000000E+00  1.50000000E+00  8.00000000E-01
  8.00000000E-01  1.50000000E+00  1.50000000E+00  8.00000000E-01  8.00000000E-01
  1.50000000E+00  1.50000000E+00  8.00000000E-01  8.00000000E-01  1.50000000E+00
  1.50000000E+00  8.00000000E-01  8.00000000E-01  1.50000000E+00  1.50000000E+00
  8.00000000E-01  8.00000000E-01  1.50000000E+00  1.50000000E+00  8.00000000E-01
  8.00000000E-01  1.50000000E+00  1.50000000E+00  8.00000000E-01  8.00000000E-01
  1.50000000E+00  1.50000000E+00  8.00000000E-01  8.00000000E-01  1.50000000E+00
  1.50000000E+00  8.00000000E-01  8.00000000E-01  1.50000000E+00  1.50000000E+00
  8.00000000E-01  8.00000000E-01  1.50000000E+00  1.50000000E+00  8.00000000E-01
  8.00000000E-01  1.50000000E+00  1.50000000E+00  8.00000000E-01  8.00000000E-01
  1.50000000E+00  1.50000000E+00  8.00000000E-01  8.00000000E-01  1.50000000E+00
  1.50000000E+00  8.00000000E-01  8.00000000E-01  1.50000000E+00  1.50000000E+00
  8.00000000E-01  8.00000000E-01  1.50000000E+00  1.50000000E+00  8.00000000E-01
  8.00000000E-01  1.50000000E+00  1.50000000E+00  8.00000000E-01  8.00000000E-01
  1.50000000E+00  1.50000000E+00  8.00000000E-01  8.00000000E-01  1.50000000E+00
  1.50000000E+00  8.00000000E-01  8.00000000E-01  1.50000000E+00  1.50000000E+00
  8.00000000E-01  8.00000000E-01  1.50000000E+00  1.50000000E+00  8.00000000E-01
  8.00000000E-01  1.50000000E+00  1.50000000E+00  8.00000000E-01  8.00000000E-01
  1.50000000E+00  1.50000000E+00  8.00000000E-01  8.00000000E-01  1.50000000E+00
  1.50000000E+00  8.00000000E-01  8.00000000E-01  1.50000000E+00  1.50000000E+00
  8.00000000E-01  8.00000000E-01  1.50000000E+00  1.50000000E+00  8.00000000E-01
  8.00000000E-01  1.50000000E+00  1.50000000E+00  8.00000000E-01  8.00000000E-01
  1.50000000E+00  1.50000000E+00  8.00000000E-01  8.00000000E-01  1.50000000E+00
  1.50000000E+00  8.00000000E-01  8.00000000E-01  1.50000000E+00  1.50000000E+00
  8.00000000E-01  8.00000000E-01  1.50000000E+00  1.50000000E+00  8.00000000E-01
  8.00000000E-01  1.50000000E+00  1.50000000E+00  8.00000000E-01  8.00000000E-01
  1.50000000E+00  1.50000000E+00  8.00000000E-01  8.00000000E-01  1.50000000E+00
  1.50000000E+00  8.00000000E-01  8.00000000E-01  1.50000000E+00  1.50000000E+00
  8.00000000E-01  8.00000000E-01  1.50000000E+00  1.50000000E+00  8.00000000E-01
  8.00000000E-01  1.50000000E+00  1.50000000E+00  8.00000000E-01  8.00000000E-01
  1.50000000E+00  1.50000000E+00  8.00000000E-01  8.00000000E-01  1.50000000E+00
  1.50000000E+00  8.00000000E-01  8.00000000E-01  1.50000000E+00  1.50000000E+00
  8.00000000E-01  8.00000000E-01  1.50000000E+00  1.50000000E+00  8.00000000E-01
  8.00000000E-01  1.50000000E+00  1.50000000E+00  8.00000000E-01  8.00000000E-01
  1.50000000E+00  1.50000000E+00  8.00000000E-01  8.00000000E-01  1.50000000E+00
  1.50000000E+00  8.00000000E-01  8.00000000E-01  1.50000000E+00  1.50000000E+00
  8.00000000E-01  8.00000000E-01  1.50000000E+00  1.50000000E+00  8.00000000E-01
  8.00000000E-01  1.50000000E+00  1.50000000E+00  8.00000000E-01  8.00000000E-01
  1.50000000E+00  1.50000000E+00  8.00000000E-01  8.00000000E-01  1.50000000E+00
  1.50000000E+00  8.00000000E-01  8.00000000E-01  1.50000000E+00  1.50000000E+00
  8.00000000E-01  8.00000000E-01  1.50000000E+00  1.50000000E+00  8.00000000E-01
  8.00000000E-01  1.50000000E+00  1.50000000E+00  8.00000000E-01  8.00000000E-01
  1.50000000E+00  1.50000000E+00  8.00000000E-01  8.00000000E-01  1.50000000E+00
  1.50000000E+00  8.00000000E-01  8.00000000E-01  1.50000000E+00  1.50000000E+00
  8.00000000E-01  8.00000000E-01  1.50000000E+00  1.50000000E+00  8.00000000E-01
  8.00000000E-01  1.50000000E+00  1.50000000E+00  8.00000000E-01  8.00000000E-01
  1.50000000E+00  1.50000000E+00  8.00000000E-01  8.00000000E-01  1.50000000E+00
  1.50000000E+00  8.00000000E-01  8.00000000E-01  1.50000000E+00  1.50000000E+00
  8.00000000E-01  8.00000000E-01  1.50000000E+00  1.50000000E+00  8.00000000E-01
  8.00000000E-01  1.50000000E+00  1.50000000E+00  8.00000000E-01  8.00000000E-01
  1.50000000E+00  1.50000000E+00  8.00000000E-01  8.00000000E-01  1.50000000E+00
  1.50000000E+00  8.00000000E-01  8.00000000E-01  1.50000000E+00  1.50000000E+00
  8.00000000E-01  8.00000000E-01  1.50000000E+00  1.50000000E+00  8.00000000E-01
  8.00000000E-01  1.50000000E+00  1.50000000E+00  8.00000000E-01  8.00000000E-01
  1.50000000E+00  1.50000000E+00  8.00000000E-01  8.00000000E-01  1.50000000E+00
  1.50000000E+00  8.00000000E-01  8.00000000E-01  1.50000000E+00  1.50000000E+00
  8.00000000E-01  8.00000000E-01  1.50000000E+00  1.50000000E+00  8.00000000E-01
  8.00000000E-01  1.50000000E+00  1.50000000E+00  8.00000000E-01  8.00000000E-01
  1.50000000E+00  1.50000000E+00  8.00000000E-01  8.00000000E-01  1.50000000E+00
  1.50000000E+00  8.00000000E-01  8.00000000E-01  1.50000000E+00  1.50000000E+00
  8.00000000E-01  8.00000000E-01  1.50000000E+00  1.50000000E+00  8.00000000E-01
  8.00000000E-01  1.50000000E+00  1.50000000E+00  8.00000000E-01  8.00000000E-01
  1.50000000E+00  1.50000000E+00  8.00000000E-01  8.00000000E-01  1.50000000E+00
  1.50000000E+00  8.00000000E-01  8.00000000E-01  1.50000000E+00  1.50000000E+00
  8.00000000E-01  8.00000000E-01  1.50000000E+00  1.50000000E+00  8.00000000E-01
  8.00000000E-01  1.50000000E+00  1.50000000E+00  8.00000000E-01  8.00000000E-01
  1.50000000E+00  1.50000000E+00  8.00000000E-01  8.00000000E-01  1.50000000E+00
  1.50000000E+00  8.00000000E-01  8.00000000E-01  1.50000000E+00  1.50000000E+00
  8.00000000E-01  8.00000000E-01  1.50000000E+00  1.50000000E+00  8.00000000E-01
  8.00000000E-01  1.50000000E+00  1.50000000E+00  8.00000000E-01  8.00000000E-01
  1.50000000E+00  1.50000000E+00  8.00000000E-01  8.00000000E-01  1.50000000E+00
  1.50000000E+00  8.00000000E-01  8.00000000E-01  1.50000000E+00  1.50000000E+00
  8.00000000E-01  8.00000000E-01  1.50000000E+00  1.50000000E+00  8.00000000E-01
  8.00000000E-01  1.50000000E+00  1.50000000E+00  8.00000000E-01  8.00000000E-01
  1.50000000E+00  1.50000000E+00  8.00000000E-01  8.00000000E-01  1.50000000E+00
  1.50000000E+00  8.00000000E-01  8.00000000E-01  1.50000000E+00  1.50000000E+00
  8.00000000E-01  8.00000000E-01  1.50000000E+00  1.50000000E+00  8.00000000E-01
  8.00000000E-01  1.50000000E+00  1.50000000E+00  8.00000000E-01  8.00000000E-01
  1.50000000E+00  1.50000000E+00  8.00000000E-01  8.00000000E-01  1.50000000E+00
  1.50000000E+00  8.00000000E-01  8.00000000E-01  1.50000000E+00  1.50000000E+00
  8.00000000E-01  8.00000000E-01  1.50000000E+00  1.50000000E+00  8.00000000E-01
  8.00000000E-01  1.50000000E+00  1.50000000E+00  8.00000000E-01  8.00000000E-01
  1.50000000E+00  1.50000000E+00  8.00000000E-01  8.00000000E-01  1.50000000E+00
  1.50000000E+00  8.00000000E-01  8.00000000E-01  1.50000000E+00  1.50000000E+00
  8.00000000E-01  8.00000000E-01  1.50000000E+00  1.50000000E+00  8.00000000E-01
  8.00000000E-01  1.50000000E+00  1.50000000E+00  8.00000000E-01  8.00000000E-01
  1.50000000E+00  1.50000000E+00  8.00000000E-01  8.00000000E-01  1.50000000E+00
  1.50000000E+00  8.00000000E-01  8.00000000E-01  1.50000000E+00  1.50000000E+00
  8.00000000E-01  8.00000000E-01  1.50000000E+00  1.50000000E+00  8.00000000E-01
  8.00000000E-01  1.50000000E+00  1.50000000E+00  8.00000000E-01  8.00000000E-01
  1.50000000E+00  1.50000000E+00  8.00000000E-01  8.00000000E-01  1.50000000E+00
  1.50000000E+00  8.00000000E-01  8.00000000E-01  1.50000000E+00  1.50000000E+00
  8.00000000E-01  8.00000000E-01  1.50000000E+00  1.50000000E+00  8.00000000E-01
  8.00000000E-01  1.50000000E+00  1.50000000E+00  8.00000000E-01  8.00000000E-01
  1.50000000E+00  1.50000000E+00  8.00000000E-01  8.00000000E-01  1.50000000E+00
  1.50000000E+00  8.00000000E-01  8.00000000E-01  1.50000000E+00  1.50000000E+00
  8.00000000E-01  8.00000000E-01  1.50000000E+00  1.50000000E+00  8.00000000E-01
  8.00000000E-01  1.50000000E+00  1.50000000E+00  8.00000000E-01  8.00000000E-01
  1.50000000E+00  1.50000000E+00  8.00000000E-01  8.00000000E-01  1.50000000E+00
  1.50000000E+00  8.00000000E-01  8.00000000E-01  1.50000000E+00  1.50000000E+00
  8.00000000E-01  8.00000000E-01  1.50000000E+00  1.50000000E+00  8.00000000E-01
  8.00000000E-01  1.50000000E+00  1.50000000E+00  8.00000000E-01  8.00000000E-01
  1.50000000E+00  1.50000000E+00  8.00000000E-01  8.00000000E-01  1.50000000E+00
  1.50000000E+00  8.00000000E-01  8.00000000E-01  1.50000000E+00  1.50000000E+00
  8.00000000E-01  8.00000000E-01  1.50000000E+00  1.50000000E+00  8.00000000E-01
  8.00000000E-01  1.50000000E+00  1.50000000E+00  8.00000000E-01  8.00000000E-01
  1.50000000E+00  1.50000000E+00  8.00000000E-01  8.00000000E-01  1.50000000E+00
  1.50000000E+00  8.00000000E-01  8.00000000E-01  1.50000000E+00  1.50000000E+00
  8.00000000E-01  8.00000000E-01  1.50000000E+00  1.50000000E+00  8.00000000E-01
  8.00000000E-01  1.50000000E+00  1.50000000E+00  8.00000000E-01  8.00000000E-01
  1.50000000E+00  1.50000000E+00  8.00000000E-01  8.00000000E-01  1.50000000E+00
  1.50000000E+00  8.00000000E-01  8.00000000E-01  1.50000000E+00  1.50000000E+00
  8.00000000E-01  8.00000000E-01  1.50000000E+00  1.50000000E+00  8.00000000E-01
  8.00000000E-01  1.50000000E+00  1.50000000E+00  8.00000000E-01  8.00000000E-01
  1.50000000E+00  1.50000000E+00  8.00000000E-01  8.00000000E-01  1.50000000E+00
  1.50000000E+00  8.00000000E-01  8.00000000E-01  1.50000000E+00  1.50000000E+00
  8.00000000E-01  8.00000000E-01  1.50000000E+00  1.50000000E+00  8.00000000E-01
  8.00000000E-01  1.50000000E+00  1.50000000E+00  8.00000000E-01  8.00000000E-01
  1.50000000E+00  1.50000000E+00  8.00000000E-01  8.00000000E-01  1.50000000E+00
  1.50000000E+00  8.00000000E-01  8.00000000E-01  1.50000000E+00  1.50000000E+00
  8.00000000E-01  8.00000000E-01  1.50000000E+00  1.50000000E+00  8.00000000E-01
  8.00000000E-01  1.50000000E+00  1.50000000E+00  8.00000000E-01  8.00000000E-01
  1.50000000E+00  1.50000000E+00  8.00000000E-01  8.00000000E-01  1.50000000E+00
  1.50000000E+00  8.00000000E-01  8.00000000E-01  1.50000000E+00  1.50000000E+00
  8.00000000E-01  8.00000000E-01  1.50000000E+00  1.50000000E+00  8.00000000E-01
  8.00000000E-01  1.50000000E+00  1.50000000E+00  8.00000000E-01  8.00000000E-01
  1.50000000E+00  1.50000000E+00  8.00000000E-01  8.00000000E-01  1.50000000E+00
  1.50000000E+00  8.00000000E-01  8.00000000E-01  1.50000000E+00  1.50000000E+00
  8.00000000E-01  8.00000000E-01  1.50000000E+00  1.50000000E+00  8.00000000E-01
  8.00000000E-01  1.50000000E+00  1.50000000E+00  8.00000000E-01  8.00000000E-01
  1.50000000E+00  1.50000000E+00  8.00000000E-01  8.00000000E-01  1.50000000E+00
  1.50000000E+00  8.00000000E-01  8.00000000E-01  1.50000000E+00  1.50000000E+00
  8.00000000E-01  8.00000000E-01  1.50000000E+00  1.50000000E+00  8.00000000E-01
  8.00000000E-01  1.50000000E+00  1.50000000E+00  8.00000000E-01  8.00000000E-01
  1.50000000E+00  1.50000000E+00  8.00000000E-01  8.00000000E-01  1.50000000E+00
  1.50000000E+00  8.00000000E-01  8.00000000E-01  1.50000000E+00  1.50000000E+00
  8.00000000E-01  8.00000000E-01  1.50000000E+00  1.50000000E+00  8.00000000E-01
  8.00000000E-01  1.50000000E+00  1.50000000E+00  8.00000000E-01  8.00000000E-01
  1.50000000E+00  1.50000000E+00  8.00000000E-01  8.00000000E-01  1.50000000E+00
  1.50000000E+00  8.00000000E-01  8.00000000E-01  1.50000000E+00  1.50000000E+00
  8.00000000E-01  8.00000000E-01  1.50000000E+00  1.50000000E+00  8.00000000E-01
  8.00000000E-01  1.50000000E+00  1.50000000E+00  8.00000000E-01  8.00000000E-01
  1.50000000E+00  1.50000000E+00  8.00000000E-01  8.00000000E-01  1.50000000E+00
  1.50000000E+00  8.00000000E-01  8.00000000E-01  1.50000000E+00  1.50000000E+00
  8.00000000E-01  8.00000000E-01  1.50000000E+00  1.50000000E+00  8.00000000E-01
  8.00000000E-01  1.50000000E+00  1.50000000E+00  8.00000000E-01  8.00000000E-01
  1.50000000E+00  1.50000000E+00  8.00000000E-01  8.00000000E-01  1.50000000E+00
  1.50000000E+00  8.00000000E-01  8.00000000E-01  1.50000000E+00  1.50000000E+00
  8.00000000E-01  8.00000000E-01  1.50000000E+00  1.50000000E+00  8.00000000E-01
  8.00000000E-01  1.50000000E+00  1.50000000E+00  8.00000000E-01  8.00000000E-01
  1.50000000E+00  1.50000000E+00  8.00000000E-01  8.00000000E-01  1.50000000E+00
  1.50000000E+00  8.00000000E-01  8.00000000E-01  1.50000000E+00  1.50000000E+00
  8.00000000E-01  8.00000000E-01  1.50000000E+00  1.50000000E+00  8.00000000E-01
  8.00000000E-01  1.50000000E+00  1.50000000E+00  8.00000000E-01  8.00000000E-01
  1.50000000E+00  1.50000000E+00  8.00000000E-01  8.00000000E-01  1.50000000E+00
  1.50000000E+00  8.00000000E-01  8.00000000E-01  1.50000000E+00  1.50000000E+00
  8.00000000E-01  8.00000000E-01  1.50000000E+00  1.50000000E+00  8.00000000E-01
  8.00000000E-01  1.50000000E+00  1.50000000E+00  8.00000000E-01  8.00000000E-01
  1.50000000E+00  1.50000000E+00  8.00000000E-01  8.00000000E-01  1.50000000E+00
  1.50000000E+00  8.00000000E-01  8.00000000E-01  1.50000000E+00  1.50000000E+00
  8.00000000E-01  8.00000000E-01  1.50000000E+00  1.50000000E+00  8.00000000E-01
  8.00000000E-01  1.50000000E+00  1.50000000E+00  8.00000000E-01  8.00000000E-01
  1.50000000E+00  1.50000000E+00  8.00000000E-01  8.00000000E-01  1.50000000E+00
  1.50000000E+00  8.00000000E-01  8.00000000E-01  1.50000000E+00  1.50000000E+00
  8.00000000E-01  8.00000000E-01  1.50000000E+00  1.50000000E+00  8.00000000E-01
  8.00000000E-01  1.50000000E+00  1.50000000E+00  8.00000000E-01  8.00000000E-01
  1.50000000E+00  1.50000000E+00  8.00000000E-01  8.00000000E-01  1.50000000E+00
  1.50000000E+00  8.00000000E-01  8.00000000E-01  1.50000000E+00  1.50000000E+00
  8.00000000E-01  8.00000000E-01  1.50000000E+00  1.50000000E+00  8.00000000E-01
  8.00000000E-01  1.50000000E+00  1.50000000E+00  8.00000000E-01  8.00000000E-01
  1.50000000E+00  1.50000000E+00  8.00000000E-01  8.00000000E-01  1.50000000E+00
  1.50000000E+00  8.00000000E-01  8.00000000E-01  1.50000000E+00  1.50000000E+00
  8.00000000E-01  8.00000000E-01  1.50000000E+00  1.50000000E+00  8.00000000E-01
  8.00000000E-01  1.50000000E+00  1.50000000E+00  8.00000000E-01  8.00000000E-01
  1.50000000E+00  1.50000000E+00  8.00000000E-01  8.00000000E-01  1.50000000E+00
  1.50000000E+00  8.00000000E-01  8.00000000E-01  1.50000000E+00  1.50000000E+00
  8.00000000E-01  8.00000000E-01  1.50000000E+00  1.50000000E+00  8.00000000E-01
  8.00000000E-01  1.50000000E+00  1.50000000E+00  8.00000000E-01  8.00000000E-01
  1.50000000E+00  1.50000000E+00  8.00000000E-01  8.00000000E-01  1.50000000E+00
  1.50000000E+00  8.00000000E-01  8.00000000E-01  1.50000000E+00  1.50000000E+00
  8.00000000E-01  8.00000000E-01  1.50000000E+00  1.50000000E+00  8.00000000E-01
  8.00000000E-01  1.50000000E+00  1.50000000E+00  8.00000000E-01  8.00000000E-01
  1.50000000E+00  1.50000000E+00  8.00000000E-01  8.00000000E-01  1.50000000E+00
  1.50000000E+00  8.00000000E-01  8.00000000E-01  1.50000000E+00  1.50000000E+00
  8.00000000E-01  8.00000000E-01  1.50000000E+00  1.50000000E+00  8.00000000E-01
  8.00000000E-01  1.50000000E+00  1.50000000E+00  8.00000000E-01  8.00000000E-01
  1.50000000E+00  1.50000000E+00  8.00000000E-01  8.00000000E-01  1.50000000E+00
  1.50000000E+00  8.00000000E-01  8.00000000E-01  1.50000000E+00  1.50000000E+00
  8.00000000E-01  8.00000000E-01  1.50000000E+00  1.50000000E+00  8.00000000E-01
  8.00000000E-01  1.50000000E+00  1.50000000E+00  8.00000000E-01  8.00000000E-01
  1.50000000E+00  1.50000000E+00  8.00000000E-01  8.00000000E-01  1.50000000E+00
  1.50000000E+00  8.00000000E-01  8.00000000E-01  1.50000000E+00  1.50000000E+00
  8.00000000E-01  8.00000000E-01  1.50000000E+00  1.50000000E+00  8.00000000E-01
  8.00000000E-01  1.50000000E+00  1.50000000E+00  8.00000000E-01  8.00000000E-01
  1.50000000E+00  1.50000000E+00  8.00000000E-01  8.00000000E-01  1.50000000E+00
  1.50000000E+00  8.00000000E-01  8.00000000E-01  1.50000000E+00  1.50000000E+00
  8.00000000E-01  8.00000000E-01  1.50000000E+00  1.50000000E+00  8.00000000E-01
  8.00000000E-01  1.50000000E+00  1.50000000E+00  8.00000000E-01  8.00000000E-01
  1.50000000E+00  1.50000000E+00  8.00000000E-01  8.00000000E-01  1.50000000E+00
  1.50000000E+00  8.00000000E-01  8.00000000E-01  1.50000000E+00  1.50000000E+00
  8.00000000E-01  8.00000000E-01  1.50000000E+00  1.50000000E+00  8.00000000E-01
  8.00000000E-01  1.50000000E+00  1.50000000E+00  8.00000000E-01  8.00000000E-01
  1.50000000E+00  1.50000000E+00  8.00000000E-01  8.00000000E-01  1.50000000E+00
  1.50000000E+00  8.00000000E-01  8.00000000E-01  1.50000000E+00  1.50000000E+00
  8.00000000E-01  8.00000000E-01  1.50000000E+00  1.50000000E+00  8.00000000E-01
  8.00000000E-01  1.50000000E+00  1.50000000E+00  8.00000000E-01  8.00000000E-01
  1.50000000E+00  1.50000000E+00  8.00000000E-01  8.00000000E-01  1.50000000E+00
  1.50000000E+00  8.00000000E-01  8.00000000E-01  1.50000000E+00  1.50000000E+00
  8.00000000E-01  8.00000000E-01  1.50000000E+00  1.50000000E+00  8.00000000E-01
  8.00000000E-01  1.50000000E+00  1.50000000E+00  8.00000000E-01  8.00000000E-01
  1.50000000E+00  1.50000000E+00  8.00000000E-01  8.00000000E-01  1.50000000E+00
  1.50000000E+00  8.00000000E-01  8.00000000E-01  1.50000000E+00  1.50000000E+00
  8.00000000E-01  8.00000000E-01  1.50000000E+00  1.50000000E+00  8.00000000E-01
  8.00000000E-01  1.50000000E+00  1.50000000E+00  8.00000000E-01  8.00000000E-01
  1.50000000E+00  1.50000000E+00  8.00000000E-01  8.00000000E-01  1.50000000E+00
  1.50000000E+00  8.00000000E-01  8.00000000E-01  1.50000000E+00  1.50000000E+00
  8.00000000E-01  8.00000000E-01  1.50000000E+00  1.50000000E+00  8.00000000E-01
  8.00000000E-01  1.50000000E+00  1.50000000E+00  8.00000000E-01  8.00000000E-01
  1.50000000E+00  1.50000000E+00  8.00000000E-01  8.00000000E-01  1.50000000E+00
  1.50000000E+00  8.00000000E-01  8.00000000E-01  1.50000000E+00  1.50000000E+00
  8.00000000E-01  8.00000000E-01  1.50000000E+00  1.50000000E+00  8.00000000E-01
  8.00000000E-01  1.50000000E+00  1.50000000E+00  8.00000000E-01  8.00000000E-01
  1.50000000E+00  1.50000000E+00  8.00000000E-01  8.00000000E-01  1.50000000E+00
  1.50000000E+00  8.00000000E-01  8.00000000E-01  1.50000000E+00  1.50000000E+00
  8.00000000E-01  8.00000000E-01  1.50000000E+00  1.50000000E+00  8.00000000E-01
  8.00000000E-01  1.50000000E+00  1.50000000E+00  8.00000000E-01  8.00000000E-01
  1.50000000E+00  1.50000000E+00  8.00000000E-01  8.00000000E-01  1.50000000E+00
  1.50000000E+00  8.00000000E-01  8.00000000E-01  1.50000000E+00  1.50000000E+00
  8.00000000E-01  8.00000000E-01  1.50000000E+00  1.50000000E+00  8.00000000E-01
  8.00000000E-01  1.50000000E+00  1.50000000E+00  8.00000000E-01  8.00000000E-01
  1.50000000E+00  1.50000000E+00  8.00000000E-01  8.00000000E-01  1.50000000E+00
  1.50000000E+00  8.00000000E-01  8.00000000E-01  1.50000000E+00  1.50000000E+00
  8.00000000E-01  8.00000000E-01  1.50000000E+00  1.50000000E+00  8.00000000E-01
  8.00000000E-01  1.50000000E+00  1.50000000E+00  8.00000000E-01  8.00000000E-01
  1.50000000E+00  1.50000000E+00  8.00000000E-01  8.00000000E-01  1.50000000E+00
  1.50000000E+00  8.00000000E-01  8.00000000E-01  1.50000000E+00  1.50000000E+00
  8.00000000E-01  8.00000000E-01  1.50000000E+00  1.50000000E+00  8.00000000E-01
  8.00000000E-01  1.50000000E+00  1.50000000E+00  8.00000000E-01  8.00000000E-01
  1.50000000E+00  1.50000000E+00  8.00000000E-01  8.00000000E-01  1.50000000E+00
  1.50000000E+00  8.00000000E-01  8.00000000E-01  1.50000000E+00  1.50000000E+00
  8.00000000E-01  8.00000000E-01  1.50000000E+00  1.50000000E+00  8.00000000E-01
  8.00000000E-01  1.50000000E+00  1.50000000E+00  8.00000000E-01  8.00000000E-01
  1.50000000E+00  1.50000000E+00  8.00000000E-01  8.00000000E-01  1.50000000E+00
  1.50000000E+00  8.00000000E-01  8.00000000E-01  1.50000000E+00  1.50000000E+00
  8.00000000E-01  8.00000000E-01  1.50000000E+00  1.50000000E+00  8.00000000E-01
  8.00000000E-01  1.50000000E+00  1.50000000E+00  8.00000000E-01  8.00000000E-01
  1.50000000E+00  1.50000000E+00  8.00000000E-01  8.00000000E-01  1.50000000E+00
  1.50000000E+00  8.00000000E-01  8.00000000E-01  1.50000000E+00  1.50000000E+00
  8.00000000E-01  8.00000000E-01  1.50000000E+00  1.50000000E+00  8.00000000E-01
  8.00000000E-01  1.50000000E+00  1.50000000E+00  8.00000000E-01  8.00000000E-01
  1.50000000E+00  1.50000000E+00  8.00000000E-01  8.00000000E-01  1.50000000E+00
  1.50000000E+00  8.00000000E-01  8.00000000E-01  1.50000000E+00  1.50000000E+00
  8.00000000E-01  8.00000000E-01  1.50000000E+00  1.50000000E+00  8.00000000E-01
  8.00000000E-01  1.50000000E+00  1.50000000E+00  8.00000000E-01  8.00000000E-01
  1.50000000E+00  1.50000000E+00  8.00000000E-01  8.00000000E-01  1.50000000E+00
  1.50000000E+00  8.00000000E-01  8.00000000E-01  1.50000000E+00  1.50000000E+00
  8.00000000E-01  8.00000000E-01  1.50000000E+00  1.50000000E+00  8.00000000E-01
  8.00000000E-01  1.50000000E+00  1.50000000E+00  8.00000000E-01  8.00000000E-01
  1.50000000E+00  1.50000000E+00  8.00000000E-01  8.00000000E-01  1.50000000E+00
  1.50000000E+00  8.00000000E-01  8.00000000E-01  1.50000000E+00  1.50000000E+00
  8.00000000E-01  8.00000000E-01  1.50000000E+00  1.50000000E+00  8.00000000E-01
  8.00000000E-01  1.50000000E+00  1.50000000E+00  8.00000000E-01  8.00000000E-01
  1.50000000E+00  1.50000000E+00  8.00000000E-01  8.00000000E-01  1.50000000E+00
  1.50000000E+00  8.00000000E-01  8.00000000E-01  1.50000000E+00  1.50000000E+00
  8.00000000E-01  8.00000000E-01  1.50000000E+00  1.50000000E+00  8.00000000E-01
  8.00000000E-01  1.50000000E+00  1.50000000E+00  8.00000000E-01  8.00000000E-01
  1.50000000E+00  1.50000000E+00  8.00000000E-01  8.00000000E-01  1.50000000E+00
  1.50000000E+00  8.00000000E-01  8.00000000E-01  1.50000000E+00  1.50000000E+00
  8.00000000E-01  8.00000000E-01  1.50000000E+00  1.50000000E+00  8.00000000E-01
  8.00000000E-01  1.50000000E+00  1.50000000E+00  8.00000000E-01  8.00000000E-01
  1.50000000E+00  1.50000000E+00  8.00000000E-01  8.00000000E-01  1.50000000E+00
  1.50000000E+00  8.00000000E-01  8.00000000E-01  1.50000000E+00  1.50000000E+00
  8.00000000E-01  8.00000000E-01  1.50000000E+00  1.50000000E+00  8.00000000E-01
  8.00000000E-01  1.50000000E+00  1.50000000E+00  8.00000000E-01  8.00000000E-01
  1.50000000E+00  1.50000000E+00  8.00000000E-01  8.00000000E-01  1.50000000E+00
  1.50000000E+00  8.00000000E-01  8.00000000E-01  1.50000000E+00  1.50000000E+00
  8.00000000E-01  8.00000000E-01  1.50000000E+00  1.50000000E+00  8.00000000E-01
  8.00000000E-01  1.50000000E+00  1.50000000E+00  8.00000000E-01  8.00000000E-01
  1.50000000E+00  1.50000000E+00  8.00000000E-01  8.00000000E-01  1.50000000E+00
  1.50000000E+00  8.00000000E-01  8.00000000E-01  1.50000000E+00  1.50000000E+00
  8.00000000E-01  8.00000000E-01  1.50000000E+00  1.50000000E+00  8.00000000E-01
  8.00000000E-01  1.50000000E+00  1.50000000E+00  8.00000000E-01  8.00000000E-01
  1.50000000E+00  1.50000000E+00  8.00000000E-01  8.00000000E-01  1.50000000E+00
  1.50000000E+00  8.00000000E-01  8.00000000E-01  1.50000000E+00  1.50000000E+00
  8.00000000E-01  8.00000000E-01  1.50000000E+00  1.50000000E+00  8.00000000E-01
  8.00000000E-01  1.50000000E+00  1.50000000E+00  8.00000000E-01  8.00000000E-01
  1.50000000E+00  1.50000000E+00  8.00000000E-01  8.00000000E-01  1.50000000E+00
  1.50000000E+00  8.00000000E-01  8.00000000E-01  1.50000000E+00  1.50000000E+00
  8.00000000E-01  8.00000000E-01  1.50000000E+00  1.50000000E+00  8.00000000E-01
  8.00000000E-01  1.50000000E+00  1.50000000E+00  8.00000000E-01  8.00000000E-01
  1.50000000E+00  1.50000000E+00  8.00000000E-01  8.00000000E-01  1.50000000E+00
  1.50000000E+00  8.00000000E-01  8.00000000E-01  1.50000000E+00  1.50000000E+00
  8.00000000E-01  8.00000000E-01  1.50000000E+00  1.50000000E+00  8.00000000E-01
  8.00000000E-01  1.50000000E+00  1.50000000E+00  8.00000000E-01  8.00000000E-01
  1.50000000E+00  1.50000000E+00  8.00000000E-01  8.00000000E-01  1.50000000E+00
  1.50000000E+00  8.00000000E-01  8.00000000E-01  1.50000000E+00  1.50000000E+00
  8.00000000E-01  8.00000000E-01  1.50000000E+00  1.50000000E+00  8.00000000E-01
  8.00000000E-01  1.50000000E+00  1.50000000E+00  8.00000000E-01  8.00000000E-01
  1.50000000E+00  1.50000000E+00  8.00000000E-01  8.00000000E-01  1.50000000E+00
  1.50000000E+00  8.00000000E-01  8.00000000E-01  1.50000000E+00  1.50000000E+00
  8.00000000E-01  8.00000000E-01  1.50000000E+00  1.50000000E+00  8.00000000E-01
  8.00000000E-01  1.50000000E+00  1.50000000E+00  8.00000000E-01  8.00000000E-01
  1.50000000E+00  1.50000000E+00  8.00000000E-01  8.00000000E-01  1.50000000E+00
  1.50000000E+00  8.00000000E-01  8.00000000E-01  1.50000000E+00  1.50000000E+00
  8.00000000E-01  8.00000000E-01  1.50000000E+00  1.50000000E+00  8.00000000E-01
  8.00000000E-01  1.50000000E+00  1.50000000E+00  8.00000000E-01  8.00000000E-01
  1.50000000E+00  1.50000000E+00  8.00000000E-01  8.00000000E-01  1.50000000E+00
  1.50000000E+00  8.00000000E-01  8.00000000E-01  1.50000000E+00  1.50000000E+00
  8.00000000E-01  8.00000000E-01  1.50000000E+00  1.50000000E+00  8.00000000E-01
  8.00000000E-01  1.50000000E+00  1.50000000E+00  8.00000000E-01  8.00000000E-01
  1.50000000E+00  1.50000000E+00  8.00000000E-01  8.00000000E-01  1.50000000E+00
  1.50000000E+00  8.00000000E-01  8.00000000E-01  1.50000000E+00  1.50000000E+00
  8.00000000E-01  8.00000000E-01  1.50000000E+00  1.50000000E+00  8.00000000E-01
  8.00000000E-01  1.50000000E+00  1.50000000E+00  8.00000000E-01  8.00000000E-01
  1.50000000E+00  1.50000000E+00  8.00000000E-01  8.00000000E-01  1.50000000E+00
  1.50000000E+00  8.00000000E-01  8.00000000E-01  1.50000000E+00  1.50000000E+00
  8.00000000E-01  8.00000000E-01  1.50000000E+00  1.50000000E+00  8.00000000E-01
  8.00000000E-01  1.50000000E+00  1.50000000E+00  8.00000000E-01  8.00000000E-01
  1.50000000E+00  1.50000000E+00  8.00000000E-01  8.00000000E-01  1.50000000E+00
  1.50000000E+00  8.00000000E-01  8.00000000E-01  1.50000000E+00  1.50000000E+00
  8.00000000E-01  8.00000000E-01  1.50000000E+00  1.50000000E+00  8.00000000E-01
  8.00000000E-01  1.50000000E+00  1.50000000E+00  8.00000000E-01  8.00000000E-01
  1.50000000E+00  1.50000000E+00  8.00000000E-01  8.00000000E-01  1.50000000E+00
  1.50000000E+00  8.00000000E-01  8.00000000E-01  1.50000000E+00  1.50000000E+00
  8.00000000E-01  8.00000000E-01  1.50000000E+00  1.50000000E+00  8.00000000E-01
  8.00000000E-01  1.50000000E+00  1.50000000E+00  8.00000000E-01  8.00000000E-01
  1.50000000E+00  1.50000000E+00  8.00000000E-01  8.00000000E-01  1.50000000E+00
  1.50000000E+00  8.00000000E-01  8.00000000E-01  1.50000000E+00  1.50000000E+00
  8.00000000E-01  8.00000000E-01  1.50000000E+00  1.50000000E+00  8.00000000E-01
  8.00000000E-01  1.50000000E+00  1.50000000E+00  8.00000000E-01  8.00000000E-01
  1.50000000E+00  1.50000000E+00  8.00000000E-01  8.00000000E-01  1.50000000E+00
  1.50000000E+00  8.00000000E-01  8.00000000E-01  1.50000000E+00  1.50000000E+00
  8.00000000E-01  8.00000000E-01  1.50000000E+00  1.50000000E+00  8.00000000E-01
  8.00000000E-01  1.50000000E+00  1.50000000E+00  8.00000000E-01  8.00000000E-01
  1.50000000E+00  1.50000000E+00  8.00000000E-01  8.00000000E-01  1.50000000E+00
  1.50000000E+00  8.00000000E-01  8.00000000E-01  1.50000000E+00  1.50000000E+00
  8.00000000E-01  8.00000000E-01  1.50000000E+00  1.50000000E+00  8.00000000E-01
  8.00000000E-01  1.50000000E+00  1.50000000E+00  8.00000000E-01  8.00000000E-01
  1.50000000E+00  1.50000000E+00  8.00000000E-01  8.00000000E-01  1.50000000E+00
  1.50000000E+00  8.00000000E-01  8.00000000E-01  1.50000000E+00  1.50000000E+00
  8.00000000E-01  8.00000000E-01  1.50000000E+00  1.50000000E+00  8.00000000E-01
  8.00000000E-01  1.50000000E+00  1.50000000E+00  8.00000000E-01  8.00000000E-01
  1.50000000E+00  1.50000000E+00  8.00000000E-01  8.00000000E-01  1.50000000E+00
  1.50000000E+00  8.00000000E-01  8.00000000E-01  1.50000000E+00  1.50000000E+00
  8.00000000E-01  8.00000000E-01  1.50000000E+00  1.50000000E+00  8.00000000E-01
  8.00000000E-01  1.50000000E+00  1.50000000E+00  8.00000000E-01  8.00000000E-01
  1.50000000E+00  1.50000000E+00  8.00000000E-01  8.00000000E-01  1.50000000E+00
  1.50000000E+00  8.00000000E-01  8.00000000E-01  1.50000000E+00  1.50000000E+00
  8.00000000E-01  8.00000000E-01  1.50000000E+00  1.50000000E+00  8.00000000E-01
  8.00000000E-01  1.50000000E+00  1.50000000E+00  8.00000000E-01  8.00000000E-01
  1.50000000E+00  1.50000000E+00  8.00000000E-01  8.00000000E-01  1.50000000E+00
  1.50000000E+00  8.00000000E-01  8.00000000E-01  1.50000000E+00  1.50000000E+00
  8.00000000E-01  8.00000000E-01  1.50000000E+00  1.50000000E+00  8.00000000E-01
  8.00000000E-01  1.50000000E+00  1.50000000E+00  8.00000000E-01  8.00000000E-01
  1.50000000E+00  1.50000000E+00  8.00000000E-01  8.00000000E-01  1.50000000E+00
  1.50000000E+00  8.00000000E-01  8.00000000E-01  1.50000000E+00  1.50000000E+00
  8.00000000E-01  8.00000000E-01  1.50000000E+00  1.50000000E+00  8.00000000E-01
  8.00000000E-01  1.50000000E+00  1.50000000E+00  8.00000000E-01  8.00000000E-01
  1.50000000E+00  1.50000000E+00  8.00000000E-01  8.00000000E-01  1.50000000E+00
  1.50000000E+00  8.00000000E-01  8.00000000E-01  1.50000000E+00  1.50000000E+00
  8.00000000E-01  8.00000000E-01  1.50000000E+00  1.50000000E+00  8.00000000E-01
  8.00000000E-01  1.50000000E+00  1.50000000E+00  8.00000000E-01  8.00000000E-01
  1.50000000E+00  1.50000000E+00  8.00000000E-01  8.00000000E-01  1.50000000E+00
  1.50000000E+00  8.00000000E-01  8.00000000E-01  1.50000000E+00  1.50000000E+00
  8.00000000E-01  8.00000000E-01  1.50000000E+00  1.50000000E+00  8.00000000E-01
  8.00000000E-01  1.50000000E+00  1.50000000E+00  8.00000000E-01  8.00000000E-01
  1.50000000E+00  1.50000000E+00  8.00000000E-01  8.00000000E-01  1.50000000E+00
  1.50000000E+00  8.00000000E-01  8.00000000E-01  1.50000000E+00  1.50000000E+00
  8.00000000E-01  8.00000000E-01  1.50000000E+00  1.50000000E+00  8.00000000E-01
  8.00000000E-01  1.50000000E+00  1.50000000E+00  8.00000000E-01  8.00000000E-01
  1.50000000E+00  1.50000000E+00  8.00000000E-01  8.00000000E-01  1.50000000E+00
  1.50000000E+00  8.00000000E-01  8.00000000E-01  1.50000000E+00  1.50000000E+00
  8.00000000E-01  8.00000000E-01  1.50000000E+00  1.50000000E+00  8.00000000E-01
  8.00000000E-01  1.50000000E+00  1.50000000E+00  8.00000000E-01  8.00000000E-01
  1.50000000E+00  1.50000000E+00  8.00000000E-01  8.00000000E-01  1.50000000E+00
  1.50000000E+00  8.00000000E-01  8.00000000E-01  1.50000000E+00  1.50000000E+00
  8.00000000E-01  8.00000000E-01  1.50000000E+00  1.50000000E+00  8.00000000E-01
  8.00000000E-01  1.50000000E+00  1.50000000E+00  8.00000000E-01  8.00000000E-01
  1.50000000E+00  1.50000000E+00  8.00000000E-01  8.00000000E-01  1.50000000E+00
  1.50000000E+00  8.00000000E-01  8.00000000E-01  1.50000000E+00  1.50000000E+00
  8.00000000E-01  8.00000000E-01  1.50000000E+00  1.50000000E+00  8.00000000E-01
  8.00000000E-01  1.50000000E+00  1.50000000E+00  8.00000000E-01  8.00000000E-01
  1.50000000E+00  1.50000000E+00  8.00000000E-01  8.00000000E-01  1.50000000E+00
  1.50000000E+00  8.00000000E-01  8.00000000E-01  1.50000000E+00  1.50000000E+00
  8.00000000E-01  8.00000000E-01  1.50000000E+00  1.50000000E+00  8.00000000E-01
  8.00000000E-01  1.50000000E+00  1.50000000E+00  8.00000000E-01  8.00000000E-01
  1.50000000E+00  1.50000000E+00  8.00000000E-01  8.00000000E-01  1.50000000E+00
  1.50000000E+00  8.00000000E-01  8.00000000E-01  1.50000000E+00  1.50000000E+00
  8.00000000E-01  8.00000000E-01  1.50000000E+00  1.50000000E+00  8.00000000E-01
  8.00000000E-01  1.50000000E+00  1.50000000E+00  8.00000000E-01  8.00000000E-01
  1.50000000E+00  1.50000000E+00  8.00000000E-01  8.00000000E-01  1.50000000E+00
  1.50000000E+00  8.00000000E-01  8.00000000E-01  1.50000000E+00  1.50000000E+00
  8.00000000E-01  8.00000000E-01  1.50000000E+00  1.50000000E+00  8.00000000E-01
  8.00000000E-01  1.50000000E+00  1.50000000E+00  8.00000000E-01  8.00000000E-01
  1.50000000E+00  1.50000000E+00  8.00000000E-01  8.00000000E-01  1.50000000E+00
  1.50000000E+00  8.00000000E-01  8.00000000E-01  1.50000000E+00  1.50000000E+00
  8.00000000E-01  8.00000000E-01  1.50000000E+00  1.50000000E+00  8.00000000E-01
  8.00000000E-01  1.50000000E+00  1.50000000E+00  8.00000000E-01  8.00000000E-01
  1.50000000E+00  1.50000000E+00  8.00000000E-01  8.00000000E-01  1.50000000E+00
  1.50000000E+00  8.00000000E-01  8.00000000E-01  1.50000000E+00  1.50000000E+00
  8.00000000E-01  8.00000000E-01  1.50000000E+00  1.50000000E+00  8.00000000E-01
  8.00000000E-01  1.50000000E+00  1.50000000E+00  8.00000000E-01  8.00000000E-01
  1.50000000E+00  1.50000000E+00  8.00000000E-01  8.00000000E-01  1.50000000E+00
  1.50000000E+00  8.00000000E-01  8.00000000E-01  1.50000000E+00  1.50000000E+00
  8.00000000E-01  8.00000000E-01  1.50000000E+00  1.50000000E+00  8.00000000E-01
  8.00000000E-01  1.50000000E+00  1.50000000E+00  8.00000000E-01  8.00000000E-01
  1.50000000E+00  1.50000000E+00  8.00000000E-01  8.00000000E-01  1.50000000E+00
  1.50000000E+00  8.00000000E-01  8.00000000E-01  1.50000000E+00  1.50000000E+00
  8.00000000E-01  8.00000000E-01  1.50000000E+00  1.50000000E+00  8.00000000E-01
  8.00000000E-01  1.50000000E+00  1.50000000E+00  8.00000000E-01  8.00000000E-01
  1.50000000E+00  1.50000000E+00  8.00000000E-01  8.00000000E-01  1.50000000E+00
  1.50000000E+00  8.00000000E-01  8.00000000E-01  1.50000000E+00  1.50000000E+00
  8.00000000E-01  8.00000000E-01  1.50000000E+00  1.50000000E+00  8.00000000E-01
  8.00000000E-01  1.50000000E+00  1.50000000E+00  8.00000000E-01  8.00000000E-01
  1.50000000E+00  1.50000000E+00  8.00000000E-01  8.00000000E-01  1.50000000E+00
  1.50000000E+00  8.00000000E-01  8.00000000E-01  1.50000000E+00  1.50000000E+00
  8.00000000E-01  8.00000000E-01  1.50000000E+00  1.50000000E+00  8.00000000E-01
  8.00000000E-01  1.50000000E+00  1.50000000E+00  8.00000000E-01  8.00000000E-01
  1.50000000E+00  1.50000000E+00  8.00000000E-01  8.00000000E-01  1.50000000E+00
  1.50000000E+00  8.00000000E-01  8.00000000E-01  1.50000000E+00  1.50000000E+00
  8.00000000E-01  8.00000000E-01  1.50000000E+00  1.50000000E+00  8.00000000E-01
  8.00000000E-01  1.50000000E+00  1.50000000E+00  8.00000000E-01  8.00000000E-01
  1.50000000E+00  1.50000000E+00  8.00000000E-01  8.00000000E-01  1.50000000E+00
  1.50000000E+00  8.00000000E-01  8.00000000E-01  1.50000000E+00  1.50000000E+00
  8.00000000E-01  8.00000000E-01  1.50000000E+00  1.50000000E+00  8.00000000E-01
  8.00000000E-01  1.50000000E+00  1.50000000E+00  8.00000000E-01  8.00000000E-01
  1.50000000E+00  1.50000000E+00  8.00000000E-01  8.00000000E-01  1.50000000E+00
  1.50000000E+00  8.00000000E-01  8.00000000E-01  1.50000000E+00  1.50000000E+00
  8.00000000E-01  8.00000000E-01  1.50000000E+00  1.50000000E+00  8.00000000E-01
  8.00000000E-01  1.50000000E+00  1.50000000E+00  8.00000000E-01  8.00000000E-01
  1.50000000E+00  1.50000000E+00  8.00000000E-01  8.00000000E-01  1.50000000E+00
  1.50000000E+00  8.00000000E-01  8.00000000E-01  1.50000000E+00  1.50000000E+00
  8.00000000E-01  8.00000000E-01  1.50000000E+00  1.50000000E+00  8.00000000E-01
  8.00000000E-01  1.50000000E+00  1.50000000E+00  8.00000000E-01  8.00000000E-01
  1.50000000E+00  1.50000000E+00  8.00000000E-01  8.00000000E-01  1.50000000E+00
  1.50000000E+00  8.00000000E-01  8.00000000E-01  1.50000000E+00  1.50000000E+00
  8.00000000E-01  8.00000000E-01  1.50000000E+00  1.50000000E+00  8.00000000E-01
  8.00000000E-01  1.50000000E+00  1.50000000E+00  8.00000000E-01  8.00000000E-01
  1.50000000E+00  1.50000000E+00  8.00000000E-01  8.00000000E-01  1.50000000E+00
  1.50000000E+00  8.00000000E-01  8.00000000E-01  1.50000000E+00  1.50000000E+00
  8.00000000E-01  8.00000000E-01  1.50000000E+00  1.50000000E+00  8.00000000E-01
  8.00000000E-01  1.50000000E+00  1.50000000E+00  8.00000000E-01  8.00000000E-01
  1.50000000E+00  1.50000000E+00  8.00000000E-01  8.00000000E-01  1.50000000E+00
  1.50000000E+00  8.00000000E-01  8.00000000E-01  1.50000000E+00  1.50000000E+00
  8.00000000E-01  8.00000000E-01  1.50000000E+00  1.50000000E+00  8.00000000E-01
  8.00000000E-01  1.50000000E+00  1.50000000E+00  8.00000000E-01  8.00000000E-01
  1.50000000E+00  1.50000000E+00  8.00000000E-01  8.00000000E-01  1.50000000E+00
  1.50000000E+00  8.00000000E-01  8.00000000E-01  1.50000000E+00  1.50000000E+00
  8.00000000E-01  8.00000000E-01  1.50000000E+00  1.50000000E+00  8.00000000E-01
  8.00000000E-01  1.50000000E+00  1.50000000E+00  8.00000000E-01  8.00000000E-01
  1.50000000E+00  1.50000000E+00  8.00000000E-01  8.00000000E-01  1.50000000E+00
  1.50000000E+00  8.00000000E-01  8.00000000E-01  1.50000000E+00  1.50000000E+00
  8.00000000E-01  8.00000000E-01  1.50000000E+00  1.50000000E+00  8.00000000E-01
  8.00000000E-01  1.50000000E+00  1.50000000E+00  8.00000000E-01  8.00000000E-01
  1.50000000E+00  1.50000000E+00  8.00000000E-01  8.00000000E-01  1.50000000E+00
  1.50000000E+00  8.00000000E-01  8.00000000E-01  1.50000000E+00  1.50000000E+00
  8.00000000E-01  8.00000000E-01  1.50000000E+00  1.50000000E+00  8.00000000E-01
  8.00000000E-01  1.50000000E+00  1.50000000E+00  8.00000000E-01  8.00000000E-01
  1.50000000E+00  1.50000000E+00  8.00000000E-01  8.00000000E-01  1.50000000E+00
  1.50000000E+00  8.00000000E-01  8.00000000E-01  1.50000000E+00  1.50000000E+00
  8.00000000E-01  8.00000000E-01  1.50000000E+00  1.50000000E+00  8.00000000E-01
  8.00000000E-01  1.50000000E+00  1.50000000E+00  8.00000000E-01  8.00000000E-01
  1.50000000E+00  1.50000000E+00  8.00000000E-01  8.00000000E-01  1.50000000E+00
  1.50000000E+00  8.00000000E-01  8.00000000E-01  1.50000000E+00  1.50000000E+00
  8.00000000E-01  8.00000000E-01  1.50000000E+00  1.50000000E+00  8.00000000E-01
  8.00000000E-01  1.50000000E+00  1.50000000E+00  8.00000000E-01  8.00000000E-01
  1.50000000E+00  1.50000000E+00  8.00000000E-01  8.00000000E-01  1.50000000E+00
  1.50000000E+00  8.00000000E-01  8.00000000E-01  1.50000000E+00  1.50000000E+00
  8.00000000E-01  8.00000000E-01  1.50000000E+00  1.50000000E+00  8.00000000E-01
  8.00000000E-01  1.50000000E+00  1.50000000E+00  8.00000000E-01  8.00000000E-01
  1.50000000E+00  1.50000000E+00  8.00000000E-01  8.00000000E-01  1.50000000E+00
  1.50000000E+00  8.00000000E-01  8.00000000E-01  1.50000000E+00  1.50000000E+00
  8.00000000E-01  8.00000000E-01  1.50000000E+00  1.50000000E+00  8.00000000E-01
  8.00000000E-01  1.50000000E+00  1.50000000E+00  8.00000000E-01  8.00000000E-01
  1.50000000E+00  1.50000000E+00  8.00000000E-01  8.00000000E-01  1.50000000E+00
  1.50000000E+00  8.00000000E-01  8.00000000E-01  1.50000000E+00  1.50000000E+00
  8.00000000E-01  8.00000000E-01  1.50000000E+00  1.50000000E+00  8.00000000E-01
  8.00000000E-01  1.50000000E+00  1.50000000E+00  8.00000000E-01  8.00000000E-01
  1.50000000E+00  1.50000000E+00  8.00000000E-01  8.00000000E-01  1.50000000E+00
  1.50000000E+00  8.00000000E-01  8.00000000E-01  1.50000000E+00  1.50000000E+00
  8.00000000E-01  8.00000000E-01  1.50000000E+00  1.50000000E+00  8.00000000E-01
  8.00000000E-01  1.50000000E+00  1.50000000E+00  8.00000000E-01  8.00000000E-01
  1.50000000E+00  1.50000000E+00  8.00000000E-01  8.00000000E-01  1.50000000E+00
  1.50000000E+00  8.00000000E-01  8.00000000E-01  1.50000000E+00  1.50000000E+00
  8.00000000E-01  8.00000000E-01  1.50000000E+00  1.50000000E+00  8.00000000E-01
  8.00000000E-01  1.50000000E+00  1.50000000E+00  8.00000000E-01  8.00000000E-01
  1.50000000E+00  1.50000000E+00  8.00000000E-01  8.00000000E-01  1.50000000E+00
  1.50000000E+00  8.00000000E-01  8.00000000E-01  1.50000000E+00  1.50000000E+00
  8.00000000E-01  8.00000000E-01  1.50000000E+00  1.50000000E+00  8.00000000E-01
  8.00000000E-01  1.50000000E+00  1.50000000E+00  8.00000000E-01  8.00000000E-01
  1.50000000E+00  1.50000000E+00  8.00000000E-01  8.00000000E-01  1.50000000E+00
  1.50000000E+00  8.00000000E-01  8.00000000E-01  1.50000000E+00  1.50000000E+00
  8.00000000E-01  8.00000000E-01  1.50000000E+00  1.50000000E+00  8.00000000E-01
  8.00000000E-01  1.50000000E+00  1.50000000E+00  8.00000000E-01  8.00000000E-01
  1.50000000E+00  1.50000000E+00  8.00000000E-01  8.00000000E-01  1.50000000E+00
  1.50000000E+00  8.00000000E-01  8.00000000E-01  1.50000000E+00  1.50000000E+00
  8.00000000E-01  8.00000000E-01  1.50000000E+00  1.50000000E+00  8.00000000E-01
  8.00000000E-01  1.50000000E+00  1.50000000E+00  8.00000000E-01  8.00000000E-01
  1.50000000E+00  1.50000000E+00  8.00000000E-01  8.00000000E-01  1.50000000E+00
  1.50000000E+00  8.00000000E-01  8.00000000E-01  1.50000000E+00  1.50000000E+00
  8.00000000E-01  8.00000000E-01  1.50000000E+00  1.50000000E+00  8.00000000E-01
  8.00000000E-01  1.50000000E+00  1.50000000E+00  8.00000000E-01  8.00000000E-01
  1.50000000E+00  1.50000000E+00  8.00000000E-01  8.00000000E-01  1.50000000E+00
  1.50000000E+00  8.00000000E-01  8.00000000E-01  1.50000000E+00  1.50000000E+00
  8.00000000E-01  8.00000000E-01  1.50000000E+00  1.50000000E+00  8.00000000E-01
  8.00000000E-01  1.50000000E+00  1.50000000E+00  8.00000000E-01  8.00000000E-01
  1.50000000E+00  1.50000000E+00  8.00000000E-01  8.00000000E-01  1.50000000E+00
  1.50000000E+00  8.00000000E-01  8.00000000E-01  1.50000000E+00  1.50000000E+00
  8.00000000E-01  8.00000000E-01  1.50000000E+00  1.50000000E+00  8.00000000E-01
  8.00000000E-01  1.50000000E+00  1.50000000E+00  8.00000000E-01  8.00000000E-01
  1.50000000E+00  1.50000000E+00  8.00000000E-01  8.00000000E-01  1.50000000E+00
  1.50000000E+00  8.00000000E-01  8.00000000E-01  1.50000000E+00  1.50000000E+00
  8.00000000E-01  8.00000000E-01  1.50000000E+00  1.50000000E+00  8.00000000E-01
  8.00000000E-01  1.50000000E+00  1.50000000E+00  8.00000000E-01  8.00000000E-01
  1.50000000E+00  1.50000000E+00  8.00000000E-01  8.00000000E-01  1.50000000E+00
  1.50000000E+00  8.00000000E-01  8.00000000E-01  1.50000000E+00  1.50000000E+00
  8.00000000E-01  8.00000000E-01  1.50000000E+00  1.50000000E+00  8.00000000E-01
  8.00000000E-01  1.50000000E+00  1.50000000E+00  8.00000000E-01  8.00000000E-01
  1.50000000E+00  1.50000000E+00  8.00000000E-01  8.00000000E-01  1.50000000E+00
  1.50000000E+00  8.00000000E-01  8.00000000E-01  1.50000000E+00  1.50000000E+00
  8.00000000E-01  8.00000000E-01  1.50000000E+00  1.50000000E+00  8.00000000E-01
  8.00000000E-01  1.50000000E+00  1.50000000E+00  8.00000000E-01  8.00000000E-01
  1.50000000E+00  1.50000000E+00  8.00000000E-01  8.00000000E-01  1.50000000E+00
  1.50000000E+00  8.00000000E-01  8.00000000E-01  1.50000000E+00  1.50000000E+00
  8.00000000E-01  8.00000000E-01  1.50000000E+00  1.50000000E+00  8.00000000E-01
  8.00000000E-01  1.50000000E+00  1.50000000E+00  8.00000000E-01  8.00000000E-01
  1.50000000E+00  1.50000000E+00  8.00000000E-01  8.00000000E-01  1.50000000E+00
  1.50000000E+00  8.00000000E-01  8.00000000E-01  1.50000000E+00  1.50000000E+00
  8.00000000E-01  8.00000000E-01  1.50000000E+00  1.50000000E+00  8.00000000E-01
  8.00000000E-01  1.50000000E+00  1.50000000E+00  8.00000000E-01  8.00000000E-01
  1.50000000E+00  1.50000000E+00  8.00000000E-01  8.00000000E-01  1.50000000E+00
  1.50000000E+00  8.00000000E-01  8.00000000E-01  1.50000000E+00  1.50000000E+00
  8.00000000E-01  8.00000000E-01  1.50000000E+00  1.50000000E+00  8.00000000E-01
  8.00000000E-01  1.50000000E+00  1.50000000E+00  8.00000000E-01  8.00000000E-01
  1.50000000E+00  1.50000000E+00  8.00000000E-01  8.00000000E-01  1.50000000E+00
  1.50000000E+00  8.00000000E-01  8.00000000E-01  1.50000000E+00  1.50000000E+00
  8.00000000E-01  8.00000000E-01  1.50000000E+00  1.50000000E+00  8.00000000E-01
  8.00000000E-01  1.50000000E+00  1.50000000E+00  8.00000000E-01  8.00000000E-01
  1.50000000E+00  1.50000000E+00  8.00000000E-01  8.00000000E-01  1.50000000E+00
  1.50000000E+00  8.00000000E-01  8.00000000E-01  1.50000000E+00  1.50000000E+00
  8.00000000E-01  8.00000000E-01  1.50000000E+00  1.50000000E+00  8.00000000E-01
  8.00000000E-01  1.50000000E+00  1.50000000E+00  8.00000000E-01  8.00000000E-01
  1.50000000E+00  1.50000000E+00  8.00000000E-01  8.00000000E-01  1.50000000E+00
  1.50000000E+00  8.00000000E-01  8.00000000E-01  1.50000000E+00  1.50000000E+00
  8.00000000E-01  8.00000000E-01  1.50000000E+00  1.50000000E+00  8.00000000E-01
  8.00000000E-01  1.50000000E+00  1.50000000E+00  8.00000000E-01  8.00000000E-01
  1.50000000E+00  1.50000000E+00  8.00000000E-01  8.00000000E-01  1.50000000E+00
  1.50000000E+00  8.00000000E-01  8.00000000E-01  1.50000000E+00  1.50000000E+00
  8.00000000E-01  8.00000000E-01  1.50000000E+00  1.50000000E+00  8.00000000E-01
  8.00000000E-01  1.50000000E+00  1.50000000E+00  8.00000000E-01  8.00000000E-01
  1.50000000E+00  1.50000000E+00  8.00000000E-01  8.00000000E-01  1.50000000E+00
  1.50000000E+00  8.00000000E-01  8.00000000E-01  1.50000000E+00  1.50000000E+00
  8.00000000E-01  8.00000000E-01  1.50000000E+00  1.50000000E+00  8.00000000E-01
  8.00000000E-01  1.50000000E+00  1.50000000E+00  8.00000000E-01  8.00000000E-01
  1.50000000E+00  1.50000000E+00  8.00000000E-01  8.00000000E-01  1.50000000E+00
  1.50000000E+00  8.00000000E-01  8.00000000E-01  1.50000000E+00  1.50000000E+00
  8.00000000E-01  8.00000000E-01  1.50000000E+00  1.50000000E+00  8.00000000E-01
  8.00000000E-01  1.50000000E+00  1.50000000E+00  8.00000000E-01  8.00000000E-01
  1.50000000E+00  1.50000000E+00  8.00000000E-01  8.00000000E-01  1.50000000E+00
  1.50000000E+00  8.00000000E-01  8.00000000E-01  1.50000000E+00  1.50000000E+00
  8.00000000E-01  8.00000000E-01  1.50000000E+00  1.50000000E+00  8.00000000E-01
  8.00000000E-01  1.50000000E+00  1.50000000E+00  8.00000000E-01  8.00000000E-01
  1.50000000E+00  1.50000000E+00  8.00000000E-01  8.00000000E-01  1.50000000E+00
  1.50000000E+00  8.00000000E-01  8.00000000E-01  1.50000000E+00  1.50000000E+00
  8.00000000E-01  8.00000000E-01  1.50000000E+00  1.50000000E+00  8.00000000E-01
  8.00000000E-01  1.50000000E+00  1.50000000E+00  8.00000000E-01  8.00000000E-01
  1.50000000E+00  1.50000000E+00  8.00000000E-01  8.00000000E-01  1.50000000E+00
  1.50000000E+00  8.00000000E-01  8.00000000E-01  1.50000000E+00  1.50000000E+00
  8.00000000E-01  8.00000000E-01  1.50000000E+00  1.50000000E+00  8.00000000E-01
  8.00000000E-01  1.50000000E+00  1.50000000E+00  8.00000000E-01  8.00000000E-01
  1.50000000E+00  1.50000000E+00  8.00000000E-01  8.00000000E-01  1.50000000E+00
  1.50000000E+00  8.00000000E-01  8.00000000E-01  1.50000000E+00  1.50000000E+00
  8.00000000E-01  8.00000000E-01  1.50000000E+00  1.50000000E+00  8.00000000E-01
  8.00000000E-01  1.50000000E+00  1.50000000E+00  8.00000000E-01  8.00000000E-01
  1.50000000E+00  1.50000000E+00  8.00000000E-01  8.00000000E-01  1.50000000E+00
  1.50000000E+00  8.00000000E-01  8.00000000E-01  1.50000000E+00  1.50000000E+00
  8.00000000E-01  8.00000000E-01  1.50000000E+00  1.50000000E+00  8.00000000E-01
  8.00000000E-01  1.50000000E+00  1.50000000E+00  8.00000000E-01  8.00000000E-01
  1.50000000E+00  1.50000000E+00  8.00000000E-01  8.00000000E-01  1.50000000E+00
  1.50000000E+00  8.00000000E-01  8.00000000E-01  1.50000000E+00  1.50000000E+00
  8.00000000E-01  8.00000000E-01  1.50000000E+00  1.50000000E+00  8.00000000E-01
  8.00000000E-01  1.50000000E+00  1.50000000E+00  8.00000000E-01  8.00000000E-01
  1.50000000E+00  1.50000000E+00  8.00000000E-01  8.00000000E-01  1.50000000E+00
  1.50000000E+00  8.00000000E-01  8.00000000E-01  1.50000000E+00  1.50000000E+00
  8.00000000E-01  8.00000000E-01  1.50000000E+00  1.50000000E+00  8.00000000E-01
  8.00000000E-01  1.50000000E+00  1.50000000E+00  8.00000000E-01  8.00000000E-01
  1.50000000E+00  1.50000000E+00  8.00000000E-01  8.00000000E-01  1.50000000E+00
  1.50000000E+00  8.00000000E-01  8.00000000E-01  1.50000000E+00  1.50000000E+00
  8.00000000E-01  8.00000000E-01  1.50000000E+00  1.50000000E+00  8.00000000E-01
  8.00000000E-01  1.50000000E+00  1.50000000E+00  8.00000000E-01  8.00000000E-01
  1.50000000E+00  1.50000000E+00  8.00000000E-01  8.00000000E-01  1.50000000E+00
  1.50000000E+00  8.00000000E-01  8.00000000E-01  1.50000000E+00  1.50000000E+00
  8.00000000E-01  8.00000000E-01  1.50000000E+00  1.50000000E+00  8.00000000E-01
  8.00000000E-01  1.50000000E+00  1.50000000E+00  8.00000000E-01  8.00000000E-01
  1.50000000E+00  1.50000000E+00  8.00000000E-01  8.00000000E-01  1.50000000E+00
  1.50000000E+00  8.00000000E-01  8.00000000E-01  1.50000000E+00  1.50000000E+00
  8.00000000E-01  8.00000000E-01  1.50000000E+00  1.50000000E+00  8.00000000E-01
  8.00000000E-01  1.50000000E+00  1.50000000E+00  8.00000000E-01  8.00000000E-01
  1.50000000E+00  1.50000000E+00  8.00000000E-01  8.00000000E-01  1.50000000E+00
  1.50000000E+00  8.00000000E-01  8.00000000E-01  1.50000000E+00  1.50000000E+00
  8.00000000E-01  8.00000000E-01  1.50000000E+00  1.50000000E+00  8.00000000E-01
  8.00000000E-01  1.50000000E+00  1.50000000E+00  8.00000000E-01  8.00000000E-01
  1.50000000E+00  1.50000000E+00  8.00000000E-01  8.00000000E-01  1.50000000E+00
  1.50000000E+00  8.00000000E-01  8.00000000E-01  1.50000000E+00  1.50000000E+00
  8.00000000E-01  8.00000000E-01  1.50000000E+00  1.50000000E+00  8.00000000E-01
  8.00000000E-01  1.50000000E+00  1.50000000E+00  8.00000000E-01  8.00000000E-01
  1.50000000E+00  1.50000000E+00  8.00000000E-01  8.00000000E-01  1.50000000E+00
  1.50000000E+00  8.00000000E-01  8.00000000E-01  1.50000000E+00  1.50000000E+00
  8.00000000E-01  8.00000000E-01  1.50000000E+00  1.50000000E+00  8.00000000E-01
  8.00000000E-01  1.50000000E+00  1.50000000E+00  8.00000000E-01  8.00000000E-01
  1.50000000E+00  1.50000000E+00  8.00000000E-01  8.00000000E-01  1.50000000E+00
  1.50000000E+00  8.00000000E-01  8.00000000E-01  1.50000000E+00  1.50000000E+00
  8.00000000E-01  8.00000000E-01  1.50000000E+00  1.50000000E+00  8.00000000E-01
  8.00000000E-01  1.50000000E+00  1.50000000E+00  8.00000000E-01  8.00000000E-01
  1.50000000E+00  1.50000000E+00  8.00000000E-01  8.00000000E-01  1.50000000E+00
  1.50000000E+00  8.00000000E-01  8.00000000E-01  1.50000000E+00  1.50000000E+00
  8.00000000E-01  8.00000000E-01  1.50000000E+00  1.50000000E+00  8.00000000E-01
  8.00000000E-01  1.50000000E+00  1.50000000E+00  8.00000000E-01  8.00000000E-01
  1.50000000E+00  1.50000000E+00  8.00000000E-01  8.00000000E-01  1.50000000E+00
  1.50000000E+00  8.00000000E-01  8.00000000E-01  1.50000000E+00  1.50000000E+00
  8.00000000E-01  8.00000000E-01  1.50000000E+00  1.50000000E+00  8.00000000E-01
  8.00000000E-01  1.50000000E+00  1.50000000E+00  8.00000000E-01  8.00000000E-01
  1.50000000E+00  1.50000000E+00  8.00000000E-01  8.00000000E-01  1.50000000E+00
  1.50000000E+00  8.00000000E-01  8.00000000E-01  1.50000000E+00  1.50000000E+00
  8.00000000E-01  8.00000000E-01  1.50000000E+00  1.50000000E+00  8.00000000E-01
  8.00000000E-01  1.50000000E+00  1.50000000E+00  8.00000000E-01  8.00000000E-01
  1.50000000E+00  1.50000000E+00  8.00000000E-01  8.00000000E-01  1.50000000E+00
  1.50000000E+00  8.00000000E-01  8.00000000E-01  1.50000000E+00  1.50000000E+00
  8.00000000E-01  8.00000000E-01  1.50000000E+00  1.50000000E+00  8.00000000E-01
  8.00000000E-01  1.50000000E+00  1.50000000E+00  8.00000000E-01  8.00000000E-01
  1.50000000E+00  1.50000000E+00  8.00000000E-01  8.00000000E-01  1.50000000E+00
  1.50000000E+00  8.00000000E-01  8.00000000E-01  1.50000000E+00  1.50000000E+00
  8.00000000E-01  8.00000000E-01  1.50000000E+00  1.50000000E+00  8.00000000E-01
  8.00000000E-01  1.50000000E+00  1.50000000E+00  8.00000000E-01  8.00000000E-01
  1.50000000E+00  1.50000000E+00  8.00000000E-01  8.00000000E-01  1.50000000E+00
  1.50000000E+00  8.00000000E-01  8.00000000E-01  1.50000000E+00  1.50000000E+00
  8.00000000E-01  8.00000000E-01  1.50000000E+00  1.50000000E+00  8.00000000E-01
  8.00000000E-01  1.50000000E+00  1.50000000E+00  8.00000000E-01  8.00000000E-01
  1.50000000E+00  1.50000000E+00  8.00000000E-01  8.00000000E-01  1.50000000E+00
  1.50000000E+00  8.00000000E-01  8.00000000E-01  1.50000000E+00  1.50000000E+00
  8.00000000E-01  8.00000000E-01  1.50000000E+00  1.50000000E+00  8.00000000E-01
  8.00000000E-01  1.50000000E+00  1.50000000E+00  8.00000000E-01  8.00000000E-01
  1.50000000E+00  1.50000000E+00  8.00000000E-01  8.00000000E-01  1.50000000E+00
  1.50000000E+00  8.00000000E-01  8.00000000E-01  1.50000000E+00  1.50000000E+00
  8.00000000E-01  8.00000000E-01  1.50000000E+00  1.50000000E+00  8.00000000E-01
  8.00000000E-01  1.50000000E+00  1.50000000E+00  8.00000000E-01  8.00000000E-01
  1.50000000E+00  1.50000000E+00  8.00000000E-01  8.00000000E-01  1.50000000E+00
  1.50000000E+00  8.00000000E-01  8.00000000E-01  1.50000000E+00  1.50000000E+00
  8.00000000E-01  8.00000000E-01  1.50000000E+00  1.50000000E+00  8.00000000E-01
  8.00000000E-01  1.50000000E+00  1.50000000E+00  8.00000000E-01  8.00000000E-01
  1.50000000E+00  1.50000000E+00  8.00000000E-01  8.00000000E-01  1.50000000E+00
  1.50000000E+00  8.00000000E-01  8.00000000E-01  1.50000000E+00  1.50000000E+00
  8.00000000E-01  8.00000000E-01  1.50000000E+00  1.50000000E+00  8.00000000E-01
  8.00000000E-01  1.50000000E+00  1.50000000E+00  8.00000000E-01  8.00000000E-01
  1.50000000E+00  1.50000000E+00  8.00000000E-01  8.00000000E-01  1.50000000E+00
  1.50000000E+00  8.00000000E-01  8.00000000E-01  1.50000000E+00  1.50000000E+00
  8.00000000E-01  8.00000000E-01  1.50000000E+00  1.50000000E+00  8.00000000E-01
  8.00000000E-01  1.50000000E+00  1.50000000E+00  8.00000000E-01  8.00000000E-01
  1.50000000E+00  1.50000000E+00  8.00000000E-01  8.00000000E-01  1.50000000E+00
  1.50000000E+00  8.00000000E-01  8.00000000E-01  1.50000000E+00  1.50000000E+00
  8.00000000E-01  8.00000000E-01  1.50000000E+00  1.50000000E+00  8.00000000E-01
  8.00000000E-01  1.50000000E+00  1.50000000E+00  8.00000000E-01  8.00000000E-01
  1.50000000E+00  1.50000000E+00  8.00000000E-01  8.00000000E-01  1.50000000E+00
  1.50000000E+00  8.00000000E-01  8.00000000E-01  1.50000000E+00  1.50000000E+00
  8.00000000E-01  8.00000000E-01  1.50000000E+00  1.50000000E+00  8.00000000E-01
  8.00000000E-01  1.50000000E+00  1.50000000E+00  8.00000000E-01  8.00000000E-01
  1.50000000E+00  1.50000000E+00  8.00000000E-01  8.00000000E-01  1.50000000E+00
  1.50000000E+00  8.00000000E-01  8.00000000E-01  1.50000000E+00  1.50000000E+00
  8.00000000E-01  8.00000000E-01  1.50000000E+00  1.50000000E+00  8.00000000E-01
  8.00000000E-01  1.50000000E+00  1.50000000E+00  8.00000000E-01  8.00000000E-01
  1.50000000E+00  1.50000000E+00  8.00000000E-01  8.00000000E-01  1.50000000E+00
  1.50000000E+00  8.00000000E-01  8.00000000E-01  1.50000000E+00  1.50000000E+00
  8.00000000E-01  8.00000000E-01  1.50000000E+00  1.50000000E+00  8.00000000E-01
  8.00000000E-01  1.50000000E+00  1.50000000E+00  8.00000000E-01  8.00000000E-01
  1.50000000E+00  1.50000000E+00  8.00000000E-01  8.00000000E-01  1.50000000E+00
  1.50000000E+00  8.00000000E-01  8.00000000E-01  1.50000000E+00  1.50000000E+00
  8.00000000E-01  8.00000000E-01  1.50000000E+00  1.50000000E+00  8.00000000E-01
  8.00000000E-01  1.50000000E+00  1.50000000E+00  8.00000000E-01  8.00000000E-01
  1.50000000E+00  1.50000000E+00  8.00000000E-01  8.00000000E-01  1.50000000E+00
  1.50000000E+00  8.00000000E-01  8.00000000E-01  1.50000000E+00  1.50000000E+00
  8.00000000E-01  8.00000000E-01  1.50000000E+00  1.50000000E+00  8.00000000E-01
  8.00000000E-01  1.50000000E+00  1.50000000E+00  8.00000000E-01  8.00000000E-01
  1.50000000E+00  1.50000000E+00  8.00000000E-01  8.00000000E-01  1.50000000E+00
  1.50000000E+00  8.00000000E-01  8.00000000E-01  1.50000000E+00  1.50000000E+00
  8.00000000E-01  8.00000000E-01  1.50000000E+00  1.50000000E+00  8.00000000E-01
  8.00000000E-01  1.50000000E+00  1.50000000E+00  8.00000000E-01  8.00000000E-01
  1.50000000E+00  1.50000000E+00  8.00000000E-01  8.00000000E-01  1.50000000E+00
  1.50000000E+00  8.00000000E-01  8.00000000E-01  1.50000000E+00  1.50000000E+00
  8.00000000E-01  8.00000000E-01  1.50000000E+00  1.50000000E+00  8.00000000E-01
  8.00000000E-01  1.50000000E+00  1.50000000E+00  8.00000000E-01  8.00000000E-01
  1.50000000E+00  1.50000000E+00  8.00000000E-01  8.00000000E-01  1.50000000E+00
  1.50000000E+00  8.00000000E-01  8.00000000E-01  1.50000000E+00  1.50000000E+00
  8.00000000E-01  8.00000000E-01  1.50000000E+00  1.50000000E+00  8.00000000E-01
  8.00000000E-01  1.50000000E+00  1.50000000E+00  8.00000000E-01  8.00000000E-01
  1.50000000E+00  1.50000000E+00  8.00000000E-01  8.00000000E-01  1.50000000E+00
  1.50000000E+00  8.00000000E-01  8.00000000E-01  1.50000000E+00  1.50000000E+00
  8.00000000E-01  8.00000000E-01  1.50000000E+00  1.50000000E+00  8.00000000E-01
  8.00000000E-01  1.50000000E+00  1.50000000E+00  8.00000000E-01  8.00000000E-01
  1.50000000E+00  1.50000000E+00  8.00000000E-01  8.00000000E-01  1.50000000E+00
  1.50000000E+00  8.00000000E-01  8.00000000E-01  1.50000000E+00  1.50000000E+00
  8.00000000E-01  8.00000000E-01  1.50000000E+00  1.50000000E+00  8.00000000E-01
  8.00000000E-01  1.50000000E+00  1.50000000E+00  8.00000000E-01  8.00000000E-01
  1.50000000E+00  1.50000000E+00  8.00000000E-01  8.00000000E-01  1.50000000E+00
  1.50000000E+00  8.00000000E-01  8.00000000E-01  1.50000000E+00  1.50000000E+00
  8.00000000E-01  8.00000000E-01  1.50000000E+00  1.50000000E+00  8.00000000E-01
  8.00000000E-01  1.50000000E+00  1.50000000E+00  8.00000000E-01  8.00000000E-01
  1.50000000E+00  1.50000000E+00  8.00000000E-01  8.00000000E-01  1.50000000E+00
  1.50000000E+00  8.00000000E-01  8.00000000E-01  1.50000000E+00  1.50000000E+00
  8.00000000E-01  8.00000000E-01  1.50000000E+00  1.50000000E+00  8.00000000E-01
  8.00000000E-01  1.50000000E+00  1.50000000E+00  8.00000000E-01  8.00000000E-01
  1.50000000E+00  1.50000000E+00  8.00000000E-01  8.00000000E-01  1.50000000E+00
  1.50000000E+00  8.00000000E-01  8.00000000E-01  1.50000000E+00  1.50000000E+00
  8.00000000E-01  8.00000000E-01  1.50000000E+00  1.50000000E+00  8.00000000E-01
  8.00000000E-01  1.50000000E+00  1.50000000E+00  8.00000000E-01  8.00000000E-01
  1.50000000E+00  1.50000000E+00  8.00000000E-01  8.00000000E-01  1.50000000E+00
  1.50000000E+00  8.00000000E-01  8.00000000E-01  1.50000000E+00  1.50000000E+00
  8.00000000E-01  8.00000000E-01  1.50000000E+00  1.50000000E+00  8.00000000E-01
  8.00000000E-01  1.50000000E+00  1.50000000E+00  8.00000000E-01  8.00000000E-01
  1.50000000E+00  1.50000000E+00  8.00000000E-01  8.00000000E-01  1.50000000E+00
  1.50000000E+00  8.00000000E-01  8.00000000E-01  1.50000000E+00  1.50000000E+00
  8.00000000E-01  8.00000000E-01  1.50000000E+00  1.50000000E+00  8.00000000E-01
  8.00000000E-01  1.50000000E+00  1.50000000E+00  8.00000000E-01  8.00000000E-01
  1.50000000E+00  1.50000000E+00  8.00000000E-01  8.00000000E-01  1.50000000E+00
  1.50000000E+00  8.00000000E-01  8.00000000E-01  1.50000000E+00  1.50000000E+00
  8.00000000E-01  8.00000000E-01  1.50000000E+00  1.50000000E+00  8.00000000E-01
  8.00000000E-01  1.50000000E+00  1.50000000E+00  8.00000000E-01  8.00000000E-01
  1.50000000E+00  1.50000000E+00  8.00000000E-01  8.00000000E-01  1.50000000E+00
  1.50000000E+00  8.00000000E-01  8.00000000E-01  1.50000000E+00  1.50000000E+00
  8.00000000E-01  8.00000000E-01  1.50000000E+00  1.50000000E+00  8.00000000E-01
  8.00000000E-01  1.50000000E+00  1.50000000E+00  8.00000000E-01  8.00000000E-01
  1.50000000E+00  1.50000000E+00  8.00000000E-01  8.00000000E-01  1.50000000E+00
  1.50000000E+00  8.00000000E-01  8.00000000E-01  1.50000000E+00  1.50000000E+00
  8.00000000E-01  8.00000000E-01  1.50000000E+00  1.50000000E+00  8.00000000E-01
  8.00000000E-01  1.50000000E+00  1.50000000E+00  8.00000000E-01  8.00000000E-01
  1.50000000E+00  1.50000000E+00  8.00000000E-01  8.00000000E-01  1.50000000E+00
  1.50000000E+00  8.00000000E-01  8.00000000E-01  1.50000000E+00  1.50000000E+00
  8.00000000E-01  8.00000000E-01  1.50000000E+00  1.50000000E+00  8.00000000E-01
  8.00000000E-01  1.50000000E+00  1.50000000E+00  8.00000000E-01  8.00000000E-01
  1.50000000E+00  1.50000000E+00  8.00000000E-01  8.00000000E-01  1.50000000E+00
  1.50000000E+00  8.00000000E-01  8.00000000E-01  1.50000000E+00  1.50000000E+00
  8.00000000E-01  8.00000000E-01  1.50000000E+00  1.50000000E+00  8.00000000E-01
  8.00000000E-01  1.50000000E+00  1.50000000E+00  8.00000000E-01  8.00000000E-01
  1.50000000E+00  1.50000000E+00  8.00000000E-01  8.00000000E-01  1.50000000E+00
  1.50000000E+00  8.00000000E-01  8.00000000E-01  1.50000000E+00  1.50000000E+00
  8.00000000E-01  8.00000000E-01  1.50000000E+00  1.50000000E+00  8.00000000E-01
  8.00000000E-01  1.50000000E+00  1.50000000E+00  8.00000000E-01  8.00000000E-01
  1.50000000E+00  1.50000000E+00  8.00000000E-01  8.00000000E-01  1.50000000E+00
  1.50000000E+00  8.00000000E-01  8.00000000E-01  1.50000000E+00  1.50000000E+00
  8.00000000E-01  8.00000000E-01  1.50000000E+00  1.50000000E+00  8.00000000E-01
  8.00000000E-01  1.50000000E+00  1.50000000E+00  8.00000000E-01  8.00000000E-01
  1.50000000E+00  1.50000000E+00  8.00000000E-01  8.00000000E-01  1.50000000E+00
  1.50000000E+00  8.00000000E-01  8.00000000E-01  1.50000000E+00  1.50000000E+00
  8.00000000E-01  8.00000000E-01  1.50000000E+00  1.50000000E+00  8.00000000E-01
  8.00000000E-01  1.50000000E+00  1.50000000E+00  8.00000000E-01  8.00000000E-01
  1.50000000E+00  1.50000000E+00  8.00000000E-01  8.00000000E-01  1.50000000E+00
  1.50000000E+00  8.00000000E-01  8.00000000E-01  1.50000000E+00  1.50000000E+00
  8.00000000E-01  8.00000000E-01  1.50000000E+00  1.50000000E+00  8.00000000E-01
  8.00000000E-01  1.50000000E+00  1.50000000E+00  8.00000000E-01  8.00000000E-01
  1.50000000E+00  1.50000000E+00  8.00000000E-01  8.00000000E-01  1.50000000E+00
  1.50000000E+00  8.00000000E-01  8.00000000E-01  1.50000000E+00  1.50000000E+00
  8.00000000E-01  8.00000000E-01  1.50000000E+00  1.50000000E+00  8.00000000E-01
  8.00000000E-01  1.50000000E+00  1.50000000E+00  8.00000000E-01  8.00000000E-01
  1.50000000E+00  1.50000000E+00  8.00000000E-01  8.00000000E-01  1.50000000E+00
  1.50000000E+00  8.00000000E-01  8.00000000E-01  1.50000000E+00  1.50000000E+00
  8.00000000E-01  8.00000000E-01  1.50000000E+00  1.50000000E+00  8.00000000E-01
  8.00000000E-01  1.50000000E+00  1.50000000E+00  8.00000000E-01  8.00000000E-01
  1.50000000E+00  1.50000000E+00  8.00000000E-01  8.00000000E-01  1.50000000E+00
  1.50000000E+00  8.00000000E-01  8.00000000E-01  1.50000000E+00  1.50000000E+00
  8.00000000E-01  8.00000000E-01  1.50000000E+00  1.50000000E+00  8.00000000E-01
  8.00000000E-01  1.50000000E+00  1.50000000E+00  8.00000000E-01  8.00000000E-01
  1.50000000E+00  1.50000000E+00  8.00000000E-01  8.00000000E-01  1.50000000E+00
  1.50000000E+00  8.00000000E-01  8.00000000E-01  1.50000000E+00  1.50000000E+00
  8.00000000E-01  8.00000000E-01  1.50000000E+00  1.50000000E+00  8.00000000E-01
  8.00000000E-01  1.50000000E+00  1.50000000E+00  8.00000000E-01  8.00000000E-01
  1.50000000E+00  1.50000000E+00  8.00000000E-01  8.00000000E-01  1.50000000E+00
  1.50000000E+00  8.00000000E-01  8.00000000E-01  1.50000000E+00  1.50000000E+00
  8.00000000E-01  8.00000000E-01  1.50000000E+00  1.50000000E+00  8.00000000E-01
  8.00000000E-01  1.50000000E+00  1.50000000E+00  8.00000000E-01  8.00000000E-01
  1.50000000E+00  1.50000000E+00  8.00000000E-01  8.00000000E-01  1.50000000E+00
  1.50000000E+00  8.00000000E-01  8.00000000E-01  1.50000000E+00  1.50000000E+00
  8.00000000E-01  8.00000000E-01  1.50000000E+00  1.50000000E+00  8.00000000E-01
  8.00000000E-01  1.50000000E+00  1.50000000E+00  8.00000000E-01  8.00000000E-01
  1.50000000E+00  1.50000000E+00  8.00000000E-01  8.00000000E-01  1.50000000E+00
  1.50000000E+00  8.00000000E-01  8.00000000E-01  1.50000000E+00  1.50000000E+00
  8.00000000E-01  8.00000000E-01  1.50000000E+00  1.50000000E+00  8.00000000E-01
  8.00000000E-01  1.50000000E+00  1.50000000E+00  8.00000000E-01  8.00000000E-01
  1.50000000E+00  1.50000000E+00  8.00000000E-01  8.00000000E-01  1.50000000E+00
  1.50000000E+00  8.00000000E-01  8.00000000E-01  1.50000000E+00  1.50000000E+00
  8.00000000E-01  8.00000000E-01  1.50000000E+00  1.50000000E+00  8.00000000E-01
  8.00000000E-01  1.50000000E+00  1.50000000E+00  8.00000000E-01  8.00000000E-01
  1.50000000E+00  1.50000000E+00  8.00000000E-01  8.00000000E-01  1.50000000E+00
  1.50000000E+00  8.00000000E-01  8.00000000E-01  1.50000000E+00  1.50000000E+00
  8.00000000E-01  8.00000000E-01  1.50000000E+00  1.50000000E+00  8.00000000E-01
  8.00000000E-01  1.50000000E+00  1.50000000E+00  8.00000000E-01  8.00000000E-01
  1.50000000E+00  1.50000000E+00  8.00000000E-01  8.00000000E-01  1.50000000E+00
  1.50000000E+00  8.00000000E-01  8.00000000E-01  1.50000000E+00  1.50000000E+00
  8.00000000E-01  8.00000000E-01  1.50000000E+00  1.50000000E+00  8.00000000E-01
  8.00000000E-01  1.50000000E+00  1.50000000E+00  8.00000000E-01  8.00000000E-01
  1.50000000E+00  1.50000000E+00  8.00000000E-01  8.00000000E-01  1.50000000E+00
  1.50000000E+00  8.00000000E-01  8.00000000E-01  1.50000000E+00  1.50000000E+00
  8.00000000E-01  8.00000000E-01  1.50000000E+00  1.50000000E+00  8.00000000E-01
  8.00000000E-01  1.50000000E+00  1.50000000E+00  8.00000000E-01  8.00000000E-01
  1.50000000E+00  1.50000000E+00  8.00000000E-01  8.00000000E-01  1.50000000E+00
  1.50000000E+00  8.00000000E-01  8.00000000E-01  1.50000000E+00  1.50000000E+00
  8.00000000E-01  8.00000000E-01  1.50000000E+00  1.50000000E+00  8.00000000E-01
  8.00000000E-01  1.50000000E+00  1.50000000E+00  8.00000000E-01  8.00000000E-01
  1.50000000E+00  1.50000000E+00  8.00000000E-01  8.00000000E-01  1.50000000E+00
  1.50000000E+00  8.00000000E-01  8.00000000E-01  1.50000000E+00  1.50000000E+00
  8.00000000E-01  8.00000000E-01  1.50000000E+00  1.50000000E+00  8.00000000E-01
  8.00000000E-01  1.50000000E+00  1.50000000E+00  8.00000000E-01  8.00000000E-01
  1.50000000E+00  1.50000000E+00  8.00000000E-01  8.00000000E-01  1.50000000E+00
  1.50000000E+00  8.00000000E-01  8.00000000E-01  1.50000000E+00  1.50000000E+00
  8.00000000E-01  8.00000000E-01  1.50000000E+00  1.50000000E+00  8.00000000E-01
  8.00000000E-01  1.50000000E+00  1.50000000E+00  8.00000000E-01  8.00000000E-01
  1.50000000E+00  1.50000000E+00  8.00000000E-01  8.00000000E-01  1.50000000E+00
  1.50000000E+00  8.00000000E-01  8.00000000E-01  1.50000000E+00  1.50000000E+00
  8.00000000E-01  8.00000000E-01  1.50000000E+00  1.50000000E+00  8.00000000E-01
  8.00000000E-01  1.50000000E+00  1.50000000E+00  8.00000000E-01  8.00000000E-01
  1.50000000E+00  1.50000000E+00  8.00000000E-01  8.00000000E-01  1.50000000E+00
  1.50000000E+00  8.00000000E-01  8.00000000E-01  1.50000000E+00  1.50000000E+00
  8.00000000E-01  8.00000000E-01  1.50000000E+00  1.50000000E+00  8.00000000E-01
  8.00000000E-01  1.50000000E+00  1.50000000E+00  8.00000000E-01  8.00000000E-01
  1.50000000E+00  1.50000000E+00  8.00000000E-01  8.00000000E-01  1.50000000E+00
  1.50000000E+00  8.00000000E-01  8.00000000E-01  1.50000000E+00  1.50000000E+00
  8.00000000E-01  8.00000000E-01  1.50000000E+00  1.50000000E+00  8.00000000E-01
  8.00000000E-01  1.50000000E+00  1.50000000E+00  8.00000000E-01  8.00000000E-01
  1.50000000E+00  1.50000000E+00  8.00000000E-01  8.00000000E-01  1.50000000E+00
  1.50000000E+00  8.00000000E-01  8.00000000E-01  1.50000000E+00  1.50000000E+00
  8.00000000E-01  8.00000000E-01  1.50000000E+00  1.50000000E+00  8.00000000E-01
  8.00000000E-01  1.50000000E+00  1.50000000E+00  8.00000000E-01  8.00000000E-01
  1.50000000E+00  1.50000000E+00  8.00000000E-01  8.00000000E-01  1.50000000E+00
  1.50000000E+00  8.00000000E-01  8.00000000E-01  1.50000000E+00  1.50000000E+00
  8.00000000E-01  8.00000000E-01  1.50000000E+00  1.50000000E+00  8.00000000E-01
  8.00000000E-01  1.50000000E+00  1.50000000E+00  8.00000000E-01  8.00000000E-01
  1.50000000E+00  1.50000000E+00  8.00000000E-01  8.00000000E-01  1.50000000E+00
  1.50000000E+00  8.00000000E-01  8.00000000E-01  1.50000000E+00  1.50000000E+00
  8.00000000E-01  8.00000000E-01  1.50000000E+00  1.50000000E+00  8.00000000E-01
  8.00000000E-01  1.50000000E+00  1.50000000E+00  8.00000000E-01  8.00000000E-01
  1.50000000E+00  1.50000000E+00  8.00000000E-01  8.00000000E-01  1.50000000E+00
  1.50000000E+00  8.00000000E-01  8.00000000E-01  1.50000000E+00  1.50000000E+00
  8.00000000E-01  8.00000000E-01  1.50000000E+00  1.50000000E+00  8.00000000E-01
  8.00000000E-01  1.50000000E+00  1.50000000E+00  8.00000000E-01  8.00000000E-01
  1.50000000E+00  1.50000000E+00  8.00000000E-01  8.00000000E-01  1.50000000E+00
  1.50000000E+00  8.00000000E-01  8.00000000E-01  1.50000000E+00  1.50000000E+00
  8.00000000E-01  8.00000000E-01  1.50000000E+00  1.50000000E+00  8.00000000E-01
  8.00000000E-01  1.50000000E+00  1.50000000E+00  8.00000000E-01  8.00000000E-01
  1.50000000E+00  1.50000000E+00  8.00000000E-01  8.00000000E-01  1.50000000E+00
  1.50000000E+00  8.00000000E-01  8.00000000E-01  1.50000000E+00  1.50000000E+00
  8.00000000E-01  8.00000000E-01  1.50000000E+00  1.50000000E+00  8.00000000E-01
  8.00000000E-01  1.50000000E+00  1.50000000E+00  8.00000000E-01  8.00000000E-01
  1.50000000E+00  1.50000000E+00  8.00000000E-01  8.00000000E-01  1.50000000E+00
  1.50000000E+00  8.00000000E-01  8.00000000E-01  1.50000000E+00  1.50000000E+00
  8.00000000E-01  8.00000000E-01  1.50000000E+00  1.50000000E+00  8.00000000E-01
  8.00000000E-01  1.50000000E+00  1.50000000E+00  8.00000000E-01  8.00000000E-01
  1.50000000E+00  1.50000000E+00  8.00000000E-01  8.00000000E-01  1.50000000E+00
  1.50000000E+00  8.00000000E-01  8.00000000E-01  1.50000000E+00  1.50000000E+00
  8.00000000E-01  8.00000000E-01  1.50000000E+00  1.50000000E+00  8.00000000E-01
  8.00000000E-01  1.50000000E+00  1.50000000E+00  8.00000000E-01  8.00000000E-01
  1.50000000E+00  1.50000000E+00  8.00000000E-01  8.00000000E-01  1.50000000E+00
  1.50000000E+00  8.00000000E-01  8.00000000E-01  1.50000000E+00  1.50000000E+00
  8.00000000E-01  8.00000000E-01  1.50000000E+00  1.50000000E+00  8.00000000E-01
  8.00000000E-01  1.50000000E+00  1.50000000E+00  8.00000000E-01  8.00000000E-01
  1.50000000E+00  1.50000000E+00  8.00000000E-01  8.00000000E-01  1.50000000E+00
  1.50000000E+00  8.00000000E-01  8.00000000E-01  1.50000000E+00  1.50000000E+00
  8.00000000E-01  8.00000000E-01  1.50000000E+00  1.50000000E+00  8.00000000E-01
  8.00000000E-01  1.50000000E+00  1.50000000E+00  8.00000000E-01  8.00000000E-01
  1.50000000E+00  1.50000000E+00  8.00000000E-01  8.00000000E-01  1.50000000E+00
  1.50000000E+00  8.00000000E-01  8.00000000E-01  1.50000000E+00  1.50000000E+00
  8.00000000E-01  8.00000000E-01  1.50000000E+00  1.50000000E+00  8.00000000E-01
  8.00000000E-01  1.50000000E+00  1.50000000E+00  8.00000000E-01  8.00000000E-01
  1.50000000E+00  1.50000000E+00  8.00000000E-01  8.00000000E-01  1.50000000E+00
  1.50000000E+00  8.00000000E-01  8.00000000E-01  1.50000000E+00  1.50000000E+00
  8.00000000E-01  8.00000000E-01  1.50000000E+00  1.50000000E+00  8.00000000E-01
  8.00000000E-01  1.50000000E+00  1.50000000E+00  8.00000000E-01  8.00000000E-01
  1.50000000E+00  1.50000000E+00  8.00000000E-01  8.00000000E-01  1.50000000E+00
  1.50000000E+00  8.00000000E-01  8.00000000E-01  1.50000000E+00  1.50000000E+00
  8.00000000E-01  8.00000000E-01  1.50000000E+00  1.50000000E+00  8.00000000E-01
  8.00000000E-01  1.50000000E+00  1.50000000E+00  8.00000000E-01  8.00000000E-01
  1.50000000E+00  1.50000000E+00  8.00000000E-01  8.00000000E-01  1.50000000E+00
  1.50000000E+00  8.00000000E-01  8.00000000E-01  1.50000000E+00  1.50000000E+00
  8.00000000E-01  8.00000000E-01  1.50000000E+00  1.50000000E+00  8.00000000E-01
  8.00000000E-01  1.50000000E+00  1.50000000E+00  8.00000000E-01  8.00000000E-01
  1.50000000E+00  1.50000000E+00  8.00000000E-01  8.00000000E-01  1.50000000E+00
  1.50000000E+00  8.00000000E-01  8.00000000E-01  1.50000000E+00  1.50000000E+00
  8.00000000E-01  8.00000000E-01  1.50000000E+00  1.50000000E+00  8.00000000E-01
  8.00000000E-01  1.50000000E+00  1.50000000E+00  8.00000000E-01  8.00000000E-01
  1.50000000E+00  1.50000000E+00  8.00000000E-01  8.00000000E-01  1.50000000E+00
  1.50000000E+00  8.00000000E-01  8.00000000E-01  1.50000000E+00  1.50000000E+00
  8.00000000E-01  8.00000000E-01  1.50000000E+00  1.50000000E+00  8.00000000E-01
  8.00000000E-01  1.50000000E+00  1.50000000E+00  8.00000000E-01  8.00000000E-01
  1.50000000E+00  1.50000000E+00  8.00000000E-01  8.00000000E-01  1.50000000E+00
  1.50000000E+00  8.00000000E-01  8.00000000E-01  1.50000000E+00  1.50000000E+00
  8.00000000E-01  8.00000000E-01  1.50000000E+00  1.50000000E+00  8.00000000E-01
  8.00000000E-01  1.50000000E+00  1.50000000E+00  8.00000000E-01  8.00000000E-01
  1.50000000E+00  1.50000000E+00  8.00000000E-01  8.00000000E-01  1.50000000E+00
  1.50000000E+00  8.00000000E-01  8.00000000E-01  1.50000000E+00  1.50000000E+00
  8.00000000E-01  8.00000000E-01  1.50000000E+00  1.50000000E+00  8.00000000E-01
  8.00000000E-01  1.50000000E+00  1.50000000E+00  8.00000000E-01  8.00000000E-01
  1.50000000E+00  1.50000000E+00  8.00000000E-01  8.00000000E-01  1.50000000E+00
  1.50000000E+00  8.00000000E-01  8.00000000E-01  1.50000000E+00  1.50000000E+00
  8.00000000E-01  8.00000000E-01  1.50000000E+00  1.50000000E+00  8.00000000E-01
  8.00000000E-01  1.50000000E+00  1.50000000E+00  8.00000000E-01  8.00000000E-01
  1.50000000E+00  1.50000000E+00  8.00000000E-01  8.00000000E-01  1.50000000E+00
  1.50000000E+00  8.00000000E-01  8.00000000E-01  1.50000000E+00  1.50000000E+00
  8.00000000E-01  8.00000000E-01  1.50000000E+00  1.50000000E+00  8.00000000E-01
  8.00000000E-01  1.50000000E+00  1.50000000E+00  8.00000000E-01  8.00000000E-01
  1.50000000E+00  1.50000000E+00  8.00000000E-01  8.00000000E-01  1.50000000E+00
  1.50000000E+00  8.00000000E-01  8.00000000E-01  1.50000000E+00  1.50000000E+00
  8.00000000E-01  8.00000000E-01  1.50000000E+00  1.50000000E+00  8.00000000E-01
  8.00000000E-01  1.50000000E+00  1.50000000E+00  8.00000000E-01  8.00000000E-01
  1.50000000E+00  1.50000000E+00  8.00000000E-01  8.00000000E-01  1.50000000E+00
  1.50000000E+00  8.00000000E-01  8.00000000E-01  1.50000000E+00  1.50000000E+00
  8.00000000E-01  8.00000000E-01  1.50000000E+00  1.50000000E+00  8.00000000E-01
  8.00000000E-01  1.50000000E+00  1.50000000E+00  8.00000000E-01  8.00000000E-01
  1.50000000E+00  1.50000000E+00  8.00000000E-01  8.00000000E-01  1.50000000E+00
  1.50000000E+00  8.00000000E-01  8.00000000E-01  1.50000000E+00  1.50000000E+00
  8.00000000E-01  8.00000000E-01  1.50000000E+00  1.50000000E+00  8.00000000E-01
  8.00000000E-01  1.50000000E+00  1.50000000E+00  8.00000000E-01  8.00000000E-01
  1.50000000E+00  1.50000000E+00  8.00000000E-01  8.00000000E-01  1.50000000E+00
  1.50000000E+00  8.00000000E-01  8.00000000E-01  1.50000000E+00  1.50000000E+00
  8.00000000E-01  8.00000000E-01  1.50000000E+00  1.50000000E+00  8.00000000E-01
  8.00000000E-01  1.50000000E+00  1.50000000E+00  8.00000000E-01  8.00000000E-01
  1.50000000E+00  1.50000000E+00  8.00000000E-01  8.00000000E-01  1.50000000E+00
  1.50000000E+00  8.00000000E-01  8.00000000E-01  1.50000000E+00  1.50000000E+00
  8.00000000E-01  8.00000000E-01  1.50000000E+00  1.50000000E+00  8.00000000E-01
  8.00000000E-01  1.50000000E+00  1.50000000E+00  8.00000000E-01  8.00000000E-01
  1.50000000E+00  1.50000000E+00  8.00000000E-01  8.00000000E-01  1.50000000E+00
  1.50000000E+00  8.00000000E-01  8.00000000E-01  1.50000000E+00  1.50000000E+00
  8.00000000E-01  8.00000000E-01  1.50000000E+00  1.50000000E+00  8.00000000E-01
  8.00000000E-01  1.50000000E+00  1.50000000E+00  8.00000000E-01  8.00000000E-01
  1.50000000E+00  1.50000000E+00  8.00000000E-01  8.00000000E-01  1.50000000E+00
  1.50000000E+00  8.00000000E-01  8.00000000E-01  1.50000000E+00  1.50000000E+00
  8.00000000E-01  8.00000000E-01  1.50000000E+00  1.50000000E+00  8.00000000E-01
  8.00000000E-01  1.50000000E+00  1.50000000E+00  8.00000000E-01  8.00000000E-01
  1.50000000E+00  1.50000000E+00  8.00000000E-01  8.00000000E-01  1.50000000E+00
  1.50000000E+00  8.00000000E-01  8.00000000E-01  1.50000000E+00  1.50000000E+00
  8.00000000E-01  8.00000000E-01  1.50000000E+00  1.50000000E+00  8.00000000E-01
  8.00000000E-01  1.50000000E+00  1.50000000E+00  8.00000000E-01  8.00000000E-01
  1.50000000E+00  1.50000000E+00  8.00000000E-01  8.00000000E-01  1.50000000E+00
  1.50000000E+00  8.00000000E-01  8.00000000E-01  1.50000000E+00  1.50000000E+00
  8.00000000E-01  8.00000000E-01  1.50000000E+00  1.50000000E+00  8.00000000E-01
  8.00000000E-01  1.50000000E+00  1.50000000E+00  8.00000000E-01  8.00000000E-01
  1.50000000E+00  1.50000000E+00  8.00000000E-01  8.00000000E-01  1.50000000E+00
  1.50000000E+00  8.00000000E-01  8.00000000E-01  1.50000000E+00  1.50000000E+00
  8.00000000E-01  8.00000000E-01  1.50000000E+00  1.50000000E+00  8.00000000E-01
  8.00000000E-01  1.50000000E+00  1.50000000E+00  8.00000000E-01  8.00000000E-01
  1.50000000E+00  1.50000000E+00  8.00000000E-01  8.00000000E-01  1.50000000E+00
  1.50000000E+00  8.00000000E-01  8.00000000E-01  1.50000000E+00  1.50000000E+00
  8.00000000E-01  8.00000000E-01  1.50000000E+00  1.50000000E+00  8.00000000E-01
  8.00000000E-01  1.50000000E+00  1.50000000E+00  8.00000000E-01  8.00000000E-01
  1.50000000E+00  1.50000000E+00  8.00000000E-01  8.00000000E-01  1.50000000E+00
  1.50000000E+00  8.00000000E-01  8.00000000E-01  1.50000000E+00  1.50000000E+00
  8.00000000E-01  8.00000000E-01  1.50000000E+00  1.50000000E+00  8.00000000E-01
  8.00000000E-01  1.50000000E+00  1.50000000E+00  8.00000000E-01  8.00000000E-01
  1.50000000E+00  1.50000000E+00  8.00000000E-01  8.00000000E-01  1.50000000E+00
  1.50000000E+00  8.00000000E-01  8.00000000E-01  1.50000000E+00  1.50000000E+00
  8.00000000E-01  8.00000000E-01  1.50000000E+00  1.50000000E+00  8.00000000E-01
  8.00000000E-01  1.50000000E+00  1.50000000E+00  8.00000000E-01  8.00000000E-01
  1.50000000E+00  1.50000000E+00  8.00000000E-01  8.00000000E-01  1.50000000E+00
  1.50000000E+00  8.00000000E-01  8.00000000E-01  1.50000000E+00  1.50000000E+00
  8.00000000E-01  8.00000000E-01  1.50000000E+00  1.50000000E+00  8.00000000E-01
  8.00000000E-01  1.50000000E+00  1.50000000E+00  8.00000000E-01  8.00000000E-01
  1.50000000E+00  1.50000000E+00  8.00000000E-01  8.00000000E-01  1.50000000E+00
  1.50000000E+00  8.00000000E-01  8.00000000E-01  1.50000000E+00  1.50000000E+00
  8.00000000E-01  8.00000000E-01  1.50000000E+00  1.50000000E+00  8.00000000E-01
  8.00000000E-01  1.50000000E+00  1.50000000E+00  8.00000000E-01  8.00000000E-01
  1.50000000E+00  1.50000000E+00  8.00000000E-01  8.00000000E-01  1.50000000E+00
  1.50000000E+00  8.00000000E-01  8.00000000E-01  1.50000000E+00  1.50000000E+00
  8.00000000E-01  8.00000000E-01  1.50000000E+00  1.50000000E+00  8.00000000E-01
  8.00000000E-01  1.50000000E+00  1.50000000E+00  8.00000000E-01  8.00000000E-01
  1.50000000E+00  1.50000000E+00  8.00000000E-01  8.00000000E-01  1.50000000E+00
  1.50000000E+00  8.00000000E-01  8.00000000E-01  1.50000000E+00  1.50000000E+00
  8.00000000E-01  8.00000000E-01  1.50000000E+00  1.50000000E+00  8.00000000E-01
  8.00000000E-01  1.50000000E+00  1.50000000E+00  8.00000000E-01  8.00000000E-01
  1.50000000E+00  1.50000000E+00  8.00000000E-01  8.00000000E-01  1.50000000E+00
  1.50000000E+00  8.00000000E-01  8.00000000E-01  1.50000000E+00  1.50000000E+00
  8.00000000E-01  8.00000000E-01  1.50000000E+00  1.50000000E+00  8.00000000E-01
  8.00000000E-01  1.50000000E+00  1.50000000E+00  8.00000000E-01  8.00000000E-01
  1.50000000E+00  1.50000000E+00  8.00000000E-01  8.00000000E-01  1.50000000E+00
  1.50000000E+00  8.00000000E-01  8.00000000E-01  1.50000000E+00  1.50000000E+00
  8.00000000E-01  8.00000000E-01  1.50000000E+00  1.50000000E+00  8.00000000E-01
  8.00000000E-01  1.50000000E+00  1.50000000E+00  8.00000000E-01  8.00000000E-01
  1.50000000E+00  1.50000000E+00  8.00000000E-01  8.00000000E-01  1.50000000E+00
  1.50000000E+00  8.00000000E-01  8.00000000E-01  1.50000000E+00  1.50000000E+00
  8.00000000E-01  8.00000000E-01  1.50000000E+00  1.50000000E+00  8.00000000E-01
  8.00000000E-01  1.50000000E+00  1.50000000E+00  8.00000000E-01  8.00000000E-01
  1.50000000E+00  1.50000000E+00  8.00000000E-01  8.00000000E-01  1.50000000E+00
  1.50000000E+00  8.00000000E-01  8.00000000E-01  1.50000000E+00  1.50000000E+00
  8.00000000E-01  8.00000000E-01  1.50000000E+00  1.50000000E+00  8.00000000E-01
  8.00000000E-01  1.50000000E+00  1.50000000E+00  8.00000000E-01  8.00000000E-01
  1.50000000E+00  1.50000000E+00  8.00000000E-01  8.00000000E-01  1.50000000E+00
  1.50000000E+00  8.00000000E-01  8.00000000E-01  1.50000000E+00  1.50000000E+00
  8.00000000E-01  8.00000000E-01  1.50000000E+00  1.50000000E+00  8.00000000E-01
  8.00000000E-01  1.50000000E+00  1.50000000E+00  8.00000000E-01  8.00000000E-01
  1.50000000E+00  1.50000000E+00  8.00000000E-01  8.00000000E-01  1.50000000E+00
  1.50000000E+00  8.00000000E-01  8.00000000E-01  1.50000000E+00  1.50000000E+00
  8.00000000E-01  8.00000000E-01  1.50000000E+00  1.50000000E+00  8.00000000E-01
  8.00000000E-01  1.50000000E+00  1.50000000E+00  8.00000000E-01  8.00000000E-01
  1.50000000E+00  1.50000000E+00  8.00000000E-01  8.00000000E-01  1.50000000E+00
  1.50000000E+00  8.00000000E-01  8.00000000E-01  1.50000000E+00  1.50000000E+00
  8.00000000E-01  8.00000000E-01  1.50000000E+00  1.50000000E+00  8.00000000E-01
  8.00000000E-01  1.50000000E+00  1.50000000E+00  8.00000000E-01  8.00000000E-01
  1.50000000E+00  1.50000000E+00  8.00000000E-01  8.00000000E-01  1.50000000E+00
  1.50000000E+00  8.00000000E-01  8.00000000E-01  1.50000000E+00  1.50000000E+00
  8.00000000E-01  8.00000000E-01  1.50000000E+00  1.50000000E+00  8.00000000E-01
  8.00000000E-01  1.50000000E+00  1.50000000E+00  8.00000000E-01  8.00000000E-01
  1.50000000E+00  1.50000000E+00  8.00000000E-01  8.00000000E-01  1.50000000E+00
  1.50000000E+00  8.00000000E-01  8.00000000E-01  1.50000000E+00  1.50000000E+00
  8.00000000E-01  8.00000000E-01  1.50000000E+00  1.50000000E+00  8.00000000E-01
  8.00000000E-01  1.50000000E+00  1.50000000E+00  8.00000000E-01  8.00000000E-01
  1.50000000E+00  1.50000000E+00  8.00000000E-01  8.00000000E-01  1.50000000E+00
  1.50000000E+00  8.00000000E-01  8.00000000E-01  1.50000000E+00  1.50000000E+00
  8.00000000E-01  8.00000000E-01  1.50000000E+00  1.50000000E+00  8.00000000E-01
  8.00000000E-01  1.50000000E+00  1.50000000E+00  8.00000000E-01  8.00000000E-01
  1.50000000E+00  1.50000000E+00  8.00000000E-01  8.00000000E-01  1.50000000E+00
  1.50000000E+00  8.00000000E-01  8.00000000E-01  1.50000000E+00  1.50000000E+00
  8.00000000E-01  8.00000000E-01  1.50000000E+00  1.50000000E+00  8.00000000E-01
  8.00000000E-01  1.50000000E+00  1.50000000E+00  8.00000000E-01  8.00000000E-01
  1.50000000E+00  1.50000000E+00  8.00000000E-01  8.00000000E-01  1.50000000E+00
  1.50000000E+00  8.00000000E-01  8.00000000E-01  1.50000000E+00  1.50000000E+00
  8.00000000E-01  8.00000000E-01  1.50000000E+00  1.50000000E+00  8.00000000E-01
  8.00000000E-01  1.50000000E+00  1.50000000E+00  8.00000000E-01  8.00000000E-01
  1.50000000E+00  1.50000000E+00  8.00000000E-01  8.00000000E-01  1.50000000E+00
  1.50000000E+00  8.00000000E-01  8.00000000E-01  1.50000000E+00  1.50000000E+00
  8.00000000E-01  8.00000000E-01  1.50000000E+00  1.50000000E+00  8.00000000E-01
  8.00000000E-01  1.50000000E+00  1.50000000E+00  8.00000000E-01  8.00000000E-01
  1.50000000E+00  1.50000000E+00  8.00000000E-01  8.00000000E-01  1.50000000E+00
  1.50000000E+00  8.00000000E-01  8.00000000E-01  1.50000000E+00  1.50000000E+00
  8.00000000E-01  8.00000000E-01  1.50000000E+00  1.50000000E+00  8.00000000E-01
  8.00000000E-01  1.50000000E+00  1.50000000E+00  8.00000000E-01  8.00000000E-01
  1.50000000E+00  1.50000000E+00  8.00000000E-01  8.00000000E-01  1.50000000E+00
  1.50000000E+00  8.00000000E-01  8.00000000E-01  1.50000000E+00  1.50000000E+00
  8.00000000E-01  8.00000000E-01  1.50000000E+00  1.50000000E+00  8.00000000E-01
  8.00000000E-01  1.50000000E+00  1.50000000E+00  8.00000000E-01  8.00000000E-01
  1.50000000E+00  1.50000000E+00  8.00000000E-01  8.00000000E-01  1.50000000E+00
  1.50000000E+00  8.00000000E-01  8.00000000E-01  1.50000000E+00  1.50000000E+00
  8.00000000E-01  8.00000000E-01  1.50000000E+00  1.50000000E+00  8.00000000E-01
  8.00000000E-01  1.50000000E+00  1.50000000E+00  8.00000000E-01  8.00000000E-01
  1.50000000E+00  1.50000000E+00  8.00000000E-01  8.00000000E-01  1.50000000E+00
  1.50000000E+00  8.00000000E-01  8.00000000E-01  1.50000000E+00  1.50000000E+00
  8.00000000E-01  8.00000000E-01  1.50000000E+00  1.50000000E+00  8.00000000E-01
  8.00000000E-01  1.50000000E+00  1.50000000E+00  8.00000000E-01  8.00000000E-01
  1.50000000E+00  1.50000000E+00  8.00000000E-01  8.00000000E-01  1.50000000E+00
  1.50000000E+00  8.00000000E-01  8.00000000E-01  1.50000000E+00  1.50000000E+00
  8.00000000E-01  8.00000000E-01  1.50000000E+00  1.50000000E+00  8.00000000E-01
  8.00000000E-01  1.50000000E+00  1.50000000E+00  8.00000000E-01  8.00000000E-01
  1.50000000E+00  1.50000000E+00  8.00000000E-01  8.00000000E-01  1.50000000E+00
  1.50000000E+00  8.00000000E-01  8.00000000E-01  1.50000000E+00  1.50000000E+00
  8.00000000E-01  8.00000000E-01  1.50000000E+00  1.50000000E+00  8.00000000E-01
  8.00000000E-01  1.50000000E+00  1.50000000E+00  8.00000000E-01  8.00000000E-01
  1.50000000E+00  1.50000000E+00  8.00000000E-01  8.00000000E-01  1.50000000E+00
  1.50000000E+00  8.00000000E-01  8.00000000E-01  1.50000000E+00  1.50000000E+00
  8.00000000E-01  8.00000000E-01  1.50000000E+00  1.50000000E+00  8.00000000E-01
  8.00000000E-01  1.50000000E+00  1.50000000E+00  8.00000000E-01  8.00000000E-01
  1.50000000E+00  1.50000000E+00  8.00000000E-01  8.00000000E-01  1.50000000E+00
  1.50000000E+00  8.00000000E-01  8.00000000E-01  1.50000000E+00  1.50000000E+00
  8.00000000E-01  8.00000000E-01  1.50000000E+00  1.50000000E+00  8.00000000E-01
  8.00000000E-01  1.50000000E+00  1.50000000E+00  8.00000000E-01  8.00000000E-01
  1.50000000E+00  1.50000000E+00  8.00000000E-01  8.00000000E-01  1.50000000E+00
  1.50000000E+00  8.00000000E-01  8.00000000E-01  1.50000000E+00  1.50000000E+00
  8.00000000E-01  8.00000000E-01  1.50000000E+00  1.50000000E+00  8.00000000E-01
  8.00000000E-01  1.50000000E+00  1.50000000E+00  8.00000000E-01  8.00000000E-01
  1.50000000E+00  1.50000000E+00  8.00000000E-01  8.00000000E-01  1.50000000E+00
  1.50000000E+00  8.00000000E-01  8.00000000E-01  1.50000000E+00  1.50000000E+00
  8.00000000E-01  8.00000000E-01  1.50000000E+00  1.50000000E+00  8.00000000E-01
  8.00000000E-01  1.50000000E+00  1.50000000E+00  8.00000000E-01  8.00000000E-01
  1.50000000E+00  1.50000000E+00  8.00000000E-01  8.00000000E-01  1.50000000E+00
  1.50000000E+00  8.00000000E-01  8.00000000E-01  1.50000000E+00  1.50000000E+00
  8.00000000E-01  8.00000000E-01  1.50000000E+00  1.50000000E+00  8.00000000E-01
  8.00000000E-01  1.50000000E+00  1.50000000E+00  8.00000000E-01  8.00000000E-01
  1.50000000E+00  1.50000000E+00  8.00000000E-01  8.00000000E-01  1.50000000E+00
  1.50000000E+00  8.00000000E-01  8.00000000E-01  1.50000000E+00  1.50000000E+00
  8.00000000E-01  8.00000000E-01  1.50000000E+00  1.50000000E+00  8.00000000E-01
  8.00000000E-01  1.50000000E+00  1.50000000E+00  8.00000000E-01  8.00000000E-01
  1.50000000E+00  1.50000000E+00  8.00000000E-01  8.00000000E-01  1.50000000E+00
  1.50000000E+00  8.00000000E-01  8.00000000E-01  1.50000000E+00  1.50000000E+00
  8.00000000E-01  8.00000000E-01  1.50000000E+00  1.50000000E+00  8.00000000E-01
  8.00000000E-01  1.50000000E+00  1.50000000E+00  8.00000000E-01  8.00000000E-01
  1.50000000E+00  1.50000000E+00  8.00000000E-01  8.00000000E-01  1.50000000E+00
  1.50000000E+00  8.00000000E-01  8.00000000E-01  1.50000000E+00  1.50000000E+00
  8.00000000E-01  8.00000000E-01  1.50000000E+00  1.50000000E+00  8.00000000E-01
  8.00000000E-01  1.50000000E+00  1.50000000E+00  8.00000000E-01  8.00000000E-01
  1.50000000E+00  1.50000000E+00  8.00000000E-01  8.00000000E-01  1.50000000E+00
  1.50000000E+00  8.00000000E-01  8.00000000E-01  1.50000000E+00  1.50000000E+00
  8.00000000E-01  8.00000000E-01  1.50000000E+00  1.50000000E+00  8.00000000E-01
  8.00000000E-01  1.50000000E+00  1.50000000E+00  8.00000000E-01  8.00000000E-01
  1.50000000E+00  1.50000000E+00  8.00000000E-01  8.00000000E-01  1.50000000E+00
  1.50000000E+00  8.00000000E-01  8.00000000E-01  1.50000000E+00  1.50000000E+00
  8.00000000E-01  8.00000000E-01  1.50000000E+00  1.50000000E+00  8.00000000E-01
  8.00000000E-01  1.50000000E+00  1.50000000E+00  8.00000000E-01  8.00000000E-01
  1.50000000E+00  1.50000000E+00  8.00000000E-01  8.00000000E-01  1.50000000E+00
  1.50000000E+00  8.00000000E-01  8.00000000E-01  1.50000000E+00  1.50000000E+00
  8.00000000E-01  8.00000000E-01  1.50000000E+00  1.50000000E+00  8.00000000E-01
  8.00000000E-01  1.50000000E+00  1.50000000E+00  8.00000000E-01  8.00000000E-01
  1.50000000E+00  1.50000000E+00  8.00000000E-01  8.00000000E-01  1.50000000E+00
  1.50000000E+00  8.00000000E-01  8.00000000E-01  1.50000000E+00  1.50000000E+00
  8.00000000E-01  8.00000000E-01  1.50000000E+00  1.50000000E+00  8.00000000E-01
  8.00000000E-01  1.50000000E+00  1.50000000E+00  8.00000000E-01  8.00000000E-01
  1.50000000E+00  1.50000000E+00  8.00000000E-01  8.00000000E-01  1.50000000E+00
  1.50000000E+00  8.00000000E-01  8.00000000E-01  1.50000000E+00  1.50000000E+00
  8.00000000E-01  8.00000000E-01  1.50000000E+00  1.50000000E+00  8.00000000E-01
  8.00000000E-01  1.50000000E+00  1.50000000E+00  8.00000000E-01  8.00000000E-01
  1.50000000E+00  1.50000000E+00  8.00000000E-01  8.00000000E-01  1.50000000E+00
  1.50000000E+00  8.00000000E-01  8.00000000E-01  1.50000000E+00  1.50000000E+00
  8.00000000E-01  8.00000000E-01  1.50000000E+00  1.50000000E+00  8.00000000E-01
  8.00000000E-01  1.50000000E+00  1.50000000E+00  8.00000000E-01  8.00000000E-01
  1.50000000E+00  1.50000000E+00  8.00000000E-01  8.00000000E-01  1.50000000E+00
  1.50000000E+00  8.00000000E-01  8.00000000E-01  1.50000000E+00  1.50000000E+00
  8.00000000E-01  8.00000000E-01  1.50000000E+00  1.50000000E+00  8.00000000E-01
  8.00000000E-01  1.50000000E+00  1.50000000E+00  8.00000000E-01  8.00000000E-01
  1.50000000E+00  1.50000000E+00  8.00000000E-01  8.00000000E-01  1.50000000E+00
  1.50000000E+00  8.00000000E-01  8.00000000E-01  1.50000000E+00  1.50000000E+00
  8.00000000E-01  8.00000000E-01  1.50000000E+00  1.50000000E+00  8.00000000E-01
  8.00000000E-01  1.50000000E+00  1.50000000E+00  8.00000000E-01  8.00000000E-01
  1.50000000E+00  1.50000000E+00  8.00000000E-01  8.00000000E-01  1.50000000E+00
  1.50000000E+00  8.00000000E-01  8.00000000E-01  1.50000000E+00  1.50000000E+00
  8.00000000E-01  8.00000000E-01  1.50000000E+00  1.50000000E+00  8.00000000E-01
  8.00000000E-01  1.50000000E+00  1.50000000E+00  8.00000000E-01  8.00000000E-01
  1.50000000E+00  1.50000000E+00  8.00000000E-01  8.00000000E-01  1.50000000E+00
  1.50000000E+00  8.00000000E-01  8.00000000E-01  1.50000000E+00  1.50000000E+00
  8.00000000E-01  8.00000000E-01  1.50000000E+00  1.50000000E+00  8.00000000E-01
  8.00000000E-01  1.50000000E+00  1.50000000E+00  8.00000000E-01  8.00000000E-01
  1.50000000E+00  1.50000000E+00  8.00000000E-01  8.00000000E-01  1.50000000E+00
  1.50000000E+00  8.00000000E-01  8.00000000E-01  1.50000000E+00  1.50000000E+00
  8.00000000E-01  8.00000000E-01  1.50000000E+00  1.50000000E+00  8.00000000E-01
  8.00000000E-01  1.50000000E+00  1.50000000E+00  8.00000000E-01  8.00000000E-01
  1.50000000E+00  1.50000000E+00  8.00000000E-01  8.00000000E-01  1.50000000E+00
  1.50000000E+00  8.00000000E-01  8.00000000E-01  1.50000000E+00  1.50000000E+00
  8.00000000E-01  8.00000000E-01  1.50000000E+00  1.50000000E+00  8.00000000E-01
  8.00000000E-01  1.50000000E+00  1.50000000E+00  8.00000000E-01  8.00000000E-01
  1.50000000E+00  1.50000000E+00  8.00000000E-01  8.00000000E-01  1.50000000E+00
  1.50000000E+00  8.00000000E-01  8.00000000E-01  1.50000000E+00  1.50000000E+00
  8.00000000E-01  8.00000000E-01  1.50000000E+00  1.50000000E+00  8.00000000E-01
  8.00000000E-01  1.50000000E+00  1.50000000E+00  8.00000000E-01  8.00000000E-01
  1.50000000E+00  1.50000000E+00  8.00000000E-01  8.00000000E-01  1.50000000E+00
  1.50000000E+00  8.00000000E-01  8.00000000E-01  1.50000000E+00  1.50000000E+00
  8.00000000E-01  8.00000000E-01  1.50000000E+00  1.50000000E+00  8.00000000E-01
  8.00000000E-01  1.50000000E+00  1.50000000E+00  8.00000000E-01  8.00000000E-01
  1.50000000E+00  1.50000000E+00  8.00000000E-01  8.00000000E-01  1.50000000E+00
  1.50000000E+00  8.00000000E-01  8.00000000E-01  1.50000000E+00  1.50000000E+00
  8.00000000E-01  8.00000000E-01  1.50000000E+00  1.50000000E+00  8.00000000E-01
  8.00000000E-01  1.50000000E+00  1.50000000E+00  8.00000000E-01  8.00000000E-01
  1.50000000E+00  1.50000000E+00  8.00000000E-01  8.00000000E-01  1.50000000E+00
  1.50000000E+00  8.00000000E-01  8.00000000E-01  1.50000000E+00  1.50000000E+00
  8.00000000E-01  8.00000000E-01  1.50000000E+00  1.50000000E+00  8.00000000E-01
  8.00000000E-01  1.50000000E+00  1.50000000E+00  8.00000000E-01  8.00000000E-01
  1.50000000E+00  1.50000000E+00  8.00000000E-01  8.00000000E-01  1.50000000E+00
  1.50000000E+00  8.00000000E-01  8.00000000E-01  1.50000000E+00  1.50000000E+00
  8.00000000E-01  8.00000000E-01  1.50000000E+00  1.50000000E+00  8.00000000E-01
  8.00000000E-01  1.50000000E+00  1.50000000E+00  8.00000000E-01  8.00000000E-01
  1.50000000E+00  1.50000000E+00  8.00000000E-01  8.00000000E-01  1.50000000E+00
  1.50000000E+00  8.00000000E-01  8.00000000E-01  1.50000000E+00  1.50000000E+00
  8.00000000E-01  8.00000000E-01  1.50000000E+00  1.50000000E+00  8.00000000E-01
  8.00000000E-01  1.50000000E+00  1.50000000E+00  8.00000000E-01  8.00000000E-01
  1.50000000E+00  1.50000000E+00  8.00000000E-01  8.00000000E-01  1.50000000E+00
  1.50000000E+00  8.00000000E-01  8.00000000E-01  1.50000000E+00  1.50000000E+00
  8.00000000E-01  8.00000000E-01  1.50000000E+00  1.50000000E+00  8.00000000E-01
  8.00000000E-01  1.50000000E+00  1.50000000E+00  8.00000000E-01  8.00000000E-01
  1.50000000E+00  1.50000000E+00  8.00000000E-01  8.00000000E-01  1.50000000E+00
  1.50000000E+00  8.00000000E-01  8.00000000E-01  1.50000000E+00  1.50000000E+00
  8.00000000E-01  8.00000000E-01  1.50000000E+00  1.50000000E+00  8.00000000E-01
  8.00000000E-01  1.50000000E+00  1.50000000E+00  8.00000000E-01  8.00000000E-01
  1.50000000E+00  1.50000000E+00  8.00000000E-01  8.00000000E-01  1.50000000E+00
  1.50000000E+00  8.00000000E-01  8.00000000E-01  1.50000000E+00  1.50000000E+00
  8.00000000E-01  8.00000000E-01  1.50000000E+00  1.50000000E+00  8.00000000E-01
  8.00000000E-01  1.50000000E+00  1.50000000E+00  8.00000000E-01  8.00000000E-01
  1.50000000E+00  1.50000000E+00  8.00000000E-01  8.00000000E-01  1.50000000E+00
  1.50000000E+00  8.00000000E-01  8.00000000E-01  1.50000000E+00  1.50000000E+00
  8.00000000E-01  8.00000000E-01  1.50000000E+00  1.50000000E+00  8.00000000E-01
  8.00000000E-01  1.50000000E+00  1.50000000E+00  8.00000000E-01  8.00000000E-01
  1.50000000E+00  1.50000000E+00  8.00000000E-01  8.00000000E-01  1.50000000E+00
  1.50000000E+00  8.00000000E-01  8.00000000E-01  1.50000000E+00  1.50000000E+00
  8.00000000E-01  8.00000000E-01  1.50000000E+00  1.50000000E+00  8.00000000E-01
  8.00000000E-01  1.50000000E+00  1.50000000E+00  8.00000000E-01  8.00000000E-01
  1.50000000E+00  1.50000000E+00  8.00000000E-01  8.00000000E-01  1.50000000E+00
  1.50000000E+00  8.00000000E-01  8.00000000E-01  1.50000000E+00  1.50000000E+00
  8.00000000E-01  8.00000000E-01  1.50000000E+00  1.50000000E+00  8.00000000E-01
  8.00000000E-01  1.50000000E+00  1.50000000E+00  8.00000000E-01  8.00000000E-01
  1.50000000E+00  1.50000000E+00  8.00000000E-01  8.00000000E-01  1.50000000E+00
  1.50000000E+00  8.00000000E-01  8.00000000E-01  1.50000000E+00  1.50000000E+00
  8.00000000E-01  8.00000000E-01  1.50000000E+00  1.50000000E+00  8.00000000E-01
  8.00000000E-01  1.50000000E+00  1.50000000E+00  8.00000000E-01  8.00000000E-01
  1.50000000E+00  1.50000000E+00  8.00000000E-01  8.00000000E-01  1.50000000E+00
  1.50000000E+00  8.00000000E-01  8.00000000E-01  1.50000000E+00  1.50000000E+00
  8.00000000E-01  8.00000000E-01  1.50000000E+00  1.50000000E+00  8.00000000E-01
  8.00000000E-01  1.50000000E+00  1.50000000E+00  8.00000000E-01  8.00000000E-01
  1.50000000E+00  1.50000000E+00  8.00000000E-01  8.00000000E-01  1.50000000E+00
  1.50000000E+00  8.00000000E-01  8.00000000E-01  1.50000000E+00  1.50000000E+00
  8.00000000E-01  8.00000000E-01  1.50000000E+00  1.50000000E+00  8.00000000E-01
  8.00000000E-01  1.50000000E+00  1.50000000E+00  8.00000000E-01  8.00000000E-01
  1.50000000E+00  1.50000000E+00  8.00000000E-01  8.00000000E-01  1.50000000E+00
  1.50000000E+00  8.00000000E-01  8.00000000E-01  1.50000000E+00  1.50000000E+00
  8.00000000E-01  8.00000000E-01  1.50000000E+00  1.50000000E+00  8.00000000E-01
  8.00000000E-01  1.50000000E+00  1.50000000E+00  8.00000000E-01  8.00000000E-01
  1.50000000E+00  1.50000000E+00  8.00000000E-01  8.00000000E-01  1.50000000E+00
  1.50000000E+00  8.00000000E-01  8.00000000E-01  1.50000000E+00  1.50000000E+00
  8.00000000E-01  8.00000000E-01  1.50000000E+00  1.50000000E+00  8.00000000E-01
  8.00000000E-01  1.50000000E+00  1.50000000E+00  8.00000000E-01  8.00000000E-01
  1.50000000E+00  1.50000000E+00  8.00000000E-01  8.00000000E-01  1.50000000E+00
  1.50000000E+00  8.00000000E-01  8.00000000E-01  1.50000000E+00  1.50000000E+00
  8.00000000E-01  8.00000000E-01  1.50000000E+00  1.50000000E+00  8.00000000E-01
  8.00000000E-01  1.50000000E+00  1.50000000E+00  8.00000000E-01  8.00000000E-01
  1.50000000E+00  1.50000000E+00  8.00000000E-01  8.00000000E-01  1.50000000E+00
  1.50000000E+00  8.00000000E-01  8.00000000E-01  1.50000000E+00  1.50000000E+00
  8.00000000E-01  8.00000000E-01  1.50000000E+00  1.50000000E+00  8.00000000E-01
  8.00000000E-01  1.50000000E+00  1.50000000E+00  8.00000000E-01  8.00000000E-01
  1.50000000E+00  1.50000000E+00  8.00000000E-01  8.00000000E-01  1.50000000E+00
  1.50000000E+00  8.00000000E-01  8.00000000E-01  1.50000000E+00  1.50000000E+00
  8.00000000E-01  8.00000000E-01  1.50000000E+00  1.50000000E+00  8.00000000E-01
  8.00000000E-01  1.50000000E+00  1.50000000E+00  8.00000000E-01  8.00000000E-01
  1.50000000E+00  1.50000000E+00  8.00000000E-01  8.00000000E-01  1.50000000E+00
  1.50000000E+00  8.00000000E-01  8.00000000E-01  1.50000000E+00  1.50000000E+00
  8.00000000E-01  8.00000000E-01  1.50000000E+00  1.50000000E+00  8.00000000E-01
  8.00000000E-01  1.50000000E+00  1.50000000E+00  8.00000000E-01  8.00000000E-01
  1.50000000E+00  1.50000000E+00  8.00000000E-01  8.00000000E-01  1.50000000E+00
  1.50000000E+00  8.00000000E-01  8.00000000E-01  1.50000000E+00  1.50000000E+00
  8.00000000E-01  8.00000000E-01  1.50000000E+00  1.50000000E+00  8.00000000E-01
  8.00000000E-01  1.50000000E+00  1.50000000E+00  8.00000000E-01  8.00000000E-01
  1.50000000E+00  1.50000000E+00  8.00000000E-01  8.00000000E-01  1.50000000E+00
  1.50000000E+00  8.00000000E-01  8.00000000E-01  1.50000000E+00  1.50000000E+00
  8.00000000E-01  8.00000000E-01  1.50000000E+00  1.50000000E+00  8.00000000E-01
  8.00000000E-01  1.50000000E+00  1.50000000E+00  8.00000000E-01  8.00000000E-01
  1.50000000E+00  1.50000000E+00  8.00000000E-01  8.00000000E-01  1.50000000E+00
  1.50000000E+00  8.00000000E-01  8.00000000E-01  1.50000000E+00  1.50000000E+00
  8.00000000E-01  8.00000000E-01  1.50000000E+00  1.50000000E+00  8.00000000E-01
  8.00000000E-01  1.50000000E+00  1.50000000E+00  8.00000000E-01  8.00000000E-01
  1.50000000E+00  1.50000000E+00  8.00000000E-01  8.00000000E-01  1.50000000E+00
  1.50000000E+00  8.00000000E-01  8.00000000E-01  1.50000000E+00  1.50000000E+00
  8.00000000E-01  8.00000000E-01  1.50000000E+00  1.50000000E+00  8.00000000E-01
  8.00000000E-01  1.50000000E+00  1.50000000E+00  8.00000000E-01  8.00000000E-01
  1.50000000E+00  1.50000000E+00  8.00000000E-01  8.00000000E-01  1.50000000E+00
  1.50000000E+00  8.00000000E-01  8.00000000E-01  1.50000000E+00  1.50000000E+00
  8.00000000E-01  8.00000000E-01  1.50000000E+00  1.50000000E+00  8.00000000E-01
  8.00000000E-01  1.50000000E+00  1.50000000E+00  8.00000000E-01  8.00000000E-01
  1.50000000E+00  1.50000000E+00  8.00000000E-01  8.00000000E-01  1.50000000E+00
  1.50000000E+00  8.00000000E-01  8.00000000E-01  1.50000000E+00  1.50000000E+00
  8.00000000E-01  8.00000000E-01  1.50000000E+00  1.50000000E+00  8.00000000E-01
  8.00000000E-01  1.50000000E+00  1.50000000E+00  8.00000000E-01  8.00000000E-01
  1.50000000E+00  1.50000000E+00  8.00000000E-01  8.00000000E-01  1.50000000E+00
  1.50000000E+00  8.00000000E-01  8.00000000E-01  1.50000000E+00  1.50000000E+00
  8.00000000E-01  8.00000000E-01  1.50000000E+00  1.50000000E+00  8.00000000E-01
  8.00000000E-01  1.50000000E+00  1.50000000E+00  8.00000000E-01  8.00000000E-01
  1.50000000E+00  1.50000000E+00  8.00000000E-01  8.00000000E-01  1.50000000E+00
  1.50000000E+00  8.00000000E-01  8.00000000E-01  1.50000000E+00  1.50000000E+00
  8.00000000E-01  8.00000000E-01  1.50000000E+00  1.50000000E+00  8.00000000E-01
  8.00000000E-01  1.50000000E+00  1.50000000E+00  8.00000000E-01  8.00000000E-01
  1.50000000E+00  1.50000000E+00  8.00000000E-01  8.00000000E-01  1.50000000E+00
  1.50000000E+00  8.00000000E-01  8.00000000E-01  1.50000000E+00  1.50000000E+00
  8.00000000E-01  8.00000000E-01  1.50000000E+00  1.50000000E+00  8.00000000E-01
  8.00000000E-01  1.50000000E+00  1.50000000E+00  8.00000000E-01  8.00000000E-01
  1.50000000E+00  1.50000000E+00  8.00000000E-01  8.00000000E-01  1.50000000E+00
  1.50000000E+00  8.00000000E-01  8.00000000E-01  1.50000000E+00  1.50000000E+00
  8.00000000E-01  8.00000000E-01  1.50000000E+00  1.50000000E+00  8.00000000E-01
  8.00000000E-01  1.50000000E+00  1.50000000E+00  8.00000000E-01  8.00000000E-01
  1.50000000E+00  1.50000000E+00  8.00000000E-01  8.00000000E-01  1.50000000E+00
  1.50000000E+00  8.00000000E-01  8.00000000E-01  1.50000000E+00  1.50000000E+00
  8.00000000E-01  8.00000000E-01  1.50000000E+00  1.50000000E+00  8.00000000E-01
  8.00000000E-01  1.50000000E+00  1.50000000E+00  8.00000000E-01  8.00000000E-01
  1.50000000E+00  1.50000000E+00  8.00000000E-01  8.00000000E-01  1.50000000E+00
  1.50000000E+00  8.00000000E-01  8.00000000E-01  1.50000000E+00  1.50000000E+00
  8.00000000E-01  8.00000000E-01  1.50000000E+00  1.50000000E+00  8.00000000E-01
  8.00000000E-01  1.50000000E+00  1.50000000E+00  8.00000000E-01  8.00000000E-01
  1.50000000E+00  1.50000000E+00  8.00000000E-01  8.00000000E-01  1.50000000E+00
  1.50000000E+00  8.00000000E-01  8.00000000E-01  1.50000000E+00  1.50000000E+00
  8.00000000E-01  8.00000000E-01  1.50000000E+00  1.50000000E+00  8.00000000E-01
  8.00000000E-01  1.50000000E+00  1.50000000E+00  8.00000000E-01  8.00000000E-01
  1.50000000E+00  1.50000000E+00  8.00000000E-01  8.00000000E-01  1.50000000E+00
  1.50000000E+00  8.00000000E-01  8.00000000E-01  1.50000000E+00  1.50000000E+00
  8.00000000E-01  8.00000000E-01  1.50000000E+00  1.50000000E+00  8.00000000E-01
  8.00000000E-01  1.50000000E+00  1.50000000E+00  8.00000000E-01  8.00000000E-01
  1.50000000E+00  1.50000000E+00  8.00000000E-01  8.00000000E-01  1.50000000E+00
  1.50000000E+00  8.00000000E-01  8.00000000E-01  1.50000000E+00  1.50000000E+00
  8.00000000E-01  8.00000000E-01  1.50000000E+00  1.50000000E+00  8.00000000E-01
  8.00000000E-01  1.50000000E+00  1.50000000E+00  8.00000000E-01  8.00000000E-01
  1.50000000E+00  1.50000000E+00  8.00000000E-01  8.00000000E-01  1.50000000E+00
  1.50000000E+00  8.00000000E-01  8.00000000E-01  1.50000000E+00  1.50000000E+00
  8.00000000E-01  8.00000000E-01  1.50000000E+00  1.50000000E+00  8.00000000E-01
  8.00000000E-01  1.50000000E+00  1.50000000E+00  8.00000000E-01  8.00000000E-01
  1.50000000E+00  1.50000000E+00  8.00000000E-01  8.00000000E-01  1.50000000E+00
  1.50000000E+00  8.00000000E-01  8.00000000E-01  1.50000000E+00  1.50000000E+00
  8.00000000E-01  8.00000000E-01  1.50000000E+00  1.50000000E+00  8.00000000E-01
  8.00000000E-01  1.50000000E+00  1.50000000E+00  8.00000000E-01  8.00000000E-01
  1.50000000E+00  1.50000000E+00  8.00000000E-01  8.00000000E-01  1.50000000E+00
  1.50000000E+00  8.00000000E-01  8.00000000E-01  1.50000000E+00  1.50000000E+00
  8.00000000E-01  8.00000000E-01  1.50000000E+00  1.50000000E+00  8.00000000E-01
  8.00000000E-01  1.50000000E+00  1.50000000E+00  8.00000000E-01  8.00000000E-01
  1.50000000E+00  1.50000000E+00  8.00000000E-01  8.00000000E-01  1.50000000E+00
  1.50000000E+00  8.00000000E-01  8.00000000E-01  1.50000000E+00  1.50000000E+00
  8.00000000E-01  8.00000000E-01  1.50000000E+00  1.50000000E+00  8.00000000E-01
  8.00000000E-01  1.50000000E+00  1.50000000E+00  8.00000000E-01  8.00000000E-01
  1.50000000E+00  1.50000000E+00  8.00000000E-01  8.00000000E-01  1.50000000E+00
  1.50000000E+00  8.00000000E-01  8.00000000E-01  1.50000000E+00  1.50000000E+00
  8.00000000E-01  8.00000000E-01  1.50000000E+00  1.50000000E+00  8.00000000E-01
  8.00000000E-01  1.50000000E+00  1.50000000E+00  8.00000000E-01  8.00000000E-01
  1.50000000E+00  1.50000000E+00  8.00000000E-01  8.00000000E-01  1.50000000E+00
  1.50000000E+00  8.00000000E-01  8.00000000E-01  1.50000000E+00  1.50000000E+00
  8.00000000E-01  8.00000000E-01  1.50000000E+00  1.50000000E+00  8.00000000E-01
  8.00000000E-01  1.50000000E+00  1.50000000E+00  8.00000000E-01  8.00000000E-01
  1.50000000E+00  1.50000000E+00  8.00000000E-01  8.00000000E-01  1.50000000E+00
  1.50000000E+00  8.00000000E-01  8.00000000E-01  1.50000000E+00  1.50000000E+00
  8.00000000E-01  8.00000000E-01  1.50000000E+00  1.50000000E+00  8.00000000E-01
  8.00000000E-01  1.50000000E+00  1.50000000E+00  8.00000000E-01  8.00000000E-01
  1.50000000E+00  1.50000000E+00  8.00000000E-01  8.00000000E-01  1.50000000E+00
  1.50000000E+00  8.00000000E-01  8.00000000E-01  1.50000000E+00  1.50000000E+00
  8.00000000E-01  8.00000000E-01  1.50000000E+00  1.50000000E+00  8.00000000E-01
  8.00000000E-01  1.50000000E+00  1.50000000E+00  8.00000000E-01  8.00000000E-01
  1.50000000E+00  1.50000000E+00  8.00000000E-01  8.00000000E-01  1.50000000E+00
  1.50000000E+00  8.00000000E-01  8.00000000E-01  1.50000000E+00  1.50000000E+00
  8.00000000E-01  8.00000000E-01  1.50000000E+00  1.50000000E+00  8.00000000E-01
  8.00000000E-01  1.50000000E+00  1.50000000E+00  8.00000000E-01  8.00000000E-01
  1.50000000E+00  1.50000000E+00  8.00000000E-01  8.00000000E-01  1.50000000E+00
  1.50000000E+00  8.00000000E-01  8.00000000E-01  1.50000000E+00  1.50000000E+00
  8.00000000E-01  8.00000000E-01  1.50000000E+00  1.50000000E+00  8.00000000E-01
  8.00000000E-01  1.50000000E+00  1.50000000E+00  8.00000000E-01  8.00000000E-01
  1.50000000E+00  1.50000000E+00  8.00000000E-01  8.00000000E-01  1.50000000E+00
  1.50000000E+00  8.00000000E-01  8.00000000E-01  1.50000000E+00  1.50000000E+00
  8.00000000E-01  8.00000000E-01  1.50000000E+00  1.50000000E+00  8.00000000E-01
  8.00000000E-01  1.50000000E+00  1.50000000E+00  8.00000000E-01  8.00000000E-01
  1.50000000E+00  1.50000000E+00  8.00000000E-01  8.00000000E-01  1.50000000E+00
  1.50000000E+00  8.00000000E-01  8.00000000E-01  1.50000000E+00  1.50000000E+00
  8.00000000E-01  8.00000000E-01  1.50000000E+00  1.50000000E+00  8.00000000E-01
  8.00000000E-01  1.50000000E+00  1.50000000E+00  8.00000000E-01  8.00000000E-01
  1.50000000E+00  1.50000000E+00  8.00000000E-01  8.00000000E-01  1.50000000E+00
  1.50000000E+00  8.00000000E-01  8.00000000E-01  1.50000000E+00  1.50000000E+00
  8.00000000E-01  8.00000000E-01  1.50000000E+00  1.50000000E+00  8.00000000E-01
  8.00000000E-01  1.50000000E+00  1.50000000E+00  8.00000000E-01  8.00000000E-01
  1.50000000E+00  1.50000000E+00  8.00000000E-01  8.00000000E-01  1.50000000E+00
  1.50000000E+00  8.00000000E-01  8.00000000E-01  1.50000000E+00  1.50000000E+00
  8.00000000E-01  8.00000000E-01  1.50000000E+00  1.50000000E+00  8.00000000E-01
  8.00000000E-01  1.50000000E+00  1.50000000E+00  8.00000000E-01  8.00000000E-01
  1.50000000E+00  1.50000000E+00  8.00000000E-01  8.00000000E-01  1.50000000E+00
  1.50000000E+00  8.00000000E-01  8.00000000E-01  1.50000000E+00  1.50000000E+00
  8.00000000E-01  8.00000000E-01  1.50000000E+00  1.50000000E+00  8.00000000E-01
  8.00000000E-01  1.50000000E+00  1.50000000E+00  8.00000000E-01  8.00000000E-01
  1.50000000E+00  1.50000000E+00  8.00000000E-01  8.00000000E-01  1.50000000E+00
  1.50000000E+00  8.00000000E-01  8.00000000E-01  1.50000000E+00  1.50000000E+00
  8.00000000E-01  8.00000000E-01  1.50000000E+00  1.50000000E+00  8.00000000E-01
  8.00000000E-01  1.50000000E+00  1.50000000E+00  8.00000000E-01  8.00000000E-01
  1.50000000E+00  1.50000000E+00  8.00000000E-01  8.00000000E-01  1.50000000E+00
  1.50000000E+00  8.00000000E-01  8.00000000E-01  1.50000000E+00  1.50000000E+00
  8.00000000E-01  8.00000000E-01  1.50000000E+00  1.50000000E+00  8.00000000E-01
  8.00000000E-01  1.50000000E+00  1.50000000E+00  8.00000000E-01  8.00000000E-01
  1.50000000E+00  1.50000000E+00  8.00000000E-01  8.00000000E-01  1.50000000E+00
  1.50000000E+00  8.00000000E-01  8.00000000E-01  1.50000000E+00  1.50000000E+00
  8.00000000E-01  8.00000000E-01  1.50000000E+00  1.50000000E+00  8.00000000E-01
  8.00000000E-01  1.50000000E+00  1.50000000E+00  8.00000000E-01  8.00000000E-01
  1.50000000E+00  1.50000000E+00  8.00000000E-01  8.00000000E-01  1.50000000E+00
  1.50000000E+00  8.00000000E-01  8.00000000E-01  1.50000000E+00  1.50000000E+00
  8.00000000E-01  8.00000000E-01  1.50000000E+00  1.50000000E+00  8.00000000E-01
  8.00000000E-01  1.50000000E+00  1.50000000E+00  8.00000000E-01  8.00000000E-01
  1.50000000E+00  1.50000000E+00  8.00000000E-01  8.00000000E-01  1.50000000E+00
  1.50000000E+00  8.00000000E-01  8.00000000E-01  1.50000000E+00  1.50000000E+00
  8.00000000E-01  8.00000000E-01  1.50000000E+00  1.50000000E+00  8.00000000E-01
  8.00000000E-01  1.50000000E+00  1.50000000E+00  8.00000000E-01  8.00000000E-01
  1.50000000E+00  1.50000000E+00  8.00000000E-01  8.00000000E-01  1.50000000E+00
  1.50000000E+00  8.00000000E-01  8.00000000E-01  1.50000000E+00  1.50000000E+00
  8.00000000E-01  8.00000000E-01  1.50000000E+00  1.50000000E+00  8.00000000E-01
  8.00000000E-01  1.50000000E+00  1.50000000E+00  8.00000000E-01  8.00000000E-01
  1.50000000E+00  1.50000000E+00  8.00000000E-01  8.00000000E-01  1.50000000E+00
  1.50000000E+00  8.00000000E-01  8.00000000E-01  1.50000000E+00  1.50000000E+00
  8.00000000E-01  8.00000000E-01  1.50000000E+00  1.50000000E+00  8.00000000E-01
  8.00000000E-01  1.50000000E+00  1.50000000E+00  8.00000000E-01  8.00000000E-01
  1.50000000E+00  1.50000000E+00  8.00000000E-01  8.00000000E-01  1.50000000E+00
  1.50000000E+00  8.00000000E-01  8.00000000E-01  1.50000000E+00  1.50000000E+00
  8.00000000E-01  8.00000000E-01  1.50000000E+00  1.50000000E+00  8.00000000E-01
  8.00000000E-01  1.50000000E+00  1.50000000E+00  8.00000000E-01  8.00000000E-01
  1.50000000E+00  1.50000000E+00  8.00000000E-01  8.00000000E-01  1.50000000E+00
  1.50000000E+00  8.00000000E-01  8.00000000E-01  1.50000000E+00  1.50000000E+00
  8.00000000E-01  8.00000000E-01  1.50000000E+00  1.50000000E+00  8.00000000E-01
  8.00000000E-01  1.50000000E+00  1.50000000E+00  8.00000000E-01  8.00000000E-01
  1.50000000E+00  1.50000000E+00  8.00000000E-01  8.00000000E-01  1.50000000E+00
  1.50000000E+00  8.00000000E-01  8.00000000E-01  1.50000000E+00  1.50000000E+00
  8.00000000E-01  8.00000000E-01  1.50000000E+00  1.50000000E+00  8.00000000E-01
  8.00000000E-01  1.50000000E+00  1.50000000E+00  8.00000000E-01  8.00000000E-01
  1.50000000E+00  1.50000000E+00  8.00000000E-01  8.00000000E-01  1.50000000E+00
  1.50000000E+00  8.00000000E-01  8.00000000E-01  1.50000000E+00  1.50000000E+00
  8.00000000E-01  8.00000000E-01  1.50000000E+00  1.50000000E+00  8.00000000E-01
  8.00000000E-01  1.50000000E+00  1.50000000E+00  8.00000000E-01  8.00000000E-01
  1.50000000E+00  1.50000000E+00  8.00000000E-01  8.00000000E-01  1.50000000E+00
  1.50000000E+00  8.00000000E-01  8.00000000E-01  1.50000000E+00  1.50000000E+00
  8.00000000E-01  8.00000000E-01  1.50000000E+00  1.50000000E+00  8.00000000E-01
  8.00000000E-01  1.50000000E+00  1.50000000E+00  8.00000000E-01  8.00000000E-01
  1.50000000E+00  1.50000000E+00  8.00000000E-01  8.00000000E-01  1.50000000E+00
  1.50000000E+00  8.00000000E-01  8.00000000E-01  1.50000000E+00  1.50000000E+00
  8.00000000E-01  8.00000000E-01  1.50000000E+00  1.50000000E+00  8.00000000E-01
  8.00000000E-01  1.50000000E+00  1.50000000E+00  8.00000000E-01  8.00000000E-01
  1.50000000E+00  1.50000000E+00  8.00000000E-01  8.00000000E-01  1.50000000E+00
  1.50000000E+00  8.00000000E-01  8.00000000E-01  1.50000000E+00  1.50000000E+00
  8.00000000E-01  8.00000000E-01  1.50000000E+00  1.50000000E+00  8.00000000E-01
  8.00000000E-01  1.50000000E+00  1.50000000E+00  8.00000000E-01  8.00000000E-01
  1.50000000E+00  1.50000000E+00  8.00000000E-01  8.00000000E-01  1.50000000E+00
  1.50000000E+00  8.00000000E-01  8.00000000E-01  1.50000000E+00  1.50000000E+00
  8.00000000E-01  8.00000000E-01  1.50000000E+00  1.50000000E+00  8.00000000E-01
  8.00000000E-01  1.50000000E+00  1.50000000E+00  8.00000000E-01  8.00000000E-01
  1.50000000E+00  1.50000000E+00  8.00000000E-01  8.00000000E-01  1.50000000E+00
  1.50000000E+00  8.00000000E-01  8.00000000E-01  1.50000000E+00  1.50000000E+00
  8.00000000E-01  8.00000000E-01  1.50000000E+00  1.50000000E+00  8.00000000E-01
  8.00000000E-01  1.50000000E+00  1.50000000E+00  8.00000000E-01  8.00000000E-01
  1.50000000E+00  1.50000000E+00  8.00000000E-01  8.00000000E-01  1.50000000E+00
  1.50000000E+00  8.00000000E-01  8.00000000E-01  1.50000000E+00  1.50000000E+00
  8.00000000E-01  8.00000000E-01  1.50000000E+00  1.50000000E+00  8.00000000E-01
  8.00000000E-01  1.50000000E+00  1.50000000E+00  8.00000000E-01  8.00000000E-01
  1.50000000E+00  1.50000000E+00  8.00000000E-01  8.00000000E-01  1.50000000E+00
  1.50000000E+00  8.00000000E-01  8.00000000E-01  1.50000000E+00  1.50000000E+00
  8.00000000E-01  8.00000000E-01  1.50000000E+00  1.50000000E+00  8.00000000E-01
  8.00000000E-01  1.50000000E+00  1.50000000E+00  8.00000000E-01  8.00000000E-01
  1.50000000E+00  1.50000000E+00  8.00000000E-01  8.00000000E-01  1.50000000E+00
  1.50000000E+00  8.00000000E-01  8.00000000E-01  1.50000000E+00  1.50000000E+00
  8.00000000E-01  8.00000000E-01  1.50000000E+00  1.50000000E+00  8.00000000E-01
  8.00000000E-01  1.50000000E+00  1.50000000E+00  8.00000000E-01  8.00000000E-01
  1.50000000E+00  1.50000000E+00  8.00000000E-01  8.00000000E-01  1.50000000E+00
  1.50000000E+00  8.00000000E-01  8.00000000E-01  1.50000000E+00  1.50000000E+00
  8.00000000E-01  8.00000000E-01  1.50000000E+00  1.50000000E+00  8.00000000E-01
  8.00000000E-01  1.50000000E+00  1.50000000E+00  8.00000000E-01  8.00000000E-01
  1.50000000E+00  1.50000000E+00  8.00000000E-01  8.00000000E-01  1.50000000E+00
  1.50000000E+00  8.00000000E-01  8.00000000E-01  1.50000000E+00  1.50000000E+00
  8.00000000E-01  8.00000000E-01  1.50000000E+00  1.50000000E+00  8.00000000E-01
  8.00000000E-01  1.50000000E+00  1.50000000E+00  8.00000000E-01  8.00000000E-01
  1.50000000E+00  1.50000000E+00  8.00000000E-01  8.00000000E-01  1.50000000E+00
  1.50000000E+00  8.00000000E-01  8.00000000E-01  1.50000000E+00  1.50000000E+00
  8.00000000E-01  8.00000000E-01  1.50000000E+00  1.50000000E+00  8.00000000E-01
  8.00000000E-01  1.50000000E+00  1.50000000E+00  8.00000000E-01  8.00000000E-01
  1.50000000E+00  1.50000000E+00  8.00000000E-01  8.00000000E-01  1.50000000E+00
  1.50000000E+00  8.00000000E-01  8.00000000E-01  1.50000000E+00  1.50000000E+00
  8.00000000E-01  8.00000000E-01  1.50000000E+00  1.50000000E+00  8.00000000E-01
  8.00000000E-01  1.50000000E+00  1.50000000E+00  8.00000000E-01  8.00000000E-01
  1.50000000E+00  1.50000000E+00  8.00000000E-01  8.00000000E-01  1.50000000E+00
  1.50000000E+00  8.00000000E-01  8.00000000E-01  1.50000000E+00  1.50000000E+00
  8.00000000E-01  8.00000000E-01  1.50000000E+00  1.50000000E+00  8.00000000E-01
  8.00000000E-01  1.50000000E+00  1.50000000E+00  8.00000000E-01  8.00000000E-01
  1.50000000E+00  1.50000000E+00  8.00000000E-01  8.00000000E-01  1.50000000E+00
  1.50000000E+00  8.00000000E-01  8.00000000E-01  1.50000000E+00  1.50000000E+00
  8.00000000E-01  8.00000000E-01  1.50000000E+00  1.50000000E+00  8.00000000E-01
  8.00000000E-01  1.50000000E+00  1.50000000E+00  8.00000000E-01  8.00000000E-01
  1.50000000E+00  1.50000000E+00  8.00000000E-01  8.00000000E-01  1.50000000E+00
  1.50000000E+00  8.00000000E-01  8.00000000E-01  1.50000000E+00  1.50000000E+00
  8.00000000E-01  8.00000000E-01  1.50000000E+00  1.50000000E+00  8.00000000E-01
  8.00000000E-01  1.50000000E+00  1.50000000E+00  8.00000000E-01  8.00000000E-01
  1.50000000E+00  1.50000000E+00  8.00000000E-01  8.00000000E-01  1.50000000E+00
  1.50000000E+00  8.00000000E-01  8.00000000E-01  1.50000000E+00  1.50000000E+00
  8.00000000E-01  8.00000000E-01  1.50000000E+00  1.50000000E+00  8.00000000E-01
  8.00000000E-01  1.50000000E+00  1.50000000E+00  8.00000000E-01  8.00000000E-01
  1.50000000E+00  1.50000000E+00  8.00000000E-01  8.00000000E-01  1.50000000E+00
  1.50000000E+00  8.00000000E-01  8.00000000E-01  1.50000000E+00  1.50000000E+00
  8.00000000E-01  8.00000000E-01  1.50000000E+00  1.50000000E+00  8.00000000E-01
  8.00000000E-01  1.50000000E+00  1.50000000E+00  8.00000000E-01  8.00000000E-01
  1.50000000E+00  1.50000000E+00  8.00000000E-01  8.00000000E-01  1.50000000E+00
  1.50000000E+00  8.00000000E-01  8.00000000E-01  1.50000000E+00  1.50000000E+00
  8.00000000E-01  8.00000000E-01  1.50000000E+00  1.50000000E+00  8.00000000E-01
  8.00000000E-01  1.50000000E+00  1.50000000E+00  8.00000000E-01  8.00000000E-01
  1.50000000E+00  1.50000000E+00  8.00000000E-01  8.00000000E-01  1.50000000E+00
  1.50000000E+00  8.00000000E-01  8.00000000E-01  1.50000000E+00  1.50000000E+00
  8.00000000E-01  8.00000000E-01  1.50000000E+00  1.50000000E+00  8.00000000E-01
  8.00000000E-01  1.50000000E+00  1.50000000E+00  8.00000000E-01  8.00000000E-01
  1.50000000E+00  1.50000000E+00  8.00000000E-01  8.00000000E-01  1.50000000E+00
  1.50000000E+00  8.00000000E-01  8.00000000E-01  1.50000000E+00  1.50000000E+00
  8.00000000E-01  8.00000000E-01  1.50000000E+00  1.50000000E+00  8.00000000E-01
  8.00000000E-01  1.50000000E+00  1.50000000E+00  8.00000000E-01  8.00000000E-01
  1.50000000E+00  1.50000000E+00  8.00000000E-01  8.00000000E-01  1.50000000E+00
  1.50000000E+00  8.00000000E-01  8.00000000E-01  1.50000000E+00  1.50000000E+00
  8.00000000E-01  8.00000000E-01  1.50000000E+00  1.50000000E+00  8.00000000E-01
  8.00000000E-01  1.50000000E+00  1.50000000E+00  8.00000000E-01  8.00000000E-01
  1.50000000E+00  1.50000000E+00  8.00000000E-01  8.00000000E-01  1.50000000E+00
  1.50000000E+00  8.00000000E-01  8.00000000E-01  1.50000000E+00  1.50000000E+00
  8.00000000E-01  8.00000000E-01  1.50000000E+00  1.50000000E+00  8.00000000E-01
  8.00000000E-01  1.50000000E+00  1.50000000E+00  8.00000000E-01  8.00000000E-01
  1.50000000E+00  1.50000000E+00  8.00000000E-01  8.00000000E-01  1.50000000E+00
  1.50000000E+00  8.00000000E-01  8.00000000E-01  1.50000000E+00  1.50000000E+00
  8.00000000E-01  8.00000000E-01  1.50000000E+00  1.50000000E+00  8.00000000E-01
  8.00000000E-01  1.50000000E+00  1.50000000E+00  8.00000000E-01  8.00000000E-01
  1.50000000E+00  1.50000000E+00  8.00000000E-01  8.00000000E-01  1.50000000E+00
  1.50000000E+00  8.00000000E-01  8.00000000E-01  1.50000000E+00  1.50000000E+00
  8.00000000E-01  8.00000000E-01  1.50000000E+00  1.50000000E+00  8.00000000E-01
  8.00000000E-01  1.50000000E+00  1.50000000E+00  8.00000000E-01  8.00000000E-01
  1.50000000E+00  1.50000000E+00  8.00000000E-01  8.00000000E-01  1.50000000E+00
  1.50000000E+00  8.00000000E-01  8.00000000E-01  1.50000000E+00  1.50000000E+00
  8.00000000E-01  8.00000000E-01  1.50000000E+00  1.50000000E+00  8.00000000E-01
  8.00000000E-01  1.50000000E+00  1.50000000E+00  8.00000000E-01  8.00000000E-01
  1.50000000E+00  1.50000000E+00  8.00000000E-01  8.00000000E-01  1.50000000E+00
  1.50000000E+00  8.00000000E-01  8.00000000E-01  1.50000000E+00  1.50000000E+00
  8.00000000E-01  8.00000000E-01  1.50000000E+00  1.50000000E+00  8.00000000E-01
  8.00000000E-01  1.50000000E+00  1.50000000E+00  8.00000000E-01  8.00000000E-01
  1.50000000E+00  1.50000000E+00  8.00000000E-01  8.00000000E-01  1.50000000E+00
  1.50000000E+00  8.00000000E-01  8.00000000E-01  1.50000000E+00  1.50000000E+00
  8.00000000E-01  8.00000000E-01  1.50000000E+00  1.50000000E+00  8.00000000E-01
  8.00000000E-01  1.50000000E+00  1.50000000E+00  8.00000000E-01  8.00000000E-01
  1.50000000E+00  1.50000000E+00  8.00000000E-01  8.00000000E-01  1.50000000E+00
  1.50000000E+00  8.00000000E-01  8.00000000E-01  1.50000000E+00  1.50000000E+00
  8.00000000E-01  8.00000000E-01  1.50000000E+00  1.50000000E+00  8.00000000E-01
  8.00000000E-01  1.50000000E+00  1.50000000E+00  8.00000000E-01  8.00000000E-01
  1.50000000E+00  1.50000000E+00  8.00000000E-01  8.00000000E-01  1.50000000E+00
  1.50000000E+00  8.00000000E-01  8.00000000E-01  1.50000000E+00  1.50000000E+00
  8.00000000E-01  8.00000000E-01  1.50000000E+00  1.50000000E+00  8.00000000E-01
  8.00000000E-01  1.50000000E+00  1.50000000E+00  8.00000000E-01  8.00000000E-01
  1.50000000E+00  1.50000000E+00  8.00000000E-01  8.00000000E-01  1.50000000E+00
  1.50000000E+00  8.00000000E-01  8.00000000E-01  1.50000000E+00  1.50000000E+00
  8.00000000E-01  8.00000000E-01  1.50000000E+00  1.50000000E+00  8.00000000E-01
  8.00000000E-01  1.50000000E+00  1.50000000E+00  8.00000000E-01  8.00000000E-01
  1.50000000E+00  1.50000000E+00  8.00000000E-01  8.00000000E-01  1.50000000E+00
  1.50000000E+00  8.00000000E-01  8.00000000E-01  1.50000000E+00  1.50000000E+00
  8.00000000E-01  8.00000000E-01  1.50000000E+00  1.50000000E+00  8.00000000E-01
  8.00000000E-01  1.50000000E+00  1.50000000E+00  8.00000000E-01  8.00000000E-01
  1.50000000E+00  1.50000000E+00  8.00000000E-01  8.00000000E-01  1.50000000E+00
  1.50000000E+00  8.00000000E-01  8.00000000E-01  1.50000000E+00  1.50000000E+00
  8.00000000E-01  8.00000000E-01  1.50000000E+00  1.50000000E+00  8.00000000E-01
  8.00000000E-01  1.50000000E+00  1.50000000E+00  8.00000000E-01  8.00000000E-01
  1.50000000E+00  1.50000000E+00  8.00000000E-01  8.00000000E-01  1.50000000E+00
  1.50000000E+00  8.00000000E-01  8.00000000E-01  1.50000000E+00  1.50000000E+00
  8.00000000E-01  8.00000000E-01  1.50000000E+00  1.50000000E+00  8.00000000E-01
  8.00000000E-01  1.50000000E+00  1.50000000E+00  8.00000000E-01  8.00000000E-01
  1.50000000E+00  1.50000000E+00  8.00000000E-01  8.00000000E-01  1.50000000E+00
  1.50000000E+00  8.00000000E-01  8.00000000E-01  1.50000000E+00  1.50000000E+00
  8.00000000E-01  8.00000000E-01  1.50000000E+00  1.50000000E+00  8.00000000E-01
  8.00000000E-01  1.50000000E+00  1.50000000E+00  8.00000000E-01  8.00000000E-01
  1.50000000E+00  1.50000000E+00  8.00000000E-01  8.00000000E-01  1.50000000E+00
  1.50000000E+00  8.00000000E-01  8.00000000E-01  1.50000000E+00  1.50000000E+00
  8.00000000E-01  8.00000000E-01  1.50000000E+00  1.50000000E+00  8.00000000E-01
  8.00000000E-01  1.50000000E+00  1.50000000E+00  8.00000000E-01  8.00000000E-01
  1.50000000E+00  1.50000000E+00  8.00000000E-01  8.00000000E-01  1.50000000E+00
  1.50000000E+00  8.00000000E-01  8.00000000E-01  1.50000000E+00  1.50000000E+00
  8.00000000E-01  8.00000000E-01  1.50000000E+00  1.50000000E+00  8.00000000E-01
  8.00000000E-01  1.50000000E+00  1.50000000E+00  8.00000000E-01  8.00000000E-01
  1.50000000E+00  1.50000000E+00  8.00000000E-01  8.00000000E-01  1.50000000E+00
  1.50000000E+00  8.00000000E-01  8.00000000E-01  1.50000000E+00  1.50000000E+00
  8.00000000E-01  8.00000000E-01  1.50000000E+00  1.50000000E+00  8.00000000E-01
  8.00000000E-01  1.50000000E+00  1.50000000E+00  8.00000000E-01  8.00000000E-01
  1.50000000E+00  1.50000000E+00  8.00000000E-01  8.00000000E-01  1.50000000E+00
  1.50000000E+00  8.00000000E-01  8.00000000E-01  1.50000000E+00  1.50000000E+00
  8.00000000E-01  8.00000000E-01  1.50000000E+00  1.50000000E+00  8.00000000E-01
  8.00000000E-01  1.50000000E+00  1.50000000E+00  8.00000000E-01  8.00000000E-01
  1.50000000E+00  1.50000000E+00  8.00000000E-01  8.00000000E-01  1.50000000E+00
  1.50000000E+00  8.00000000E-01  8.00000000E-01  1.50000000E+00  1.50000000E+00
  8.00000000E-01  8.00000000E-01  1.50000000E+00  1.50000000E+00  8.00000000E-01
  8.00000000E-01  1.50000000E+00  1.50000000E+00  8.00000000E-01  8.00000000E-01
  1.50000000E+00  1.50000000E+00  8.00000000E-01  8.00000000E-01  1.50000000E+00
  1.50000000E+00  8.00000000E-01  8.00000000E-01  1.50000000E+00  1.50000000E+00
  8.00000000E-01  8.00000000E-01  1.50000000E+00  1.50000000E+00  8.00000000E-01
  8.00000000E-01  1.50000000E+00  1.50000000E+00  8.00000000E-01  8.00000000E-01
  1.50000000E+00  1.50000000E+00  8.00000000E-01  8.00000000E-01  1.50000000E+00
  1.50000000E+00  8.00000000E-01  8.00000000E-01  1.50000000E+00  1.50000000E+00
  8.00000000E-01  8.00000000E-01  1.50000000E+00  1.50000000E+00  8.00000000E-01
  8.00000000E-01  1.50000000E+00  1.50000000E+00  8.00000000E-01  8.00000000E-01
  1.50000000E+00  1.50000000E+00  8.00000000E-01  8.00000000E-01  1.50000000E+00
  1.50000000E+00  8.00000000E-01  8.00000000E-01  1.50000000E+00  1.50000000E+00
  8.00000000E-01  8.00000000E-01  1.50000000E+00  1.50000000E+00  8.00000000E-01
  8.00000000E-01  1.50000000E+00  1.50000000E+00  8.00000000E-01  8.00000000E-01
  1.50000000E+00  1.50000000E+00  8.00000000E-01  8.00000000E-01  1.50000000E+00
  1.50000000E+00  8.00000000E-01  8.00000000E-01  1.50000000E+00  1.50000000E+00
  8.00000000E-01  8.00000000E-01  1.50000000E+00  1.50000000E+00  8.00000000E-01
  8.00000000E-01  1.50000000E+00  1.50000000E+00  8.00000000E-01  8.00000000E-01
  1.50000000E+00  1.50000000E+00  8.00000000E-01  8.00000000E-01  1.50000000E+00
  1.50000000E+00  8.00000000E-01  8.00000000E-01  1.50000000E+00  1.50000000E+00
  8.00000000E-01  8.00000000E-01  1.50000000E+00  1.50000000E+00  8.00000000E-01
  8.00000000E-01  1.50000000E+00  1.50000000E+00  8.00000000E-01  8.00000000E-01
  1.50000000E+00  1.50000000E+00  8.00000000E-01  8.00000000E-01  1.50000000E+00
  1.50000000E+00  8.00000000E-01  8.00000000E-01  1.50000000E+00  1.50000000E+00
  8.00000000E-01  8.00000000E-01  1.50000000E+00  1.50000000E+00  8.00000000E-01
  8.00000000E-01  1.50000000E+00  1.50000000E+00  8.00000000E-01  8.00000000E-01
  1.50000000E+00  1.50000000E+00  8.00000000E-01  8.00000000E-01  1.50000000E+00
  1.50000000E+00  8.00000000E-01  8.00000000E-01  1.50000000E+00  1.50000000E+00
  8.00000000E-01  8.00000000E-01  1.50000000E+00  1.50000000E+00  8.00000000E-01
  8.00000000E-01  1.50000000E+00  1.50000000E+00  8.00000000E-01  8.00000000E-01
  1.50000000E+00  1.50000000E+00  8.00000000E-01  8.00000000E-01  1.50000000E+00
  1.50000000E+00  8.00000000E-01  8.00000000E-01  1.50000000E+00  1.50000000E+00
  8.00000000E-01  8.00000000E-01  1.50000000E+00  1.50000000E+00  8.00000000E-01
  8.00000000E-01  1.50000000E+00  1.50000000E+00  8.00000000E-01  8.00000000E-01
  1.50000000E+00  1.50000000E+00  8.00000000E-01  8.00000000E-01  1.50000000E+00
  1.50000000E+00  8.00000000E-01  8.00000000E-01  1.50000000E+00  1.50000000E+00
  8.00000000E-01  8.00000000E-01  1.50000000E+00  1.50000000E+00  8.00000000E-01
  8.00000000E-01  1.50000000E+00  1.50000000E+00  8.00000000E-01  8.00000000E-01
  1.50000000E+00  1.50000000E+00  8.00000000E-01  8.00000000E-01  1.50000000E+00
  1.50000000E+00  8.00000000E-01  8.00000000E-01  1.50000000E+00  1.50000000E+00
  8.00000000E-01  8.00000000E-01  1.50000000E+00  1.50000000E+00  8.00000000E-01
  8.00000000E-01  1.50000000E+00  1.50000000E+00  8.00000000E-01  8.00000000E-01
  1.50000000E+00  1.50000000E+00  8.00000000E-01  8.00000000E-01  1.50000000E+00
  1.50000000E+00  8.00000000E-01  8.00000000E-01  1.50000000E+00  1.50000000E+00
  8.00000000E-01  8.00000000E-01  1.50000000E+00  1.50000000E+00  8.00000000E-01
  8.00000000E-01  1.50000000E+00  1.50000000E+00  8.00000000E-01  8.00000000E-01
  1.50000000E+00  1.50000000E+00  8.00000000E-01  8.00000000E-01  1.50000000E+00
  1.50000000E+00  8.00000000E-01  8.00000000E-01  1.50000000E+00  1.50000000E+00
  8.00000000E-01  8.00000000E-01  1.50000000E+00  1.50000000E+00  8.00000000E-01
  8.00000000E-01  1.50000000E+00  1.50000000E+00  8.00000000E-01  8.00000000E-01
  1.50000000E+00  1.50000000E+00  8.00000000E-01  8.00000000E-01  1.50000000E+00
  1.50000000E+00  8.00000000E-01  8.00000000E-01  1.50000000E+00  1.50000000E+00
  8.00000000E-01  8.00000000E-01  1.50000000E+00  1.50000000E+00  8.00000000E-01
  8.00000000E-01  1.50000000E+00  1.50000000E+00  8.00000000E-01  8.00000000E-01
  1.50000000E+00  1.50000000E+00  8.00000000E-01  8.00000000E-01  1.50000000E+00
  1.50000000E+00  8.00000000E-01  8.00000000E-01  1.50000000E+00  1.50000000E+00
  8.00000000E-01  8.00000000E-01  1.50000000E+00  1.50000000E+00  8.00000000E-01
  8.00000000E-01  1.50000000E+00  1.50000000E+00  8.00000000E-01  8.00000000E-01
  1.50000000E+00  1.50000000E+00  8.00000000E-01  8.00000000E-01  1.50000000E+00
  1.50000000E+00  8.00000000E-01  8.00000000E-01  1.50000000E+00  1.50000000E+00
  8.00000000E-01  8.00000000E-01  1.50000000E+00  1.50000000E+00  8.00000000E-01
  8.00000000E-01  1.50000000E+00  1.50000000E+00  8.00000000E-01  8.00000000E-01
  1.50000000E+00  1.50000000E+00  8.00000000E-01  8.00000000E-01  1.50000000E+00
  1.50000000E+00  8.00000000E-01  8.00000000E-01  1.50000000E+00  1.50000000E+00
  8.00000000E-01  8.00000000E-01  1.50000000E+00  1.50000000E+00  8.00000000E-01
  8.00000000E-01  1.50000000E+00  1.50000000E+00  8.00000000E-01  8.00000000E-01
  1.50000000E+00  1.50000000E+00  8.00000000E-01  8.00000000E-01  1.50000000E+00
  1.50000000E+00  8.00000000E-01  8.00000000E-01  1.50000000E+00  1.50000000E+00
  8.00000000E-01  8.00000000E-01  1.50000000E+00  1.50000000E+00  8.00000000E-01
  8.00000000E-01  1.50000000E+00  1.50000000E+00  8.00000000E-01  8.00000000E-01
  1.50000000E+00  1.50000000E+00  8.00000000E-01  8.00000000E-01  1.50000000E+00
  1.50000000E+00  8.00000000E-01  8.00000000E-01  1.50000000E+00  1.50000000E+00
  8.00000000E-01  8.00000000E-01  1.50000000E+00  1.50000000E+00  8.00000000E-01
  8.00000000E-01  1.50000000E+00  1.50000000E+00  8.00000000E-01  8.00000000E-01
  1.50000000E+00  1.50000000E+00  8.00000000E-01  8.00000000E-01  1.50000000E+00
  1.50000000E+00  8.00000000E-01  8.00000000E-01  1.50000000E+00  1.50000000E+00
  8.00000000E-01  8.00000000E-01  1.50000000E+00  1.50000000E+00  8.00000000E-01
  8.00000000E-01  1.50000000E+00  1.50000000E+00  8.00000000E-01  8.00000000E-01
  1.50000000E+00  1.50000000E+00  8.00000000E-01  8.00000000E-01  1.50000000E+00
  1.50000000E+00  8.00000000E-01  8.00000000E-01  1.50000000E+00  1.50000000E+00
  8.00000000E-01  8.00000000E-01  1.50000000E+00  1.50000000E+00  8.00000000E-01
  8.00000000E-01  1.50000000E+00  1.50000000E+00  8.00000000E-01  8.00000000E-01
  1.50000000E+00  1.50000000E+00  8.00000000E-01  8.00000000E-01  1.50000000E+00
  1.50000000E+00  8.00000000E-01  8.00000000E-01  1.50000000E+00  1.50000000E+00
  8.00000000E-01  8.00000000E-01  1.50000000E+00  1.50000000E+00  8.00000000E-01
  8.00000000E-01  1.50000000E+00  1.50000000E+00  8.00000000E-01  8.00000000E-01
  1.50000000E+00  1.50000000E+00  8.00000000E-01  8.00000000E-01  1.50000000E+00
  1.50000000E+00  8.00000000E-01  8.00000000E-01  1.50000000E+00  1.50000000E+00
  8.00000000E-01  8.00000000E-01  1.50000000E+00  1.50000000E+00  8.00000000E-01
  8.00000000E-01  1.50000000E+00  1.50000000E+00  8.00000000E-01  8.00000000E-01
  1.50000000E+00  1.50000000E+00  8.00000000E-01  8.00000000E-01  1.50000000E+00
  1.50000000E+00  8.00000000E-01  8.00000000E-01  1.50000000E+00  1.50000000E+00
  8.00000000E-01  8.00000000E-01  1.50000000E+00  1.50000000E+00  8.00000000E-01
  8.00000000E-01  1.50000000E+00  1.50000000E+00  8.00000000E-01  8.00000000E-01
  1.50000000E+00  1.50000000E+00  8.00000000E-01  8.00000000E-01  1.50000000E+00
  1.50000000E+00  8.00000000E-01  8.00000000E-01  1.50000000E+00  1.50000000E+00
  8.00000000E-01  8.00000000E-01  1.50000000E+00  1.50000000E+00  8.00000000E-01
  8.00000000E-01  1.50000000E+00  1.50000000E+00  8.00000000E-01  8.00000000E-01
  1.50000000E+00  1.50000000E+00  8.00000000E-01  8.00000000E-01  1.50000000E+00
  1.50000000E+00  8.00000000E-01  8.00000000E-01  1.50000000E+00  1.50000000E+00
  8.00000000E-01  8.00000000E-01  1.50000000E+00  1.50000000E+00  8.00000000E-01
  8.00000000E-01  1.50000000E+00  1.50000000E+00  8.00000000E-01  8.00000000E-01
  1.50000000E+00  1.50000000E+00  8.00000000E-01  8.00000000E-01  1.50000000E+00
  1.50000000E+00  8.00000000E-01  8.00000000E-01  1.50000000E+00  1.50000000E+00
  8.00000000E-01  8.00000000E-01  1.50000000E+00  1.50000000E+00  8.00000000E-01
  8.00000000E-01  1.50000000E+00  1.50000000E+00  8.00000000E-01  8.00000000E-01
  1.50000000E+00  1.50000000E+00  8.00000000E-01  8.00000000E-01  1.50000000E+00
  1.50000000E+00  8.00000000E-01  8.00000000E-01  1.50000000E+00  1.50000000E+00
  8.00000000E-01  8.00000000E-01  1.50000000E+00  1.50000000E+00  8.00000000E-01
  8.00000000E-01  1.50000000E+00  1.50000000E+00  8.00000000E-01  8.00000000E-01
  1.50000000E+00  1.50000000E+00  8.00000000E-01  8.00000000E-01  1.50000000E+00
  1.50000000E+00  8.00000000E-01  8.00000000E-01  1.50000000E+00  1.50000000E+00
  8.00000000E-01  8.00000000E-01  1.50000000E+00  1.50000000E+00  8.00000000E-01
  8.00000000E-01  1.50000000E+00  1.50000000E+00  8.00000000E-01  8.00000000E-01
  1.50000000E+00  1.50000000E+00  8.00000000E-01  8.00000000E-01  1.50000000E+00
  1.50000000E+00  8.00000000E-01  8.00000000E-01  1.50000000E+00  1.50000000E+00
  8.00000000E-01  8.00000000E-01  1.50000000E+00  1.50000000E+00  8.00000000E-01
  8.00000000E-01  1.50000000E+00  1.50000000E+00  8.00000000E-01  8.00000000E-01
  1.50000000E+00  1.50000000E+00  8.00000000E-01  8.00000000E-01  1.50000000E+00
  1.50000000E+00  8.00000000E-01  8.00000000E-01  1.50000000E+00  1.50000000E+00
  8.00000000E-01  8.00000000E-01  1.50000000E+00  1.50000000E+00  8.00000000E-01
  8.00000000E-01  1.50000000E+00  1.50000000E+00  8.00000000E-01  8.00000000E-01
  1.50000000E+00  1.50000000E+00  8.00000000E-01  8.00000000E-01  1.50000000E+00
  1.50000000E+00  8.00000000E-01  8.00000000E-01  1.50000000E+00  1.50000000E+00
  8.00000000E-01  8.00000000E-01  1.50000000E+00  1.50000000E+00  8.00000000E-01
  8.00000000E-01  1.50000000E+00  1.50000000E+00  8.00000000E-01  8.00000000E-01
  1.50000000E+00  1.50000000E+00  8.00000000E-01  8.00000000E-01  1.50000000E+00
  1.50000000E+00  8.00000000E-01  8.00000000E-01  1.50000000E+00  1.50000000E+00
  8.00000000E-01  8.00000000E-01  1.50000000E+00  1.50000000E+00  8.00000000E-01
  8.00000000E-01  1.50000000E+00  1.50000000E+00  8.00000000E-01  8.00000000E-01
  1.50000000E+00  1.50000000E+00  8.00000000E-01  8.00000000E-01  1.50000000E+00
  1.50000000E+00  8.00000000E-01  8.00000000E-01  1.50000000E+00  1.50000000E+00
  8.00000000E-01  8.00000000E-01  1.50000000E+00  1.50000000E+00  8.00000000E-01
  8.00000000E-01  1.50000000E+00  1.50000000E+00  8.00000000E-01  8.00000000E-01
  1.50000000E+00  1.50000000E+00  8.00000000E-01  8.00000000E-01  1.50000000E+00
  1.50000000E+00  8.00000000E-01  8.00000000E-01  1.50000000E+00  1.50000000E+00
  8.00000000E-01  8.00000000E-01  1.50000000E+00  1.50000000E+00  8.00000000E-01
  8.00000000E-01  1.50000000E+00  1.50000000E+00  8.00000000E-01  8.00000000E-01
  1.50000000E+00  1.50000000E+00  8.00000000E-01  8.00000000E-01  1.50000000E+00
  1.50000000E+00  8.00000000E-01  8.00000000E-01  1.50000000E+00  1.50000000E+00
  8.00000000E-01  8.00000000E-01  1.50000000E+00  1.50000000E+00  8.00000000E-01
  8.00000000E-01  1.50000000E+00  1.50000000E+00  8.00000000E-01  8.00000000E-01
  1.50000000E+00  1.50000000E+00  8.00000000E-01  8.00000000E-01  1.50000000E+00
  1.50000000E+00  8.00000000E-01  8.00000000E-01  1.50000000E+00  1.50000000E+00
  8.00000000E-01  8.00000000E-01  1.50000000E+00  1.50000000E+00  8.00000000E-01
  8.00000000E-01  1.50000000E+00  1.50000000E+00  8.00000000E-01  8.00000000E-01
  1.50000000E+00  1.50000000E+00  8.00000000E-01  8.00000000E-01  1.50000000E+00
  1.50000000E+00  8.00000000E-01  8.00000000E-01  1.50000000E+00  1.50000000E+00
  8.00000000E-01  8.00000000E-01  1.50000000E+00  1.50000000E+00  8.00000000E-01
  8.00000000E-01  1.50000000E+00  1.50000000E+00  8.00000000E-01  8.00000000E-01
  1.50000000E+00  1.50000000E+00  8.00000000E-01  8.00000000E-01  1.50000000E+00
  1.50000000E+00  8.00000000E-01  8.00000000E-01  1.50000000E+00  1.50000000E+00
  8.00000000E-01  8.00000000E-01  1.50000000E+00  1.50000000E+00  8.00000000E-01
  8.00000000E-01  1.50000000E+00  1.50000000E+00  8.00000000E-01  8.00000000E-01
  1.50000000E+00  1.50000000E+00  8.00000000E-01  8.00000000E-01  1.50000000E+00
  1.50000000E+00  8.00000000E-01  8.00000000E-01  1.50000000E+00  1.50000000E+00
  8.00000000E-01  8.00000000E-01  1.50000000E+00  1.50000000E+00  8.00000000E-01
  8.00000000E-01  1.50000000E+00  1.50000000E+00  8.00000000E-01  8.00000000E-01
  1.50000000E+00  1.50000000E+00  8.00000000E-01  8.00000000E-01  1.50000000E+00
  1.50000000E+00  8.00000000E-01  8.00000000E-01  1.50000000E+00  1.50000000E+00
  8.00000000E-01  8.00000000E-01  1.50000000E+00  1.50000000E+00  8.00000000E-01
  8.00000000E-01  1.50000000E+00  1.50000000E+00  8.00000000E-01  8.00000000E-01
  1.50000000E+00  1.50000000E+00  8.00000000E-01  8.00000000E-01  1.50000000E+00
  1.50000000E+00  8.00000000E-01  8.00000000E-01  1.50000000E+00  1.50000000E+00
  8.00000000E-01  8.00000000E-01  1.50000000E+00  1.50000000E+00  8.00000000E-01
  8.00000000E-01  1.50000000E+00  1.50000000E+00  8.00000000E-01  8.00000000E-01
  1.50000000E+00  1.50000000E+00  8.00000000E-01  8.00000000E-01  1.50000000E+00
  1.50000000E+00  8.00000000E-01  8.00000000E-01  1.50000000E+00  1.50000000E+00
  8.00000000E-01  8.00000000E-01  1.50000000E+00  1.50000000E+00  8.00000000E-01
  8.00000000E-01  1.50000000E+00  1.50000000E+00  8.00000000E-01  8.00000000E-01
  1.50000000E+00  1.50000000E+00  8.00000000E-01  8.00000000E-01  1.50000000E+00
  1.50000000E+00  8.00000000E-01  8.00000000E-01  1.50000000E+00  1.50000000E+00
  8.00000000E-01  8.00000000E-01  1.50000000E+00  1.50000000E+00  8.00000000E-01
  8.00000000E-01  1.50000000E+00  1.50000000E+00  8.00000000E-01  8.00000000E-01
  1.50000000E+00  1.50000000E+00  8.00000000E-01  8.00000000E-01  1.50000000E+00
  1.50000000E+00  8.00000000E-01  8.00000000E-01  1.50000000E+00  1.50000000E+00
  8.00000000E-01  8.00000000E-01  1.50000000E+00  1.50000000E+00  8.00000000E-01
  8.00000000E-01  1.50000000E+00  1.50000000E+00  8.00000000E-01  8.00000000E-01
  1.50000000E+00  1.50000000E+00  8.00000000E-01  8.00000000E-01  1.50000000E+00
  1.50000000E+00  8.00000000E-01  8.00000000E-01  1.50000000E+00  1.50000000E+00
  8.00000000E-01  8.00000000E-01  1.50000000E+00  1.50000000E+00  8.00000000E-01
  8.00000000E-01  1.50000000E+00  1.50000000E+00  8.00000000E-01  8.00000000E-01
  1.50000000E+00  1.50000000E+00  8.00000000E-01  8.00000000E-01  1.50000000E+00
  1.50000000E+00  8.00000000E-01  8.00000000E-01  1.50000000E+00  1.50000000E+00
  8.00000000E-01  8.00000000E-01  1.50000000E+00  1.50000000E+00  8.00000000E-01
  8.00000000E-01  1.50000000E+00  1.50000000E+00  8.00000000E-01  8.00000000E-01
  1.50000000E+00  1.50000000E+00  8.00000000E-01  8.00000000E-01  1.50000000E+00
  1.50000000E+00  8.00000000E-01  8.00000000E-01  1.50000000E+00  1.50000000E+00
  8.00000000E-01  8.00000000E-01  1.50000000E+00  1.50000000E+00  8.00000000E-01
  8.00000000E-01  1.50000000E+00  1.50000000E+00  8.00000000E-01  8.00000000E-01
  1.50000000E+00  1.50000000E+00  8.00000000E-01  8.00000000E-01  1.50000000E+00
  1.50000000E+00  8.00000000E-01  8.00000000E-01  1.50000000E+00  1.50000000E+00
  8.00000000E-01  8.00000000E-01  1.50000000E+00  1.50000000E+00  8.00000000E-01
  8.00000000E-01  1.50000000E+00  1.50000000E+00  8.00000000E-01  8.00000000E-01
  1.50000000E+00  1.50000000E+00  8.00000000E-01  8.00000000E-01  1.50000000E+00
  1.50000000E+00  8.00000000E-01  8.00000000E-01  1.50000000E+00  1.50000000E+00
  8.00000000E-01  8.00000000E-01  1.50000000E+00  1.50000000E+00  8.00000000E-01
  8.00000000E-01  1.50000000E+00  1.50000000E+00  8.00000000E-01  8.00000000E-01
  1.50000000E+00  1.50000000E+00  8.00000000E-01  8.00000000E-01  1.50000000E+00
  1.50000000E+00  8.00000000E-01  8.00000000E-01  1.50000000E+00  1.50000000E+00
  8.00000000E-01  8.00000000E-01  1.50000000E+00  1.50000000E+00  8.00000000E-01
  8.00000000E-01  1.50000000E+00  1.50000000E+00  8.00000000E-01  8.00000000E-01
  1.50000000E+00  1.50000000E+00  8.00000000E-01  8.00000000E-01  1.50000000E+00
  1.50000000E+00  8.00000000E-01  8.00000000E-01  1.50000000E+00  1.50000000E+00
  8.00000000E-01  8.00000000E-01  1.50000000E+00  1.50000000E+00  8.00000000E-01
  8.00000000E-01  1.50000000E+00  1.50000000E+00  8.00000000E-01  8.00000000E-01
  1.50000000E+00  1.50000000E+00  8.00000000E-01  8.00000000E-01  1.50000000E+00
  1.50000000E+00  8.00000000E-01  8.00000000E-01  1.50000000E+00  1.50000000E+00
  8.00000000E-01  8.00000000E-01  1.50000000E+00  1.50000000E+00  8.00000000E-01
  8.00000000E-01  1.50000000E+00  1.50000000E+00  8.00000000E-01  8.00000000E-01
  1.50000000E+00  1.50000000E+00  8.00000000E-01  8.00000000E-01  1.50000000E+00
  1.50000000E+00  8.00000000E-01  8.00000000E-01  1.50000000E+00  1.50000000E+00
  8.00000000E-01  8.00000000E-01  1.50000000E+00  1.50000000E+00  8.00000000E-01
  8.00000000E-01  1.50000000E+00  1.50000000E+00  8.00000000E-01  8.00000000E-01
  1.50000000E+00  1.50000000E+00  8.00000000E-01  8.00000000E-01  1.50000000E+00
  1.50000000E+00  8.00000000E-01  8.00000000E-01  1.50000000E+00  1.50000000E+00
  8.00000000E-01  8.00000000E-01  1.50000000E+00  1.50000000E+00  8.00000000E-01
  8.00000000E-01  1.50000000E+00  1.50000000E+00  8.00000000E-01  8.00000000E-01
  1.50000000E+00  1.50000000E+00  8.00000000E-01  8.00000000E-01  1.50000000E+00
  1.50000000E+00  8.00000000E-01  8.00000000E-01  1.50000000E+00  1.50000000E+00
  8.00000000E-01  8.00000000E-01  1.50000000E+00  1.50000000E+00  8.00000000E-01
  8.00000000E-01  1.50000000E+00  1.50000000E+00  8.00000000E-01  8.00000000E-01
  1.50000000E+00  1.50000000E+00  8.00000000E-01  8.00000000E-01  1.50000000E+00
  1.50000000E+00  8.00000000E-01  8.00000000E-01  1.50000000E+00  1.50000000E+00
  8.00000000E-01  8.00000000E-01  1.50000000E+00  1.50000000E+00  8.00000000E-01
  8.00000000E-01  1.50000000E+00  1.50000000E+00  8.00000000E-01  8.00000000E-01
  1.50000000E+00  1.50000000E+00  8.00000000E-01  8.00000000E-01  1.50000000E+00
  1.50000000E+00  8.00000000E-01  8.00000000E-01  1.50000000E+00  1.50000000E+00
  8.00000000E-01  8.00000000E-01  1.50000000E+00  1.50000000E+00  8.00000000E-01
  8.00000000E-01  1.50000000E+00  1.50000000E+00  8.00000000E-01  8.00000000E-01
  1.50000000E+00  1.50000000E+00  8.00000000E-01  8.00000000E-01  1.50000000E+00
  1.50000000E+00  8.00000000E-01  8.00000000E-01  1.50000000E+00  1.50000000E+00
  8.00000000E-01  8.00000000E-01  1.50000000E+00  1.50000000E+00  8.00000000E-01
  8.00000000E-01  1.50000000E+00  1.50000000E+00  8.00000000E-01  8.00000000E-01
  1.50000000E+00  1.50000000E+00  8.00000000E-01  8.00000000E-01  1.50000000E+00
  1.50000000E+00  8.00000000E-01  8.00000000E-01  1.50000000E+00  1.50000000E+00
  8.00000000E-01  8.00000000E-01  1.50000000E+00  1.50000000E+00  8.00000000E-01
  8.00000000E-01  1.50000000E+00  1.50000000E+00  8.00000000E-01  8.00000000E-01
  1.50000000E+00  1.50000000E+00  8.00000000E-01  8.00000000E-01  1.50000000E+00
  1.50000000E+00  8.00000000E-01  8.00000000E-01  1.50000000E+00  1.50000000E+00
  8.00000000E-01  8.00000000E-01  1.50000000E+00  1.50000000E+00  8.00000000E-01
  8.00000000E-01  1.50000000E+00  1.50000000E+00  8.00000000E-01  8.00000000E-01
  1.50000000E+00  1.50000000E+00  8.00000000E-01  8.00000000E-01  1.50000000E+00
  1.50000000E+00  8.00000000E-01  8.00000000E-01  1.50000000E+00  1.50000000E+00
  8.00000000E-01  8.00000000E-01  1.50000000E+00  1.50000000E+00  8.00000000E-01
  8.00000000E-01  1.50000000E+00  1.50000000E+00  8.00000000E-01  8.00000000E-01
  1.50000000E+00  1.50000000E+00  8.00000000E-01  8.00000000E-01  1.50000000E+00
  1.50000000E+00  8.00000000E-01  8.00000000E-01  1.50000000E+00  1.50000000E+00
  8.00000000E-01  8.00000000E-01  1.50000000E+00  1.50000000E+00  8.00000000E-01
  8.00000000E-01  1.50000000E+00  1.50000000E+00  8.00000000E-01  8.00000000E-01
  1.50000000E+00  1.50000000E+00  8.00000000E-01  8.00000000E-01  1.50000000E+00
  1.50000000E+00  8.00000000E-01  8.00000000E-01  1.50000000E+00  1.50000000E+00
  8.00000000E-01  8.00000000E-01  1.50000000E+00  1.50000000E+00  8.00000000E-01
  8.00000000E-01  1.50000000E+00  1.50000000E+00  8.00000000E-01  8.00000000E-01
  1.50000000E+00  1.50000000E+00  8.00000000E-01  8.00000000E-01  1.50000000E+00
  1.50000000E+00  8.00000000E-01  8.00000000E-01  1.50000000E+00  1.50000000E+00
  8.00000000E-01  8.00000000E-01  1.50000000E+00  1.50000000E+00  8.00000000E-01
  8.00000000E-01  1.50000000E+00  1.50000000E+00  8.00000000E-01  8.00000000E-01
  1.50000000E+00  1.50000000E+00  8.00000000E-01  8.00000000E-01  1.50000000E+00
  1.50000000E+00  8.00000000E-01  8.00000000E-01  1.50000000E+00  1.50000000E+00
  8.00000000E-01  8.00000000E-01  1.50000000E+00  1.50000000E+00  8.00000000E-01
  8.00000000E-01  1.50000000E+00  1.50000000E+00  8.00000000E-01  8.00000000E-01
  1.50000000E+00  1.50000000E+00  8.00000000E-01  8.00000000E-01  1.50000000E+00
  1.50000000E+00  8.00000000E-01  8.00000000E-01  1.50000000E+00  1.50000000E+00
  8.00000000E-01  8.00000000E-01  1.50000000E+00  1.50000000E+00  8.00000000E-01
  8.00000000E-01  1.50000000E+00  1.50000000E+00  8.00000000E-01  8.00000000E-01
  1.50000000E+00  1.50000000E+00  8.00000000E-01  8.00000000E-01  1.50000000E+00
  1.50000000E+00  8.00000000E-01  8.00000000E-01  1.50000000E+00  1.50000000E+00
  8.00000000E-01  8.00000000E-01  1.50000000E+00  1.50000000E+00  8.00000000E-01
  8.00000000E-01  1.50000000E+00  1.50000000E+00  8.00000000E-01  8.00000000E-01
  1.50000000E+00  1.50000000E+00  8.00000000E-01  8.00000000E-01  1.50000000E+00
  1.50000000E+00  8.00000000E-01  8.00000000E-01  1.50000000E+00  1.50000000E+00
  8.00000000E-01  8.00000000E-01  1.50000000E+00  1.50000000E+00  8.00000000E-01
  8.00000000E-01  1.50000000E+00  1.50000000E+00  8.00000000E-01  8.00000000E-01
  1.50000000E+00  1.50000000E+00  8.00000000E-01  8.00000000E-01  1.50000000E+00
  1.50000000E+00  8.00000000E-01  8.00000000E-01  1.50000000E+00  1.50000000E+00
  8.00000000E-01  8.00000000E-01  1.50000000E+00  1.50000000E+00  8.00000000E-01
  8.00000000E-01  1.50000000E+00  1.50000000E+00  8.00000000E-01  8.00000000E-01
  1.50000000E+00  1.50000000E+00  8.00000000E-01  8.00000000E-01  1.50000000E+00
  1.50000000E+00  8.00000000E-01  8.00000000E-01  1.50000000E+00  1.50000000E+00
  8.00000000E-01  8.00000000E-01  1.50000000E+00  1.50000000E+00  8.00000000E-01
  8.00000000E-01  1.50000000E+00  1.50000000E+00  8.00000000E-01  8.00000000E-01
  1.50000000E+00  1.50000000E+00  8.00000000E-01  8.00000000E-01  1.50000000E+00
  1.50000000E+00  8.00000000E-01  8.00000000E-01  1.50000000E+00  1.50000000E+00
  8.00000000E-01  8.00000000E-01  1.50000000E+00  1.50000000E+00  8.00000000E-01
  8.00000000E-01  1.50000000E+00  1.50000000E+00  8.00000000E-01  8.00000000E-01
  1.50000000E+00  1.50000000E+00  8.00000000E-01  8.00000000E-01  1.50000000E+00
  1.50000000E+00  8.00000000E-01  8.00000000E-01  1.50000000E+00  1.50000000E+00
  8.00000000E-01  8.00000000E-01  1.50000000E+00  1.50000000E+00  8.00000000E-01
  8.00000000E-01  1.50000000E+00  1.50000000E+00  8.00000000E-01  8.00000000E-01
  1.50000000E+00  1.50000000E+00  8.00000000E-01  8.00000000E-01  1.50000000E+00
  1.50000000E+00  8.00000000E-01  8.00000000E-01  1.50000000E+00  1.50000000E+00
  8.00000000E-01  8.00000000E-01  1.50000000E+00  1.50000000E+00  8.00000000E-01
  8.00000000E-01  1.50000000E+00  1.50000000E+00  8.00000000E-01  8.00000000E-01
  1.50000000E+00  1.50000000E+00  8.00000000E-01  8.00000000E-01  1.50000000E+00
  1.50000000E+00  8.00000000E-01  8.00000000E-01  1.50000000E+00  1.50000000E+00
  8.00000000E-01  8.00000000E-01  1.50000000E+00  1.50000000E+00  8.00000000E-01
  8.00000000E-01  1.50000000E+00  1.50000000E+00  8.00000000E-01  8.00000000E-01
  1.50000000E+00  1.50000000E+00  8.00000000E-01  8.00000000E-01  1.50000000E+00
  1.50000000E+00  8.00000000E-01  8.00000000E-01  1.50000000E+00  1.50000000E+00
  8.00000000E-01  8.00000000E-01  1.50000000E+00  1.50000000E+00  8.00000000E-01
  8.00000000E-01  1.50000000E+00  1.50000000E+00  8.00000000E-01  8.00000000E-01
  1.50000000E+00  1.50000000E+00  8.00000000E-01  8.00000000E-01  1.50000000E+00
  1.50000000E+00  8.00000000E-01  8.00000000E-01  1.50000000E+00  1.50000000E+00
  8.00000000E-01  8.00000000E-01  1.50000000E+00  1.50000000E+00  8.00000000E-01
  8.00000000E-01  1.50000000E+00  1.50000000E+00  8.00000000E-01  8.00000000E-01
  1.50000000E+00  1.50000000E+00  8.00000000E-01  8.00000000E-01  1.50000000E+00
  1.50000000E+00  8.00000000E-01  8.00000000E-01  1.50000000E+00  1.50000000E+00
  8.00000000E-01  8.00000000E-01  1.50000000E+00  1.50000000E+00  8.00000000E-01
  8.00000000E-01  1.50000000E+00  1.50000000E+00  8.00000000E-01  8.00000000E-01
  1.50000000E+00  1.50000000E+00  8.00000000E-01  8.00000000E-01  1.50000000E+00
  1.50000000E+00  8.00000000E-01  8.00000000E-01  1.50000000E+00  1.50000000E+00
  8.00000000E-01  8.00000000E-01  1.50000000E+00  1.50000000E+00  8.00000000E-01
  8.00000000E-01  1.50000000E+00  1.50000000E+00  8.00000000E-01  8.00000000E-01
  1.50000000E+00  1.50000000E+00  8.00000000E-01  8.00000000E-01  1.50000000E+00
  1.50000000E+00  8.00000000E-01  8.00000000E-01  1.50000000E+00  1.50000000E+00
  8.00000000E-01  8.00000000E-01  1.50000000E+00  1.50000000E+00  8.00000000E-01
  8.00000000E-01  1.50000000E+00  1.50000000E+00  8.00000000E-01  8.00000000E-01
  1.50000000E+00  1.50000000E+00  8.00000000E-01  8.00000000E-01  1.50000000E+00
  1.50000000E+00  8.00000000E-01  8.00000000E-01  1.50000000E+00  1.50000000E+00
  8.00000000E-01  8.00000000E-01  1.50000000E+00  1.50000000E+00  8.00000000E-01
  8.00000000E-01  1.50000000E+00  1.50000000E+00  8.00000000E-01  8.00000000E-01
  1.50000000E+00  1.50000000E+00  8.00000000E-01  8.00000000E-01  1.50000000E+00
  1.50000000E+00  8.00000000E-01  8.00000000E-01  1.50000000E+00  1.50000000E+00
  8.00000000E-01  8.00000000E-01  1.50000000E+00  1.50000000E+00  8.00000000E-01
  8.00000000E-01  1.50000000E+00  1.50000000E+00  8.00000000E-01  8.00000000E-01
  1.50000000E+00  1.50000000E+00  8.00000000E-01  8.00000000E-01  1.50000000E+00
  1.50000000E+00  8.00000000E-01  8.00000000E-01  1.50000000E+00  1.50000000E+00
  8.00000000E-01  8.00000000E-01  1.50000000E+00  1.50000000E+00  8.00000000E-01
  8.00000000E-01  1.50000000E+00  1.50000000E+00  8.00000000E-01  8.00000000E-01
  1.50000000E+00  1.50000000E+00  8.00000000E-01  8.00000000E-01  1.50000000E+00
  1.50000000E+00  8.00000000E-01  8.00000000E-01  1.50000000E+00  1.50000000E+00
  8.00000000E-01  8.00000000E-01  1.50000000E+00  1.50000000E+00  8.00000000E-01
  8.00000000E-01  1.50000000E+00  1.50000000E+00  8.00000000E-01  8.00000000E-01
  1.50000000E+00  1.50000000E+00  8.00000000E-01  8.00000000E-01  1.50000000E+00
  1.50000000E+00  8.00000000E-01  8.00000000E-01  1.50000000E+00  1.50000000E+00
  8.00000000E-01  8.00000000E-01  1.50000000E+00  1.50000000E+00  8.00000000E-01
  8.00000000E-01  1.50000000E+00  1.50000000E+00  8.00000000E-01  8.00000000E-01
  1.50000000E+00  1.50000000E+00  8.00000000E-01  8.00000000E-01  1.50000000E+00
  1.50000000E+00  8.00000000E-01  8.00000000E-01  1.50000000E+00  1.50000000E+00
  8.00000000E-01  8.00000000E-01  1.50000000E+00  1.50000000E+00  8.00000000E-01
  8.00000000E-01  1.50000000E+00  1.50000000E+00  8.00000000E-01  8.00000000E-01
  1.50000000E+00  1.50000000E+00  8.00000000E-01  8.00000000E-01  1.50000000E+00
  1.50000000E+00  8.00000000E-01  8.00000000E-01  1.50000000E+00  1.50000000E+00
  8.00000000E-01  8.00000000E-01  1.50000000E+00  1.50000000E+00  8.00000000E-01
  8.00000000E-01  1.50000000E+00  1.50000000E+00  8.00000000E-01  8.00000000E-01
  1.50000000E+00  1.50000000E+00  8.00000000E-01  8.00000000E-01  1.50000000E+00
  1.50000000E+00  8.00000000E-01  8.00000000E-01  1.50000000E+00  1.50000000E+00
  8.00000000E-01  8.00000000E-01  1.50000000E+00  1.50000000E+00  8.00000000E-01
  8.00000000E-01  1.50000000E+00  1.50000000E+00  8.00000000E-01  8.00000000E-01
  1.50000000E+00  1.50000000E+00  8.00000000E-01  8.00000000E-01  1.50000000E+00
  1.50000000E+00  8.00000000E-01  8.00000000E-01  1.50000000E+00  1.50000000E+00
  8.00000000E-01  8.00000000E-01  1.50000000E+00  1.50000000E+00  8.00000000E-01
  8.00000000E-01  1.50000000E+00  1.50000000E+00  8.00000000E-01  8.00000000E-01
  1.50000000E+00  1.50000000E+00  8.00000000E-01  8.00000000E-01  1.50000000E+00
  1.50000000E+00  8.00000000E-01  8.00000000E-01  1.50000000E+00  1.50000000E+00
  8.00000000E-01  8.00000000E-01  1.50000000E+00  1.50000000E+00  8.00000000E-01
  8.00000000E-01  1.50000000E+00  1.50000000E+00  8.00000000E-01  8.00000000E-01
  1.50000000E+00  1.50000000E+00  8.00000000E-01  8.00000000E-01  1.50000000E+00
  1.50000000E+00  8.00000000E-01  8.00000000E-01  1.50000000E+00  1.50000000E+00
  8.00000000E-01  8.00000000E-01  1.50000000E+00  1.50000000E+00  8.00000000E-01
  8.00000000E-01  1.50000000E+00  1.50000000E+00  8.00000000E-01  8.00000000E-01
  1.50000000E+00  1.50000000E+00  8.00000000E-01  8.00000000E-01  1.50000000E+00
  1.50000000E+00  8.00000000E-01  8.00000000E-01  1.50000000E+00  1.50000000E+00
  8.00000000E-01  8.00000000E-01  1.50000000E+00  1.50000000E+00  8.00000000E-01
  8.00000000E-01  1.50000000E+00  1.50000000E+00  8.00000000E-01  8.00000000E-01
  1.50000000E+00  1.50000000E+00  8.00000000E-01  8.00000000E-01  1.50000000E+00
  1.50000000E+00  8.00000000E-01  8.00000000E-01  1.50000000E+00  1.50000000E+00
  8.00000000E-01  8.00000000E-01  1.50000000E+00  1.50000000E+00  8.00000000E-01
  8.00000000E-01  1.50000000E+00  1.50000000E+00  8.00000000E-01  8.00000000E-01
  1.50000000E+00  1.50000000E+00  8.00000000E-01  8.00000000E-01  1.50000000E+00
  1.50000000E+00  8.00000000E-01  8.00000000E-01  1.50000000E+00  1.50000000E+00
  8.00000000E-01  8.00000000E-01  1.50000000E+00  1.50000000E+00  8.00000000E-01
  8.00000000E-01  1.50000000E+00  1.50000000E+00  8.00000000E-01  8.00000000E-01
  1.50000000E+00  1.50000000E+00  8.00000000E-01  8.00000000E-01  1.50000000E+00
  1.50000000E+00  8.00000000E-01  8.00000000E-01  1.50000000E+00  1.50000000E+00
  8.00000000E-01  8.00000000E-01  1.50000000E+00  1.50000000E+00  8.00000000E-01
  8.00000000E-01  1.50000000E+00  1.50000000E+00  8.00000000E-01  8.00000000E-01
  1.50000000E+00  1.50000000E+00  8.00000000E-01  8.00000000E-01  1.50000000E+00
  1.50000000E+00  8.00000000E-01  8.00000000E-01  1.50000000E+00  1.50000000E+00
  8.00000000E-01  8.00000000E-01  1.50000000E+00  1.50000000E+00  8.00000000E-01
  8.00000000E-01  1.50000000E+00  1.50000000E+00  8.00000000E-01  8.00000000E-01
  1.50000000E+00  1.50000000E+00  8.00000000E-01  8.00000000E-01  1.50000000E+00
  1.50000000E+00  8.00000000E-01  8.00000000E-01  1.50000000E+00  1.50000000E+00
  8.00000000E-01  8.00000000E-01  1.50000000E+00  1.50000000E+00  8.00000000E-01
  8.00000000E-01  1.50000000E+00  1.50000000E+00  8.00000000E-01  8.00000000E-01
  1.50000000E+00  1.50000000E+00  8.00000000E-01  8.00000000E-01  1.50000000E+00
  1.50000000E+00  8.00000000E-01  8.00000000E-01  1.50000000E+00  1.50000000E+00
  8.00000000E-01  8.00000000E-01  1.50000000E+00  1.50000000E+00  8.00000000E-01
  8.00000000E-01  1.50000000E+00  1.50000000E+00  8.00000000E-01  8.00000000E-01
  1.50000000E+00  1.50000000E+00  8.00000000E-01  8.00000000E-01  1.50000000E+00
  1.50000000E+00  8.00000000E-01  8.00000000E-01  1.50000000E+00  1.50000000E+00
  8.00000000E-01  8.00000000E-01  1.50000000E+00  1.50000000E+00  8.00000000E-01
  8.00000000E-01  1.50000000E+00  1.50000000E+00  8.00000000E-01  8.00000000E-01
  1.50000000E+00  1.50000000E+00  8.00000000E-01  8.00000000E-01  1.50000000E+00
  1.50000000E+00  8.00000000E-01  8.00000000E-01  1.50000000E+00  1.50000000E+00
  8.00000000E-01  8.00000000E-01  1.50000000E+00  1.50000000E+00  8.00000000E-01
  8.00000000E-01  1.50000000E+00  1.50000000E+00  8.00000000E-01  8.00000000E-01
  1.50000000E+00  1.50000000E+00  8.00000000E-01  8.00000000E-01  1.50000000E+00
  1.50000000E+00  8.00000000E-01  8.00000000E-01  1.50000000E+00  1.50000000E+00
  8.00000000E-01  8.00000000E-01  1.50000000E+00  1.50000000E+00  8.00000000E-01
  8.00000000E-01  1.50000000E+00  1.50000000E+00  8.00000000E-01  8.00000000E-01
  1.50000000E+00  1.50000000E+00  8.00000000E-01  8.00000000E-01  1.50000000E+00
  1.50000000E+00  8.00000000E-01  8.00000000E-01  1.50000000E+00  1.50000000E+00
  8.00000000E-01  8.00000000E-01  1.50000000E+00  1.50000000E+00  8.00000000E-01
  8.00000000E-01  1.50000000E+00  1.50000000E+00  8.00000000E-01  8.00000000E-01
  1.50000000E+00  1.50000000E+00  8.00000000E-01  8.00000000E-01  1.50000000E+00
  1.50000000E+00  8.00000000E-01  8.00000000E-01  1.50000000E+00  1.50000000E+00
  8.00000000E-01  8.00000000E-01  1.50000000E+00  1.50000000E+00  8.00000000E-01
  8.00000000E-01  1.50000000E+00  1.50000000E+00  8.00000000E-01  8.00000000E-01
  1.50000000E+00  1.50000000E+00  8.00000000E-01  8.00000000E-01  1.50000000E+00
  1.50000000E+00  8.00000000E-01  8.00000000E-01  1.50000000E+00  1.50000000E+00
  8.00000000E-01  8.00000000E-01  1.50000000E+00  1.50000000E+00  8.00000000E-01
  8.00000000E-01  1.50000000E+00  1.50000000E+00  8.00000000E-01  8.00000000E-01
  1.50000000E+00  1.50000000E+00  8.00000000E-01  8.00000000E-01  1.50000000E+00
  1.50000000E+00  8.00000000E-01  8.00000000E-01  1.50000000E+00  1.50000000E+00
  8.00000000E-01  8.00000000E-01  1.50000000E+00  1.50000000E+00  8.00000000E-01
  8.00000000E-01  1.50000000E+00  1.50000000E+00  8.00000000E-01  8.00000000E-01
  1.50000000E+00  1.50000000E+00  8.00000000E-01  8.00000000E-01  1.50000000E+00
  1.50000000E+00  8.00000000E-01  8.00000000E-01  1.50000000E+00  1.50000000E+00
  8.00000000E-01  8.00000000E-01  1.50000000E+00  1.50000000E+00  8.00000000E-01
  8.00000000E-01  1.50000000E+00  1.50000000E+00  8.00000000E-01  8.00000000E-01
  1.50000000E+00  1.50000000E+00  8.00000000E-01  8.00000000E-01  1.50000000E+00
  1.50000000E+00  8.00000000E-01  8.00000000E-01  1.50000000E+00  1.50000000E+00
  8.00000000E-01  8.00000000E-01  1.50000000E+00  1.50000000E+00  8.00000000E-01
  8.00000000E-01  1.50000000E+00  1.50000000E+00  8.00000000E-01  8.00000000E-01
  1.50000000E+00  1.50000000E+00  8.00000000E-01  8.00000000E-01  1.50000000E+00
  1.50000000E+00  8.00000000E-01  8.00000000E-01  1.50000000E+00  1.50000000E+00
  8.00000000E-01  8.00000000E-01  1.50000000E+00  1.50000000E+00  8.00000000E-01
  8.00000000E-01  1.50000000E+00  1.50000000E+00  8.00000000E-01  8.00000000E-01
  1.50000000E+00  1.50000000E+00  8.00000000E-01  8.00000000E-01  1.50000000E+00
  1.50000000E+00  8.00000000E-01  8.00000000E-01  1.50000000E+00  1.50000000E+00
  8.00000000E-01  8.00000000E-01  1.50000000E+00  1.50000000E+00  8.00000000E-01
  8.00000000E-01  1.50000000E+00  1.50000000E+00  8.00000000E-01  8.00000000E-01
  1.50000000E+00  1.50000000E+00  8.00000000E-01  8.00000000E-01  1.50000000E+00
  1.50000000E+00  8.00000000E-01  8.00000000E-01  1.50000000E+00  1.50000000E+00
  8.00000000E-01  8.00000000E-01  1.50000000E+00  1.50000000E+00  8.00000000E-01
  8.00000000E-01  1.50000000E+00  1.50000000E+00  8.00000000E-01  8.00000000E-01
  1.50000000E+00  1.50000000E+00  8.00000000E-01  8.00000000E-01  1.50000000E+00
  1.50000000E+00  8.00000000E-01  8.00000000E-01  1.50000000E+00  1.50000000E+00
  8.00000000E-01  8.00000000E-01  1.50000000E+00  1.50000000E+00  8.00000000E-01
  8.00000000E-01  1.50000000E+00  1.50000000E+00  8.00000000E-01  8.00000000E-01
  1.50000000E+00  1.50000000E+00  8.00000000E-01  8.00000000E-01  1.50000000E+00
  1.50000000E+00  8.00000000E-01  8.00000000E-01  1.50000000E+00  1.50000000E+00
  8.00000000E-01  8.00000000E-01  1.50000000E+00  1.50000000E+00  8.00000000E-01
  8.00000000E-01  1.50000000E+00  1.50000000E+00  8.00000000E-01  8.00000000E-01
  1.50000000E+00  1.50000000E+00  8.00000000E-01  8.00000000E-01  1.50000000E+00
  1.50000000E+00  8.00000000E-01  8.00000000E-01  1.50000000E+00  1.50000000E+00
  8.00000000E-01  8.00000000E-01  1.50000000E+00  1.50000000E+00  8.00000000E-01
  8.00000000E-01  1.50000000E+00  1.50000000E+00  8.00000000E-01  8.00000000E-01
  1.50000000E+00  1.50000000E+00  8.00000000E-01  8.00000000E-01  1.50000000E+00
  1.50000000E+00  8.00000000E-01  8.00000000E-01  1.50000000E+00  1.50000000E+00
  8.00000000E-01  8.00000000E-01  1.50000000E+00  1.50000000E+00  8.00000000E-01
  8.00000000E-01  1.50000000E+00  1.50000000E+00  8.00000000E-01  8.00000000E-01
  1.50000000E+00  1.50000000E+00  8.00000000E-01  8.00000000E-01  1.50000000E+00
  1.50000000E+00  8.00000000E-01  8.00000000E-01  1.50000000E+00  1.50000000E+00
  8.00000000E-01  8.00000000E-01  1.50000000E+00  1.50000000E+00  8.00000000E-01
  8.00000000E-01  1.50000000E+00  1.50000000E+00  8.00000000E-01  8.00000000E-01
  1.50000000E+00  1.50000000E+00  8.00000000E-01  8.00000000E-01  1.50000000E+00
  1.50000000E+00  8.00000000E-01  8.00000000E-01  1.50000000E+00  1.50000000E+00
  8.00000000E-01  8.00000000E-01  1.50000000E+00  1.50000000E+00  8.00000000E-01
  8.00000000E-01  1.50000000E+00  1.50000000E+00  8.00000000E-01  8.00000000E-01
  1.50000000E+00  1.50000000E+00  8.00000000E-01  8.00000000E-01  1.50000000E+00
  1.50000000E+00  8.00000000E-01  8.00000000E-01  1.50000000E+00  1.50000000E+00
  8.00000000E-01  8.00000000E-01  1.50000000E+00  1.50000000E+00  8.00000000E-01
  8.00000000E-01  1.50000000E+00  1.50000000E+00  8.00000000E-01  8.00000000E-01
  1.50000000E+00  1.50000000E+00  8.00000000E-01  8.00000000E-01  1.50000000E+00
  1.50000000E+00  8.00000000E-01  8.00000000E-01  1.50000000E+00  1.50000000E+00
  8.00000000E-01  8.00000000E-01  1.50000000E+00  1.50000000E+00  8.00000000E-01
  8.00000000E-01  1.50000000E+00  1.50000000E+00  8.00000000E-01  8.00000000E-01
  1.50000000E+00  1.50000000E+00  8.00000000E-01  8.00000000E-01  1.50000000E+00
  1.50000000E+00  8.00000000E-01  8.00000000E-01  1.50000000E+00  1.50000000E+00
  8.00000000E-01  8.00000000E-01  1.50000000E+00  1.50000000E+00  8.00000000E-01
  8.00000000E-01  1.50000000E+00  1.50000000E+00  8.00000000E-01  8.00000000E-01
  1.50000000E+00  1.50000000E+00  8.00000000E-01  8.00000000E-01  1.50000000E+00
  1.50000000E+00  8.00000000E-01  8.00000000E-01  1.50000000E+00  1.50000000E+00
  8.00000000E-01  8.00000000E-01  1.50000000E+00  1.50000000E+00  8.00000000E-01
  8.00000000E-01  1.50000000E+00  1.50000000E+00  8.00000000E-01  8.00000000E-01
  1.50000000E+00  1.50000000E+00  8.00000000E-01  8.00000000E-01  1.50000000E+00
  1.50000000E+00  8.00000000E-01  8.00000000E-01  1.50000000E+00  1.50000000E+00
  8.00000000E-01  8.00000000E-01  1.50000000E+00  1.50000000E+00  8.00000000E-01
  8.00000000E-01  1.50000000E+00  1.50000000E+00  8.00000000E-01  8.00000000E-01
  1.50000000E+00  1.50000000E+00  8.00000000E-01  8.00000000E-01  1.50000000E+00
  1.50000000E+00  8.00000000E-01  8.00000000E-01  1.50000000E+00  1.50000000E+00
  8.00000000E-01  8.00000000E-01  1.50000000E+00  1.50000000E+00  8.00000000E-01
  8.00000000E-01  1.50000000E+00  1.50000000E+00  8.00000000E-01  8.00000000E-01
  1.50000000E+00  1.50000000E+00  8.00000000E-01  8.00000000E-01  1.50000000E+00
  1.50000000E+00  8.00000000E-01  8.00000000E-01  1.50000000E+00  1.50000000E+00
  8.00000000E-01  8.00000000E-01  1.50000000E+00  1.50000000E+00  8.00000000E-01
  8.00000000E-01  1.50000000E+00  1.50000000E+00  8.00000000E-01  8.00000000E-01
  1.50000000E+00  1.50000000E+00  8.00000000E-01  8.00000000E-01  1.50000000E+00
  1.50000000E+00  8.00000000E-01  8.00000000E-01  1.50000000E+00  1.50000000E+00
  8.00000000E-01  8.00000000E-01  1.50000000E+00  1.50000000E+00  8.00000000E-01
  8.00000000E-01  1.50000000E+00  1.50000000E+00  8.00000000E-01  8.00000000E-01
  1.50000000E+00  1.50000000E+00  8.00000000E-01  8.00000000E-01  1.50000000E+00
  1.50000000E+00  8.00000000E-01  8.00000000E-01  1.50000000E+00  1.50000000E+00
  8.00000000E-01  8.00000000E-01  1.50000000E+00  1.50000000E+00  8.00000000E-01
  8.00000000E-01  1.50000000E+00  1.50000000E+00  8.00000000E-01  8.00000000E-01
  1.50000000E+00  1.50000000E+00  8.00000000E-01  8.00000000E-01  1.50000000E+00
  1.50000000E+00  8.00000000E-01  8.00000000E-01  1.50000000E+00  1.50000000E+00
  8.00000000E-01  8.00000000E-01  1.50000000E+00  1.50000000E+00  8.00000000E-01
  8.00000000E-01  1.50000000E+00  1.50000000E+00  8.00000000E-01  8.00000000E-01
  1.50000000E+00  1.50000000E+00  8.00000000E-01  8.00000000E-01  1.50000000E+00
  1.50000000E+00  8.00000000E-01  8.00000000E-01  1.50000000E+00  1.50000000E+00
  8.00000000E-01  8.00000000E-01  1.50000000E+00  1.50000000E+00  8.00000000E-01
  8.00000000E-01  1.50000000E+00  1.50000000E+00  8.00000000E-01  8.00000000E-01
  1.50000000E+00  1.50000000E+00  8.00000000E-01  8.00000000E-01  1.50000000E+00
  1.50000000E+00  8.00000000E-01  8.00000000E-01  1.50000000E+00  1.50000000E+00
  8.00000000E-01  8.00000000E-01  1.50000000E+00  1.50000000E+00  8.00000000E-01
  8.00000000E-01  1.50000000E+00  1.50000000E+00  8.00000000E-01  8.00000000E-01
  1.50000000E+00  1.50000000E+00  8.00000000E-01  8.00000000E-01  1.50000000E+00
  1.50000000E+00  8.00000000E-01  8.00000000E-01  1.50000000E+00  1.50000000E+00
  8.00000000E-01  8.00000000E-01  1.50000000E+00  1.50000000E+00  8.00000000E-01
  8.00000000E-01  1.50000000E+00  1.50000000E+00  8.00000000E-01  8.00000000E-01
  1.50000000E+00  1.50000000E+00  8.00000000E-01  8.00000000E-01  1.50000000E+00
  1.50000000E+00  8.00000000E-01  8.00000000E-01  1.50000000E+00  1.50000000E+00
  8.00000000E-01  8.00000000E-01  1.50000000E+00  1.50000000E+00  8.00000000E-01
  8.00000000E-01  1.50000000E+00  1.50000000E+00  8.00000000E-01  8.00000000E-01
  1.50000000E+00  1.50000000E+00  8.00000000E-01  8.00000000E-01  1.50000000E+00
  1.50000000E+00  8.00000000E-01  8.00000000E-01  1.50000000E+00  1.50000000E+00
  8.00000000E-01  8.00000000E-01  1.50000000E+00  1.50000000E+00  8.00000000E-01
  8.00000000E-01  1.50000000E+00  1.50000000E+00  8.00000000E-01  8.00000000E-01
  1.50000000E+00  1.50000000E+00  8.00000000E-01  8.00000000E-01  1.50000000E+00
  1.50000000E+00  8.00000000E-01  8.00000000E-01  1.50000000E+00  1.50000000E+00
  8.00000000E-01  8.00000000E-01  1.50000000E+00  1.50000000E+00  8.00000000E-01
  8.00000000E-01  1.50000000E+00  1.50000000E+00  8.00000000E-01  8.00000000E-01
  1.50000000E+00  1.50000000E+00  8.00000000E-01  8.00000000E-01  1.50000000E+00
  1.50000000E+00  8.00000000E-01  8.00000000E-01  1.50000000E+00  1.50000000E+00
  8.00000000E-01  8.00000000E-01  1.50000000E+00  1.50000000E+00  8.00000000E-01
  8.00000000E-01  1.50000000E+00  1.50000000E+00  8.00000000E-01  8.00000000E-01
  1.50000000E+00  1.50000000E+00  8.00000000E-01  8.00000000E-01  1.50000000E+00
  1.50000000E+00  8.00000000E-01  8.00000000E-01  1.50000000E+00  1.50000000E+00
  8.00000000E-01  8.00000000E-01  1.50000000E+00  1.50000000E+00  8.00000000E-01
  8.00000000E-01  1.50000000E+00  1.50000000E+00  8.00000000E-01  8.00000000E-01
  1.50000000E+00  1.50000000E+00  8.00000000E-01  8.00000000E-01  1.50000000E+00
  1.50000000E+00  8.00000000E-01  8.00000000E-01  1.50000000E+00  1.50000000E+00
  8.00000000E-01  8.00000000E-01  1.50000000E+00  1.50000000E+00  8.00000000E-01
  8.00000000E-01  1.50000000E+00  1.50000000E+00  8.00000000E-01  8.00000000E-01
  1.50000000E+00  1.50000000E+00  8.00000000E-01  8.00000000E-01  1.50000000E+00
  1.50000000E+00  8.00000000E-01  8.00000000E-01  1.50000000E+00  1.50000000E+00
  8.00000000E-01  8.00000000E-01  1.50000000E+00  1.50000000E+00  8.00000000E-01
  8.00000000E-01  1.50000000E+00  1.50000000E+00  8.00000000E-01  8.00000000E-01
  1.50000000E+00  1.50000000E+00  8.00000000E-01  8.00000000E-01  1.50000000E+00
  1.50000000E+00  8.00000000E-01  8.00000000E-01  1.50000000E+00  1.50000000E+00
  8.00000000E-01  8.00000000E-01  1.50000000E+00  1.50000000E+00  8.00000000E-01
  8.00000000E-01  1.50000000E+00  1.50000000E+00  8.00000000E-01  8.00000000E-01
  1.50000000E+00  1.50000000E+00  8.00000000E-01  8.00000000E-01  1.50000000E+00
  1.50000000E+00  8.00000000E-01  8.00000000E-01  1.50000000E+00  1.50000000E+00
  8.00000000E-01  8.00000000E-01  1.50000000E+00  1.50000000E+00  8.00000000E-01
  8.00000000E-01  1.50000000E+00  1.50000000E+00  8.00000000E-01  8.00000000E-01
  1.50000000E+00  1.50000000E+00  8.00000000E-01  8.00000000E-01  1.50000000E+00
  1.50000000E+00  8.00000000E-01  8.00000000E-01  1.50000000E+00  1.50000000E+00
  8.00000000E-01  8.00000000E-01  1.50000000E+00  1.50000000E+00  8.00000000E-01
  8.00000000E-01  1.50000000E+00  1.50000000E+00  8.00000000E-01  8.00000000E-01
  1.50000000E+00  1.50000000E+00  8.00000000E-01  8.00000000E-01  1.50000000E+00
  1.50000000E+00  8.00000000E-01  8.00000000E-01  1.50000000E+00  1.50000000E+00
  8.00000000E-01  8.00000000E-01  1.50000000E+00  1.50000000E+00  8.00000000E-01
  8.00000000E-01  1.50000000E+00  1.50000000E+00  8.00000000E-01  8.00000000E-01
  1.50000000E+00  1.50000000E+00  8.00000000E-01  8.00000000E-01  1.50000000E+00
  1.50000000E+00  8.00000000E-01  8.00000000E-01  1.50000000E+00  1.50000000E+00
  8.00000000E-01  8.00000000E-01  1.50000000E+00  1.50000000E+00  8.00000000E-01
  8.00000000E-01  1.50000000E+00  1.50000000E+00  8.00000000E-01  8.00000000E-01
  1.50000000E+00  1.50000000E+00  8.00000000E-01  8.00000000E-01  1.50000000E+00
  1.50000000E+00  8.00000000E-01  8.00000000E-01  1.50000000E+00  1.50000000E+00
  8.00000000E-01  8.00000000E-01  1.50000000E+00  1.50000000E+00  8.00000000E-01
  8.00000000E-01  1.50000000E+00  1.50000000E+00  8.00000000E-01  8.00000000E-01
  1.50000000E+00  1.50000000E+00  8.00000000E-01  8.00000000E-01  1.50000000E+00
  1.50000000E+00  8.00000000E-01  8.00000000E-01  1.50000000E+00  1.50000000E+00
  8.00000000E-01  8.00000000E-01  1.50000000E+00  1.50000000E+00  8.00000000E-01
  8.00000000E-01  1.50000000E+00  1.50000000E+00  8.00000000E-01  8.00000000E-01
  1.50000000E+00  1.50000000E+00  8.00000000E-01  8.00000000E-01  1.50000000E+00
  1.50000000E+00  8.00000000E-01  8.00000000E-01  1.50000000E+00  1.50000000E+00
  8.00000000E-01  8.00000000E-01  1.50000000E+00  1.50000000E+00  8.00000000E-01
  8.00000000E-01  1.50000000E+00  1.50000000E+00  8.00000000E-01  8.00000000E-01
  1.50000000E+00  1.50000000E+00  8.00000000E-01  8.00000000E-01  1.50000000E+00
  1.50000000E+00  8.00000000E-01  8.00000000E-01  1.50000000E+00  1.50000000E+00
  8.00000000E-01  8.00000000E-01  1.50000000E+00  1.50000000E+00  8.00000000E-01
  8.00000000E-01  1.50000000E+00  1.50000000E+00  8.00000000E-01  8.00000000E-01
  1.50000000E+00  1.50000000E+00  8.00000000E-01  8.00000000E-01  1.50000000E+00
  1.50000000E+00  8.00000000E-01  8.00000000E-01  1.50000000E+00  1.50000000E+00
  8.00000000E-01  8.00000000E-01  1.50000000E+00  1.50000000E+00  8.00000000E-01
  8.00000000E-01  1.50000000E+00  1.50000000E+00  8.00000000E-01  8.00000000E-01
  1.50000000E+00  1.50000000E+00  8.00000000E-01  8.00000000E-01  1.50000000E+00
  1.50000000E+00  8.00000000E-01  8.00000000E-01  1.50000000E+00  1.50000000E+00
  8.00000000E-01  8.00000000E-01  1.50000000E+00  1.50000000E+00  8.00000000E-01
  8.00000000E-01  1.50000000E+00  1.50000000E+00  8.00000000E-01  8.00000000E-01
  1.50000000E+00  1.50000000E+00  8.00000000E-01  8.00000000E-01  1.50000000E+00
  1.50000000E+00  8.00000000E-01  8.00000000E-01  1.50000000E+00  1.50000000E+00
  8.00000000E-01  8.00000000E-01  1.50000000E+00  1.50000000E+00  8.00000000E-01
  8.00000000E-01  1.50000000E+00  1.50000000E+00  8.00000000E-01  8.00000000E-01
  1.50000000E+00  1.50000000E+00  8.00000000E-01  8.00000000E-01  1.50000000E+00
  1.50000000E+00  8.00000000E-01  8.00000000E-01  1.50000000E+00  1.50000000E+00
  8.00000000E-01  8.00000000E-01  1.50000000E+00  1.50000000E+00  8.00000000E-01
  8.00000000E-01  1.50000000E+00  1.50000000E+00  8.00000000E-01  8.00000000E-01
  1.50000000E+00  1.50000000E+00  8.00000000E-01  8.00000000E-01  1.50000000E+00
  1.50000000E+00  8.00000000E-01  8.00000000E-01  1.50000000E+00  1.50000000E+00
  8.00000000E-01  8.00000000E-01  1.50000000E+00  1.50000000E+00  8.00000000E-01
  8.00000000E-01  1.50000000E+00  1.50000000E+00  8.00000000E-01  8.00000000E-01
  1.50000000E+00  1.50000000E+00  8.00000000E-01  8.00000000E-01  1.50000000E+00
  1.50000000E+00  8.00000000E-01  8.00000000E-01  1.50000000E+00  1.50000000E+00
  8.00000000E-01  8.00000000E-01  1.50000000E+00  1.50000000E+00  8.00000000E-01
  8.00000000E-01  1.50000000E+00  1.50000000E+00  8.00000000E-01  8.00000000E-01
  1.50000000E+00  1.50000000E+00  8.00000000E-01  8.00000000E-01  1.50000000E+00
  1.50000000E+00  8.00000000E-01  8.00000000E-01  1.50000000E+00  1.50000000E+00
  8.00000000E-01  8.00000000E-01  1.50000000E+00  1.50000000E+00  8.00000000E-01
  8.00000000E-01  1.50000000E+00  1.50000000E+00  8.00000000E-01  8.00000000E-01
  1.50000000E+00  1.50000000E+00  8.00000000E-01  8.00000000E-01  1.50000000E+00
  1.50000000E+00  8.00000000E-01  8.00000000E-01  1.50000000E+00  1.50000000E+00
  8.00000000E-01  8.00000000E-01  1.50000000E+00  1.50000000E+00  8.00000000E-01
  8.00000000E-01  1.50000000E+00  1.50000000E+00  8.00000000E-01  8.00000000E-01
  1.50000000E+00  1.50000000E+00  8.00000000E-01  8.00000000E-01  1.50000000E+00
  1.50000000E+00  8.00000000E-01  8.00000000E-01  1.50000000E+00  1.50000000E+00
  8.00000000E-01  8.00000000E-01  1.50000000E+00  1.50000000E+00  8.00000000E-01
  8.00000000E-01  1.50000000E+00  1.50000000E+00  8.00000000E-01  8.00000000E-01
  1.50000000E+00  1.50000000E+00  8.00000000E-01  8.00000000E-01  1.50000000E+00
  1.50000000E+00  8.00000000E-01  8.00000000E-01  1.50000000E+00  1.50000000E+00
  8.00000000E-01  8.00000000E-01  1.50000000E+00  1.50000000E+00  8.00000000E-01
  8.00000000E-01  1.50000000E+00  1.50000000E+00  8.00000000E-01  8.00000000E-01
  1.50000000E+00  1.50000000E+00  8.00000000E-01  8.00000000E-01  1.50000000E+00
  1.50000000E+00  8.00000000E-01  8.00000000E-01  1.50000000E+00  1.50000000E+00
  8.00000000E-01  8.00000000E-01  1.50000000E+00  1.50000000E+00  8.00000000E-01
  8.00000000E-01  1.50000000E+00  1.50000000E+00  8.00000000E-01  8.00000000E-01
  1.50000000E+00  1.50000000E+00  8.00000000E-01  8.00000000E-01  1.50000000E+00
  1.50000000E+00  8.00000000E-01  8.00000000E-01  1.50000000E+00  1.50000000E+00
  8.00000000E-01  8.00000000E-01  1.50000000E+00  1.50000000E+00  8.00000000E-01
  8.00000000E-01  1.50000000E+00  1.50000000E+00  8.00000000E-01  8.00000000E-01
  1.50000000E+00  1.50000000E+00  8.00000000E-01  8.00000000E-01  1.50000000E+00
  1.50000000E+00  8.00000000E-01  8.00000000E-01  1.50000000E+00  1.50000000E+00
  8.00000000E-01  8.00000000E-01  1.50000000E+00  1.50000000E+00  8.00000000E-01
  8.00000000E-01  1.50000000E+00  1.50000000E+00  8.00000000E-01  8.00000000E-01
  1.50000000E+00  1.50000000E+00  8.00000000E-01  8.00000000E-01  1.50000000E+00
  1.50000000E+00  8.00000000E-01  8.00000000E-01  1.50000000E+00  1.50000000E+00
  8.00000000E-01  8.00000000E-01  1.50000000E+00  1.50000000E+00  8.00000000E-01
  8.00000000E-01  1.50000000E+00  1.50000000E+00  8.00000000E-01  8.00000000E-01
  1.50000000E+00  1.50000000E+00  8.00000000E-01  8.00000000E-01  1.50000000E+00
  1.50000000E+00  8.00000000E-01  8.00000000E-01  1.50000000E+00  1.50000000E+00
  8.00000000E-01  8.00000000E-01  1.50000000E+00  1.50000000E+00  8.00000000E-01
  8.00000000E-01  1.50000000E+00  1.50000000E+00  8.00000000E-01  8.00000000E-01
  1.50000000E+00  1.50000000E+00  8.00000000E-01  8.00000000E-01  1.50000000E+00
  1.50000000E+00  8.00000000E-01  8.00000000E-01  1.50000000E+00  1.50000000E+00
  8.00000000E-01  8.00000000E-01  1.50000000E+00  1.50000000E+00  8.00000000E-01
  8.00000000E-01  1.50000000E+00  1.50000000E+00  8.00000000E-01  8.00000000E-01
  1.50000000E+00  1.50000000E+00  8.00000000E-01  8.00000000E-01  1.50000000E+00
  1.50000000E+00  8.00000000E-01  8.00000000E-01  1.50000000E+00  1.50000000E+00
  8.00000000E-01  8.00000000E-01  1.50000000E+00  1.50000000E+00  8.00000000E-01
  8.00000000E-01  1.50000000E+00  1.50000000E+00  8.00000000E-01  8.00000000E-01
  1.50000000E+00  1.50000000E+00  8.00000000E-01  8.00000000E-01  1.50000000E+00
  1.50000000E+00  8.00000000E-01  8.00000000E-01  1.50000000E+00  1.50000000E+00
  8.00000000E-01  8.00000000E-01  1.50000000E+00  1.50000000E+00  8.00000000E-01
  8.00000000E-01  1.50000000E+00  1.50000000E+00  8.00000000E-01  8.00000000E-01
  1.50000000E+00  1.50000000E+00  8.00000000E-01  8.00000000E-01  1.50000000E+00
  1.50000000E+00  8.00000000E-01  8.00000000E-01  1.50000000E+00  1.50000000E+00
  8.00000000E-01  8.00000000E-01  1.50000000E+00  1.50000000E+00  8.00000000E-01
  8.00000000E-01  1.50000000E+00  1.50000000E+00  8.00000000E-01  8.00000000E-01
  1.50000000E+00  1.50000000E+00  8.00000000E-01  8.00000000E-01  1.50000000E+00
  1.50000000E+00  8.00000000E-01  8.00000000E-01  1.50000000E+00  1.50000000E+00
  8.00000000E-01  8.00000000E-01  1.50000000E+00  1.50000000E+00  8.00000000E-01
  8.00000000E-01  1.50000000E+00  1.50000000E+00  8.00000000E-01  8.00000000E-01
  1.50000000E+00  1.50000000E+00  8.00000000E-01  8.00000000E-01  1.50000000E+00
  1.50000000E+00  8.00000000E-01  8.00000000E-01  1.50000000E+00  1.50000000E+00
  8.00000000E-01  8.00000000E-01  1.50000000E+00  1.50000000E+00  8.00000000E-01
  8.00000000E-01  1.50000000E+00  1.50000000E+00  8.00000000E-01  8.00000000E-01
  1.50000000E+00  1.50000000E+00  8.00000000E-01  8.00000000E-01  1.50000000E+00
  1.50000000E+00  8.00000000E-01  8.00000000E-01  1.50000000E+00  1.50000000E+00
  8.00000000E-01  8.00000000E-01  1.50000000E+00  1.50000000E+00  8.00000000E-01
  8.00000000E-01  1.50000000E+00  1.50000000E+00  8.00000000E-01  8.00000000E-01
  1.50000000E+00  1.50000000E+00  8.00000000E-01  8.00000000E-01  1.50000000E+00
  1.50000000E+00  8.00000000E-01  8.00000000E-01  1.50000000E+00  1.50000000E+00
  8.00000000E-01  8.00000000E-01  1.50000000E+00  1.50000000E+00  8.00000000E-01
  8.00000000E-01  1.50000000E+00  1.50000000E+00  8.00000000E-01  8.00000000E-01
  1.50000000E+00  1.50000000E+00  8.00000000E-01  8.00000000E-01  1.50000000E+00
  1.50000000E+00  8.00000000E-01  8.00000000E-01  1.50000000E+00  1.50000000E+00
  8.00000000E-01  8.00000000E-01  1.50000000E+00  1.50000000E+00  8.00000000E-01
  8.00000000E-01  1.50000000E+00  1.50000000E+00  8.00000000E-01  8.00000000E-01
  1.50000000E+00  1.50000000E+00  8.00000000E-01  8.00000000E-01  1.50000000E+00
  1.50000000E+00  8.00000000E-01  8.00000000E-01  1.50000000E+00  1.50000000E+00
  8.00000000E-01  8.00000000E-01  1.50000000E+00  1.50000000E+00  8.00000000E-01
  8.00000000E-01  1.50000000E+00  1.50000000E+00  8.00000000E-01  8.00000000E-01
  1.50000000E+00  1.50000000E+00  8.00000000E-01  8.00000000E-01  1.50000000E+00
  1.50000000E+00  8.00000000E-01  8.00000000E-01  1.50000000E+00  1.50000000E+00
  8.00000000E-01  8.00000000E-01  1.50000000E+00  1.50000000E+00  8.00000000E-01
  8.00000000E-01  1.50000000E+00  1.50000000E+00  8.00000000E-01  8.00000000E-01
  1.50000000E+00  1.50000000E+00  8.00000000E-01  8.00000000E-01  1.50000000E+00
  1.50000000E+00  8.00000000E-01  8.00000000E-01  1.50000000E+00  1.50000000E+00
  8.00000000E-01  8.00000000E-01  1.50000000E+00  1.50000000E+00  8.00000000E-01
  8.00000000E-01  1.50000000E+00  1.50000000E+00  8.00000000E-01  8.00000000E-01
  1.50000000E+00  1.50000000E+00  8.00000000E-01  8.00000000E-01  1.50000000E+00
  1.50000000E+00  8.00000000E-01  8.00000000E-01  1.50000000E+00  1.50000000E+00
  8.00000000E-01  8.00000000E-01  1.50000000E+00  1.50000000E+00  8.00000000E-01
  8.00000000E-01  1.50000000E+00  1.50000000E+00  8.00000000E-01  8.00000000E-01
  1.50000000E+00  1.50000000E+00  8.00000000E-01  8.00000000E-01  1.50000000E+00
  1.50000000E+00  8.00000000E-01  8.00000000E-01  1.50000000E+00  1.50000000E+00
  8.00000000E-01  8.00000000E-01  1.50000000E+00  1.50000000E+00  8.00000000E-01
  8.00000000E-01  1.50000000E+00  1.50000000E+00  8.00000000E-01  8.00000000E-01
  1.50000000E+00  1.50000000E+00  8.00000000E-01  8.00000000E-01  1.50000000E+00
  1.50000000E+00  8.00000000E-01  8.00000000E-01  1.50000000E+00  1.50000000E+00
  8.00000000E-01  8.00000000E-01  1.50000000E+00  1.50000000E+00  8.00000000E-01
  8.00000000E-01  1.50000000E+00  1.50000000E+00  8.00000000E-01  8.00000000E-01
  1.50000000E+00  1.50000000E+00  8.00000000E-01  8.00000000E-01  1.50000000E+00
  1.50000000E+00  8.00000000E-01  8.00000000E-01  1.50000000E+00  1.50000000E+00
  8.00000000E-01  8.00000000E-01  1.50000000E+00  1.50000000E+00  8.00000000E-01
  8.00000000E-01  1.50000000E+00  1.50000000E+00  8.00000000E-01  8.00000000E-01
  1.50000000E+00  1.50000000E+00  8.00000000E-01  8.00000000E-01  1.50000000E+00
  1.50000000E+00  8.00000000E-01  8.00000000E-01  1.50000000E+00  1.50000000E+00
  8.00000000E-01  8.00000000E-01  1.50000000E+00  1.50000000E+00  8.00000000E-01
  8.00000000E-01  1.50000000E+00  1.50000000E+00  8.00000000E-01  8.00000000E-01
  1.50000000E+00  1.50000000E+00  8.00000000E-01  8.00000000E-01  1.50000000E+00
  1.50000000E+00  8.00000000E-01  8.00000000E-01  1.50000000E+00  1.50000000E+00
  8.00000000E-01  8.00000000E-01  1.50000000E+00  1.50000000E+00  8.00000000E-01
  8.00000000E-01  1.50000000E+00  1.50000000E+00  8.00000000E-01  8.00000000E-01
  1.50000000E+00  1.50000000E+00  8.00000000E-01  8.00000000E-01  1.50000000E+00
  1.50000000E+00  8.00000000E-01  8.00000000E-01  1.50000000E+00  1.50000000E+00
  8.00000000E-01  8.00000000E-01  1.50000000E+00  1.50000000E+00  8.00000000E-01
  8.00000000E-01  1.50000000E+00  1.50000000E+00  8.00000000E-01  8.00000000E-01
  1.50000000E+00  1.50000000E+00  8.00000000E-01  8.00000000E-01  1.50000000E+00
  1.50000000E+00  8.00000000E-01  8.00000000E-01  1.50000000E+00  1.50000000E+00
  8.00000000E-01  8.00000000E-01  1.50000000E+00  1.50000000E+00  8.00000000E-01
  8.00000000E-01  1.50000000E+00  1.50000000E+00  8.00000000E-01  8.00000000E-01
  1.50000000E+00  1.50000000E+00  8.00000000E-01  8.00000000E-01  1.50000000E+00
  1.50000000E+00  8.00000000E-01  8.00000000E-01  1.50000000E+00  1.50000000E+00
  8.00000000E-01  8.00000000E-01  1.50000000E+00  1.50000000E+00  8.00000000E-01
  8.00000000E-01  1.50000000E+00  1.50000000E+00  8.00000000E-01  8.00000000E-01
  1.50000000E+00  1.50000000E+00  8.00000000E-01  8.00000000E-01  1.50000000E+00
  1.50000000E+00  8.00000000E-01  8.00000000E-01  1.50000000E+00  1.50000000E+00
  8.00000000E-01  8.00000000E-01  1.50000000E+00  1.50000000E+00  8.00000000E-01
  8.00000000E-01  1.50000000E+00  1.50000000E+00  8.00000000E-01  8.00000000E-01
  1.50000000E+00  1.50000000E+00  8.00000000E-01  8.00000000E-01  1.50000000E+00
  1.50000000E+00  8.00000000E-01  8.00000000E-01  1.50000000E+00  1.50000000E+00
  8.00000000E-01  8.00000000E-01  1.50000000E+00  1.50000000E+00  8.00000000E-01
  8.00000000E-01  1.50000000E+00  1.50000000E+00  8.00000000E-01  8.00000000E-01
  1.50000000E+00  1.50000000E+00  8.00000000E-01  8.00000000E-01  1.50000000E+00
  1.50000000E+00  8.00000000E-01  8.00000000E-01  1.50000000E+00  1.50000000E+00
  8.00000000E-01  8.00000000E-01  1.50000000E+00  1.50000000E+00  8.00000000E-01
  8.00000000E-01  1.50000000E+00  1.50000000E+00  8.00000000E-01  8.00000000E-01
  1.50000000E+00  1.50000000E+00  8.00000000E-01  8.00000000E-01  1.50000000E+00
  1.50000000E+00  8.00000000E-01  8.00000000E-01  1.50000000E+00  1.50000000E+00
  8.00000000E-01  8.00000000E-01  1.50000000E+00  1.50000000E+00  8.00000000E-01
  8.00000000E-01  1.50000000E+00  1.50000000E+00  8.00000000E-01  8.00000000E-01
  1.50000000E+00  1.50000000E+00  8.00000000E-01  8.00000000E-01  1.50000000E+00
  1.50000000E+00  8.00000000E-01  8.00000000E-01  1.50000000E+00  1.50000000E+00
  8.00000000E-01  8.00000000E-01  1.50000000E+00  1.50000000E+00  8.00000000E-01
  8.00000000E-01  1.50000000E+00  1.50000000E+00  8.00000000E-01  8.00000000E-01
  1.50000000E+00  1.50000000E+00  8.00000000E-01  8.00000000E-01  1.50000000E+00
  1.50000000E+00  8.00000000E-01  8.00000000E-01  1.50000000E+00  1.50000000E+00
  8.00000000E-01  8.00000000E-01  1.50000000E+00  1.50000000E+00  8.00000000E-01
  8.00000000E-01  1.50000000E+00  1.50000000E+00  8.00000000E-01  8.00000000E-01
  1.50000000E+00  1.50000000E+00  8.00000000E-01  8.00000000E-01  1.50000000E+00
  1.50000000E+00  8.00000000E-01  8.00000000E-01  1.50000000E+00  1.50000000E+00
  8.00000000E-01  8.00000000E-01  1.50000000E+00  1.50000000E+00  8.00000000E-01
  8.00000000E-01  1.50000000E+00  1.50000000E+00  8.00000000E-01  8.00000000E-01
  1.50000000E+00  1.50000000E+00  8.00000000E-01  8.00000000E-01  1.50000000E+00
  1.50000000E+00  8.00000000E-01  8.00000000E-01  1.50000000E+00  1.50000000E+00
  8.00000000E-01  8.00000000E-01  1.50000000E+00  1.50000000E+00  8.00000000E-01
  8.00000000E-01  1.50000000E+00  1.50000000E+00  8.00000000E-01  8.00000000E-01
  1.50000000E+00  1.50000000E+00  8.00000000E-01  8.00000000E-01  1.50000000E+00
  1.50000000E+00  8.00000000E-01  8.00000000E-01  1.50000000E+00  1.50000000E+00
  8.00000000E-01  8.00000000E-01  1.50000000E+00  1.50000000E+00  8.00000000E-01
  8.00000000E-01  1.50000000E+00  1.50000000E+00  8.00000000E-01  8.00000000E-01
  1.50000000E+00  1.50000000E+00  8.00000000E-01  8.00000000E-01  1.50000000E+00
  1.50000000E+00  8.00000000E-01  8.00000000E-01  1.50000000E+00  1.50000000E+00
  8.00000000E-01  8.00000000E-01  1.50000000E+00  1.50000000E+00  8.00000000E-01
  8.00000000E-01  1.50000000E+00  1.50000000E+00  8.00000000E-01  8.00000000E-01
  1.50000000E+00  1.50000000E+00  8.00000000E-01  8.00000000E-01  1.50000000E+00
  1.50000000E+00  8.00000000E-01  8.00000000E-01  1.50000000E+00  1.50000000E+00
  8.00000000E-01  8.00000000E-01  1.50000000E+00  1.50000000E+00  8.00000000E-01
  8.00000000E-01  1.50000000E+00  1.50000000E+00  8.00000000E-01  8.00000000E-01
  1.50000000E+00  1.50000000E+00  8.00000000E-01  8.00000000E-01  1.50000000E+00
  1.50000000E+00  8.00000000E-01  8.00000000E-01  1.50000000E+00  1.50000000E+00
  8.00000000E-01  8.00000000E-01  1.50000000E+00  1.50000000E+00  8.00000000E-01
  8.00000000E-01  1.50000000E+00  1.50000000E+00  8.00000000E-01  8.00000000E-01
  1.50000000E+00  1.50000000E+00  8.00000000E-01  8.00000000E-01  1.50000000E+00
  1.50000000E+00  8.00000000E-01  8.00000000E-01  1.50000000E+00  1.50000000E+00
  8.00000000E-01  8.00000000E-01  1.50000000E+00  1.50000000E+00  8.00000000E-01
  8.00000000E-01  1.50000000E+00  1.50000000E+00  8.00000000E-01  8.00000000E-01
  1.50000000E+00  1.50000000E+00  8.00000000E-01  8.00000000E-01  1.50000000E+00
  1.50000000E+00  8.00000000E-01  8.00000000E-01  1.50000000E+00  1.50000000E+00
  8.00000000E-01  8.00000000E-01  1.50000000E+00  1.50000000E+00  8.00000000E-01
  8.00000000E-01  1.50000000E+00  1.50000000E+00  8.00000000E-01  8.00000000E-01
  1.50000000E+00  1.50000000E+00  8.00000000E-01  8.00000000E-01  1.50000000E+00
  1.50000000E+00  8.00000000E-01  8.00000000E-01  1.50000000E+00  1.50000000E+00
  8.00000000E-01  8.00000000E-01  1.50000000E+00  1.50000000E+00  8.00000000E-01
  8.00000000E-01  1.50000000E+00  1.50000000E+00  8.00000000E-01  8.00000000E-01
  1.50000000E+00  1.50000000E+00  8.00000000E-01  8.00000000E-01  1.50000000E+00
  1.50000000E+00  8.00000000E-01  8.00000000E-01  1.50000000E+00  1.50000000E+00
  8.00000000E-01  8.00000000E-01  1.50000000E+00  1.50000000E+00  8.00000000E-01
  8.00000000E-01  1.50000000E+00  1.50000000E+00  8.00000000E-01  8.00000000E-01
  1.50000000E+00  1.50000000E+00  8.00000000E-01  8.00000000E-01  1.50000000E+00
  1.50000000E+00  8.00000000E-01  8.00000000E-01  1.50000000E+00  1.50000000E+00
  8.00000000E-01  8.00000000E-01  1.50000000E+00  1.50000000E+00  8.00000000E-01
  8.00000000E-01  1.50000000E+00  1.50000000E+00  8.00000000E-01  8.00000000E-01
  1.50000000E+00  1.50000000E+00  8.00000000E-01  8.00000000E-01  1.50000000E+00
  1.50000000E+00  8.00000000E-01  8.00000000E-01  1.50000000E+00  1.50000000E+00
  8.00000000E-01  8.00000000E-01  1.50000000E+00  1.50000000E+00  8.00000000E-01
  8.00000000E-01  1.50000000E+00  1.50000000E+00  8.00000000E-01  8.00000000E-01
  1.50000000E+00  1.50000000E+00  8.00000000E-01  8.00000000E-01  1.50000000E+00
  1.50000000E+00  8.00000000E-01  8.00000000E-01  1.50000000E+00  1.50000000E+00
  8.00000000E-01  8.00000000E-01  1.50000000E+00  1.50000000E+00  8.00000000E-01
  8.00000000E-01  1.50000000E+00  1.50000000E+00  8.00000000E-01  8.00000000E-01
  1.50000000E+00  1.50000000E+00  8.00000000E-01  8.00000000E-01  1.50000000E+00
  1.50000000E+00  8.00000000E-01  8.00000000E-01  1.50000000E+00  1.50000000E+00
  8.00000000E-01  8.00000000E-01  1.50000000E+00  1.50000000E+00  8.00000000E-01
  8.00000000E-01  1.50000000E+00  1.50000000E+00  8.00000000E-01  8.00000000E-01
  1.50000000E+00  1.50000000E+00  8.00000000E-01  8.00000000E-01  1.50000000E+00
  1.50000000E+00  8.00000000E-01  8.00000000E-01  1.50000000E+00  1.50000000E+00
  8.00000000E-01  8.00000000E-01  1.50000000E+00  1.50000000E+00  8.00000000E-01
  8.00000000E-01  1.50000000E+00  1.50000000E+00  8.00000000E-01  8.00000000E-01
  1.50000000E+00  1.50000000E+00  8.00000000E-01  8.00000000E-01  1.50000000E+00
  1.50000000E+00  8.00000000E-01  8.00000000E-01  1.50000000E+00  1.50000000E+00
  8.00000000E-01  8.00000000E-01  1.50000000E+00  1.50000000E+00  8.00000000E-01
  8.00000000E-01  1.50000000E+00  1.50000000E+00  8.00000000E-01  8.00000000E-01
  1.50000000E+00  1.50000000E+00  8.00000000E-01  8.00000000E-01  1.50000000E+00
  1.50000000E+00  8.00000000E-01  8.00000000E-01  1.50000000E+00  1.50000000E+00
  8.00000000E-01  8.00000000E-01  1.50000000E+00  1.50000000E+00  8.00000000E-01
  8.00000000E-01  1.50000000E+00  1.50000000E+00  8.00000000E-01  8.00000000E-01
  1.50000000E+00  1.50000000E+00  8.00000000E-01  8.00000000E-01  1.50000000E+00
  1.50000000E+00  8.00000000E-01  8.00000000E-01  1.50000000E+00  1.50000000E+00
  8.00000000E-01  8.00000000E-01  1.50000000E+00  1.50000000E+00  8.00000000E-01
  8.00000000E-01  1.50000000E+00  1.50000000E+00  8.00000000E-01  8.00000000E-01
  1.50000000E+00  1.50000000E+00  8.00000000E-01  8.00000000E-01  1.50000000E+00
  1.50000000E+00  8.00000000E-01  8.00000000E-01  1.50000000E+00  1.50000000E+00
  8.00000000E-01  8.00000000E-01  1.50000000E+00  1.50000000E+00  8.00000000E-01
  8.00000000E-01  1.50000000E+00  1.50000000E+00  8.00000000E-01  8.00000000E-01
  1.50000000E+00  1.50000000E+00  8.00000000E-01  8.00000000E-01  1.50000000E+00
  1.50000000E+00  8.00000000E-01  8.00000000E-01  1.50000000E+00  1.50000000E+00
  8.00000000E-01  8.00000000E-01  1.50000000E+00  1.50000000E+00  8.00000000E-01
  8.00000000E-01  1.50000000E+00  1.50000000E+00  8.00000000E-01  8.00000000E-01
  1.50000000E+00  1.50000000E+00  8.00000000E-01  8.00000000E-01  1.50000000E+00
  1.50000000E+00  8.00000000E-01  8.00000000E-01  1.50000000E+00  1.50000000E+00
  8.00000000E-01  8.00000000E-01  1.50000000E+00  1.50000000E+00  8.00000000E-01
  8.00000000E-01  1.50000000E+00  1.50000000E+00  8.00000000E-01  8.00000000E-01
  1.50000000E+00  1.50000000E+00  8.00000000E-01  8.00000000E-01  1.50000000E+00
  1.50000000E+00  8.00000000E-01  8.00000000E-01  1.50000000E+00  1.50000000E+00
  8.00000000E-01  8.00000000E-01  1.50000000E+00  1.50000000E+00  8.00000000E-01
  8.00000000E-01  1.50000000E+00  1.50000000E+00  8.00000000E-01  8.00000000E-01
  1.50000000E+00  1.50000000E+00  8.00000000E-01  8.00000000E-01  1.50000000E+00
  1.50000000E+00  8.00000000E-01  8.00000000E-01  1.50000000E+00  1.50000000E+00
  8.00000000E-01  8.00000000E-01  1.50000000E+00  1.50000000E+00  8.00000000E-01
  8.00000000E-01  1.50000000E+00  1.50000000E+00  8.00000000E-01  8.00000000E-01
  1.50000000E+00  1.50000000E+00  8.00000000E-01  8.00000000E-01  1.50000000E+00
  1.50000000E+00  8.00000000E-01  8.00000000E-01  1.50000000E+00  1.50000000E+00
  8.00000000E-01  8.00000000E-01  1.50000000E+00  1.50000000E+00  8.00000000E-01
  8.00000000E-01  1.50000000E+00  1.50000000E+00  8.00000000E-01  8.00000000E-01
  1.50000000E+00  1.50000000E+00  8.00000000E-01  8.00000000E-01  1.50000000E+00
  1.50000000E+00  8.00000000E-01  8.00000000E-01  1.50000000E+00  1.50000000E+00
  8.00000000E-01  8.00000000E-01  1.50000000E+00  1.50000000E+00  8.00000000E-01
  8.00000000E-01  1.50000000E+00  1.50000000E+00  8.00000000E-01  8.00000000E-01
  1.50000000E+00  1.50000000E+00  8.00000000E-01  8.00000000E-01  1.50000000E+00
  1.50000000E+00  8.00000000E-01  8.00000000E-01  1.50000000E+00  1.50000000E+00
  8.00000000E-01  8.00000000E-01  1.50000000E+00  1.50000000E+00  8.00000000E-01
  8.00000000E-01  1.50000000E+00  1.50000000E+00  8.00000000E-01  8.00000000E-01
  1.50000000E+00  1.50000000E+00  8.00000000E-01  8.00000000E-01  1.50000000E+00
  1.50000000E+00  8.00000000E-01  8.00000000E-01  1.50000000E+00  1.50000000E+00
  8.00000000E-01  8.00000000E-01  1.50000000E+00  1.50000000E+00  8.00000000E-01
  8.00000000E-01  1.50000000E+00  1.50000000E+00  8.00000000E-01  8.00000000E-01
  1.50000000E+00  1.50000000E+00  8.00000000E-01  8.00000000E-01  1.50000000E+00
  1.50000000E+00  8.00000000E-01  8.00000000E-01  1.50000000E+00  1.50000000E+00
  8.00000000E-01  8.00000000E-01  1.50000000E+00  1.50000000E+00  8.00000000E-01
  8.00000000E-01  1.50000000E+00  1.50000000E+00  8.00000000E-01  8.00000000E-01
  1.50000000E+00  1.50000000E+00  8.00000000E-01  8.00000000E-01  1.50000000E+00
  1.50000000E+00  8.00000000E-01  8.00000000E-01  1.50000000E+00  1.50000000E+00
  8.00000000E-01  8.00000000E-01  1.50000000E+00  1.50000000E+00  8.00000000E-01
  8.00000000E-01  1.50000000E+00  1.50000000E+00  8.00000000E-01  8.00000000E-01
  1.50000000E+00  1.50000000E+00  8.00000000E-01  8.00000000E-01  1.50000000E+00
  1.50000000E+00  8.00000000E-01  8.00000000E-01  1.50000000E+00  1.50000000E+00
  8.00000000E-01  8.00000000E-01  1.50000000E+00  1.50000000E+00  8.00000000E-01
  8.00000000E-01  1.50000000E+00  1.50000000E+00  8.00000000E-01  8.00000000E-01
  1.50000000E+00  1.50000000E+00  8.00000000E-01  8.00000000E-01  1.50000000E+00
  1.50000000E+00  8.00000000E-01  8.00000000E-01  1.50000000E+00  1.50000000E+00
  8.00000000E-01  8.00000000E-01  1.50000000E+00  1.50000000E+00  8.00000000E-01
  8.00000000E-01  1.50000000E+00  1.50000000E+00  8.00000000E-01  8.00000000E-01
  1.50000000E+00  1.50000000E+00  8.00000000E-01  8.00000000E-01  1.50000000E+00
  1.50000000E+00  8.00000000E-01  8.00000000E-01  1.50000000E+00  1.50000000E+00
  8.00000000E-01  8.00000000E-01  1.50000000E+00  1.50000000E+00  8.00000000E-01
  8.00000000E-01  1.50000000E+00  1.50000000E+00  8.00000000E-01  8.00000000E-01
  1.50000000E+00  1.50000000E+00  8.00000000E-01  8.00000000E-01  1.50000000E+00
  1.50000000E+00  8.00000000E-01  8.00000000E-01  1.50000000E+00  1.50000000E+00
  8.00000000E-01  8.00000000E-01  1.50000000E+00  1.50000000E+00  8.00000000E-01
  8.00000000E-01  1.50000000E+00  1.50000000E+00  8.00000000E-01  8.00000000E-01
  1.50000000E+00  1.50000000E+00  8.00000000E-01  8.00000000E-01  1.50000000E+00
  1.50000000E+00  8.00000000E-01  8.00000000E-01  1.50000000E+00  1.50000000E+00
  8.00000000E-01  8.00000000E-01  1.50000000E+00  1.50000000E+00  8.00000000E-01
  8.00000000E-01  1.50000000E+00  1.50000000E+00  8.00000000E-01  8.00000000E-01
  1.50000000E+00  1.50000000E+00  8.00000000E-01  8.00000000E-01  1.50000000E+00
  1.50000000E+00  8.00000000E-01  8.00000000E-01  1.50000000E+00  1.50000000E+00
  8.00000000E-01  8.00000000E-01  1.50000000E+00  1.50000000E+00  8.00000000E-01
  8.00000000E-01  1.50000000E+00  1.50000000E+00  8.00000000E-01  8.00000000E-01
  1.50000000E+00  1.50000000E+00  8.00000000E-01  8.00000000E-01  1.50000000E+00
  1.50000000E+00  8.00000000E-01  8.00000000E-01  1.50000000E+00  1.50000000E+00
  8.00000000E-01  8.00000000E-01  1.50000000E+00  1.50000000E+00  8.00000000E-01
  8.00000000E-01  1.50000000E+00  1.50000000E+00  8.00000000E-01  8.00000000E-01
  1.50000000E+00  1.50000000E+00  8.00000000E-01  8.00000000E-01  1.50000000E+00
  1.50000000E+00  8.00000000E-01  8.00000000E-01  1.50000000E+00  1.50000000E+00
  8.00000000E-01  8.00000000E-01  1.50000000E+00  1.50000000E+00  8.00000000E-01
  8.00000000E-01  1.50000000E+00  1.50000000E+00  8.00000000E-01  8.00000000E-01
  1.50000000E+00  1.50000000E+00  8.00000000E-01  8.00000000E-01  1.50000000E+00
  1.50000000E+00  8.00000000E-01  8.00000000E-01  1.50000000E+00  1.50000000E+00
  8.00000000E-01  8.00000000E-01  1.50000000E+00  1.50000000E+00  8.00000000E-01
  8.00000000E-01  1.50000000E+00  1.50000000E+00  8.00000000E-01  8.00000000E-01
  1.50000000E+00  1.50000000E+00  8.00000000E-01  8.00000000E-01  1.50000000E+00
  1.50000000E+00  8.00000000E-01  8.00000000E-01  1.50000000E+00  1.50000000E+00
  8.00000000E-01  8.00000000E-01  1.50000000E+00  1.50000000E+00  8.00000000E-01
  8.00000000E-01  1.50000000E+00  1.50000000E+00  8.00000000E-01  8.00000000E-01
  1.50000000E+00  1.50000000E+00  8.00000000E-01  8.00000000E-01  1.50000000E+00
  1.50000000E+00  8.00000000E-01  8.00000000E-01  1.50000000E+00  1.50000000E+00
  8.00000000E-01  8.00000000E-01  1.50000000E+00  1.50000000E+00  8.00000000E-01
  8.00000000E-01  1.50000000E+00  1.50000000E+00  8.00000000E-01  8.00000000E-01
  1.50000000E+00  1.50000000E+00  8.00000000E-01  8.00000000E-01  1.50000000E+00
  1.50000000E+00  8.00000000E-01  8.00000000E-01  1.50000000E+00  1.50000000E+00
  8.00000000E-01  8.00000000E-01  1.50000000E+00  1.50000000E+00  8.00000000E-01
  8.00000000E-01  1.50000000E+00  1.50000000E+00  8.00000000E-01  8.00000000E-01
  1.50000000E+00  1.50000000E+00  8.00000000E-01  8.00000000E-01  1.50000000E+00
  1.50000000E+00  8.00000000E-01  8.00000000E-01  1.50000000E+00  1.50000000E+00
  8.00000000E-01  8.00000000E-01  1.50000000E+00  1.50000000E+00  8.00000000E-01
  8.00000000E-01  1.50000000E+00  1.50000000E+00  8.00000000E-01  8.00000000E-01
  1.50000000E+00  1.50000000E+00  8.00000000E-01  8.00000000E-01  1.50000000E+00
  1.50000000E+00  8.00000000E-01  8.00000000E-01  1.50000000E+00  1.50000000E+00
  8.00000000E-01  8.00000000E-01  1.50000000E+00  1.50000000E+00  8.00000000E-01
  8.00000000E-01  1.50000000E+00  1.50000000E+00  8.00000000E-01  8.00000000E-01
  1.50000000E+00  1.50000000E+00  8.00000000E-01  8.00000000E-01  1.50000000E+00
  1.50000000E+00  8.00000000E-01  8.00000000E-01  1.50000000E+00  1.50000000E+00
  8.00000000E-01  8.00000000E-01  1.50000000E+00  1.50000000E+00  8.00000000E-01
  8.00000000E-01  1.50000000E+00  1.50000000E+00  8.00000000E-01  8.00000000E-01
  1.50000000E+00  1.50000000E+00  8.00000000E-01  8.00000000E-01  1.50000000E+00
  1.50000000E+00  8.00000000E-01  8.00000000E-01  1.50000000E+00  1.50000000E+00
  8.00000000E-01  8.00000000E-01  1.50000000E+00  1.50000000E+00  8.00000000E-01
  8.00000000E-01  1.50000000E+00  1.50000000E+00  8.00000000E-01  8.00000000E-01
  1.50000000E+00  1.50000000E+00  8.00000000E-01  8.00000000E-01  1.50000000E+00
  1.50000000E+00  8.00000000E-01  8.00000000E-01  1.50000000E+00  1.50000000E+00
  8.00000000E-01  8.00000000E-01  1.50000000E+00  1.50000000E+00  8.00000000E-01
  8.00000000E-01  1.50000000E+00  1.50000000E+00  8.00000000E-01  8.00000000E-01
  1.50000000E+00  1.50000000E+00  8.00000000E-01  8.00000000E-01  1.50000000E+00
  1.50000000E+00  8.00000000E-01  8.00000000E-01  1.50000000E+00  1.50000000E+00
  8.00000000E-01  8.00000000E-01  1.50000000E+00  1.50000000E+00  8.00000000E-01
  8.00000000E-01  1.50000000E+00  1.50000000E+00  8.00000000E-01  8.00000000E-01
  1.50000000E+00  1.50000000E+00  8.00000000E-01  8.00000000E-01  1.50000000E+00
  1.50000000E+00  8.00000000E-01  8.00000000E-01  1.50000000E+00  1.50000000E+00
  8.00000000E-01  8.00000000E-01  1.50000000E+00  1.50000000E+00  8.00000000E-01
  8.00000000E-01  1.50000000E+00  1.50000000E+00  8.00000000E-01  8.00000000E-01
  1.50000000E+00  1.50000000E+00  8.00000000E-01  8.00000000E-01  1.50000000E+00
  1.50000000E+00  8.00000000E-01  8.00000000E-01  1.50000000E+00  1.50000000E+00
  8.00000000E-01  8.00000000E-01  1.50000000E+00  1.50000000E+00  8.00000000E-01
  8.00000000E-01  1.50000000E+00  1.50000000E+00  8.00000000E-01  8.00000000E-01
  1.50000000E+00  1.50000000E+00  8.00000000E-01  8.00000000E-01  1.50000000E+00
  1.50000000E+00  8.00000000E-01  8.00000000E-01  1.50000000E+00  1.50000000E+00
  8.00000000E-01  8.00000000E-01  1.50000000E+00  1.50000000E+00  8.00000000E-01
  8.00000000E-01  1.50000000E+00  1.50000000E+00  8.00000000E-01  8.00000000E-01
  1.50000000E+00  1.50000000E+00  8.00000000E-01  8.00000000E-01  1.50000000E+00
  1.50000000E+00  8.00000000E-01  8.00000000E-01  1.50000000E+00  1.50000000E+00
  8.00000000E-01  8.00000000E-01  1.50000000E+00  1.50000000E+00  8.00000000E-01
  8.00000000E-01  1.50000000E+00  1.50000000E+00  8.00000000E-01  8.00000000E-01
  1.50000000E+00  1.50000000E+00  8.00000000E-01  8.00000000E-01  1.50000000E+00
  1.50000000E+00  8.00000000E-01  8.00000000E-01  1.50000000E+00  1.50000000E+00
  8.00000000E-01  8.00000000E-01  1.50000000E+00  1.50000000E+00  8.00000000E-01
  8.00000000E-01  1.50000000E+00  1.50000000E+00  8.00000000E-01  8.00000000E-01
  1.50000000E+00  1.50000000E+00  8.00000000E-01  8.00000000E-01  1.50000000E+00
  1.50000000E+00  8.00000000E-01  8.00000000E-01  1.50000000E+00  1.50000000E+00
  8.00000000E-01  8.00000000E-01  1.50000000E+00  1.50000000E+00  8.00000000E-01
  8.00000000E-01  1.50000000E+00  1.50000000E+00  8.00000000E-01  8.00000000E-01
  1.50000000E+00  1.50000000E+00  8.00000000E-01  8.00000000E-01  1.50000000E+00
  1.50000000E+00  8.00000000E-01  8.00000000E-01  1.50000000E+00  1.50000000E+00
  8.00000000E-01  8.00000000E-01  1.50000000E+00  1.50000000E+00  8.00000000E-01
  8.00000000E-01  1.50000000E+00  1.50000000E+00  8.00000000E-01  8.00000000E-01
  1.50000000E+00  1.50000000E+00  8.00000000E-01  8.00000000E-01  1.50000000E+00
  1.50000000E+00  8.00000000E-01  8.00000000E-01  1.50000000E+00  1.50000000E+00
  8.00000000E-01  8.00000000E-01  1.50000000E+00  1.50000000E+00  8.00000000E-01
  8.00000000E-01  1.50000000E+00  1.50000000E+00  8.00000000E-01  8.00000000E-01
  1.50000000E+00  1.50000000E+00  8.00000000E-01  8.00000000E-01  1.50000000E+00
  1.50000000E+00  8.00000000E-01  8.00000000E-01  1.50000000E+00  1.50000000E+00
  8.00000000E-01  8.00000000E-01  1.50000000E+00  1.50000000E+00  8.00000000E-01
  8.00000000E-01  1.50000000E+00  1.50000000E+00  8.00000000E-01  8.00000000E-01
  1.50000000E+00  1.50000000E+00  8.00000000E-01  8.00000000E-01  1.50000000E+00
  1.50000000E+00  8.00000000E-01  8.00000000E-01  1.50000000E+00  1.50000000E+00
  8.00000000E-01  8.00000000E-01  1.50000000E+00  1.50000000E+00  8.00000000E-01
  8.00000000E-01  1.50000000E+00  1.50000000E+00  8.00000000E-01  8.00000000E-01
  1.50000000E+00  1.50000000E+00  8.00000000E-01  8.00000000E-01  1.50000000E+00
  1.50000000E+00  8.00000000E-01  8.00000000E-01  1.50000000E+00  1.50000000E+00
  8.00000000E-01  8.00000000E-01  1.50000000E+00  1.50000000E+00  8.00000000E-01
  8.00000000E-01  1.50000000E+00  1.50000000E+00  8.00000000E-01  8.00000000E-01
  1.50000000E+00  1.50000000E+00  8.00000000E-01  8.00000000E-01  1.50000000E+00
  1.50000000E+00  8.00000000E-01  8.00000000E-01  1.50000000E+00  1.50000000E+00
  8.00000000E-01  8.00000000E-01  1.50000000E+00  1.50000000E+00  8.00000000E-01
  8.00000000E-01  1.50000000E+00  1.50000000E+00  8.00000000E-01  8.00000000E-01
  1.50000000E+00  1.50000000E+00  8.00000000E-01  8.00000000E-01  1.50000000E+00
  1.50000000E+00  8.00000000E-01  8.00000000E-01  1.50000000E+00  1.50000000E+00
  8.00000000E-01  8.00000000E-01  1.50000000E+00  1.50000000E+00  8.00000000E-01
  8.00000000E-01  1.50000000E+00  1.50000000E+00  8.00000000E-01  8.00000000E-01
  1.50000000E+00  1.50000000E+00  8.00000000E-01  8.00000000E-01  1.50000000E+00
  1.50000000E+00  8.00000000E-01  8.00000000E-01  1.50000000E+00  1.50000000E+00
  8.00000000E-01  8.00000000E-01  1.50000000E+00  1.50000000E+00  8.00000000E-01
  8.00000000E-01  1.50000000E+00  1.50000000E+00  8.00000000E-01  8.00000000E-01
  1.50000000E+00  1.50000000E+00  8.00000000E-01  8.00000000E-01  1.50000000E+00
  1.50000000E+00  8.00000000E-01  8.00000000E-01  1.50000000E+00  1.50000000E+00
  8.00000000E-01  8.00000000E-01  1.50000000E+00  1.50000000E+00  8.00000000E-01
  8.00000000E-01  1.50000000E+00  1.50000000E+00  8.00000000E-01  8.00000000E-01
  1.50000000E+00  1.50000000E+00  8.00000000E-01  8.00000000E-01  1.50000000E+00
  1.50000000E+00  8.00000000E-01  8.00000000E-01  1.50000000E+00  1.50000000E+00
  8.00000000E-01  8.00000000E-01  1.50000000E+00  1.50000000E+00  8.00000000E-01
  8.00000000E-01  1.50000000E+00  1.50000000E+00  8.00000000E-01  8.00000000E-01
  1.50000000E+00  1.50000000E+00  8.00000000E-01  8.00000000E-01  1.50000000E+00
  1.50000000E+00  8.00000000E-01  8.00000000E-01  1.50000000E+00  1.50000000E+00
  8.00000000E-01  8.00000000E-01  1.50000000E+00  1.50000000E+00  8.00000000E-01
  8.00000000E-01  1.50000000E+00  1.50000000E+00  8.00000000E-01  8.00000000E-01
  1.50000000E+00  1.50000000E+00  8.00000000E-01  8.00000000E-01  1.50000000E+00
  1.50000000E+00  8.00000000E-01  8.00000000E-01  1.50000000E+00  1.50000000E+00
  8.00000000E-01  8.00000000E-01  1.50000000E+00  1.50000000E+00  8.00000000E-01
  8.00000000E-01  1.50000000E+00  1.50000000E+00  8.00000000E-01  8.00000000E-01
  1.50000000E+00  1.50000000E+00  8.00000000E-01  8.00000000E-01  1.50000000E+00
  1.50000000E+00  8.00000000E-01  8.00000000E-01  1.50000000E+00  1.50000000E+00
  8.00000000E-01  8.00000000E-01  1.50000000E+00  1.50000000E+00  8.00000000E-01
  8.00000000E-01  1.50000000E+00  1.50000000E+00  8.00000000E-01  8.00000000E-01
  1.50000000E+00  1.50000000E+00  8.00000000E-01  8.00000000E-01  1.50000000E+00
  1.50000000E+00  8.00000000E-01  8.00000000E-01  1.50000000E+00  1.50000000E+00
  8.00000000E-01  8.00000000E-01  1.50000000E+00  1.50000000E+00  8.00000000E-01
  8.00000000E-01  1.50000000E+00  1.50000000E+00  8.00000000E-01  8.00000000E-01
  1.50000000E+00  1.50000000E+00  8.00000000E-01  8.00000000E-01  1.50000000E+00
  1.50000000E+00  8.00000000E-01  8.00000000E-01  1.50000000E+00  1.50000000E+00
  8.00000000E-01  8.00000000E-01  1.50000000E+00  1.50000000E+00  8.00000000E-01
  8.00000000E-01  1.50000000E+00  1.50000000E+00  8.00000000E-01  8.00000000E-01
  1.50000000E+00  1.50000000E+00  8.00000000E-01  8.00000000E-01  1.50000000E+00
  1.50000000E+00  8.00000000E-01  8.00000000E-01  1.50000000E+00  1.50000000E+00
  8.00000000E-01  8.00000000E-01  1.50000000E+00  1.50000000E+00  8.00000000E-01
  8.00000000E-01  1.50000000E+00  1.50000000E+00  8.00000000E-01  8.00000000E-01
  1.50000000E+00  1.50000000E+00  8.00000000E-01  8.00000000E-01  1.50000000E+00
  1.50000000E+00  8.00000000E-01  8.00000000E-01  1.50000000E+00  1.50000000E+00
  8.00000000E-01  8.00000000E-01  1.50000000E+00  1.50000000E+00  8.00000000E-01
  8.00000000E-01  1.50000000E+00  1.50000000E+00  8.00000000E-01  8.00000000E-01
  1.50000000E+00  1.50000000E+00  8.00000000E-01  8.00000000E-01  1.50000000E+00
  1.50000000E+00  8.00000000E-01  8.00000000E-01  1.50000000E+00  1.50000000E+00
  8.00000000E-01  8.00000000E-01  1.50000000E+00  1.50000000E+00  8.00000000E-01
  8.00000000E-01  1.50000000E+00  1.50000000E+00  8.00000000E-01  8.00000000E-01
  1.50000000E+00  1.50000000E+00  8.00000000E-01  8.00000000E-01  1.50000000E+00
  1.50000000E+00  8.00000000E-01  8.00000000E-01  1.50000000E+00  1.50000000E+00
  8.00000000E-01  8.00000000E-01  1.50000000E+00  1.50000000E+00  8.00000000E-01
  8.00000000E-01  1.50000000E+00  1.50000000E+00  8.00000000E-01  8.00000000E-01
  1.50000000E+00  1.50000000E+00  8.00000000E-01  8.00000000E-01  1.50000000E+00
  1.50000000E+00  8.00000000E-01  8.00000000E-01  1.50000000E+00  1.50000000E+00
  8.00000000E-01  8.00000000E-01  1.50000000E+00  1.50000000E+00  8.00000000E-01
  8.00000000E-01  1.50000000E+00  1.50000000E+00  8.00000000E-01  8.00000000E-01
  1.50000000E+00  1.50000000E+00  8.00000000E-01  8.00000000E-01  1.50000000E+00
  1.50000000E+00  8.00000000E-01  8.00000000E-01  1.50000000E+00  1.50000000E+00
  8.00000000E-01  8.00000000E-01  1.50000000E+00  1.50000000E+00  8.00000000E-01
  8.00000000E-01  1.50000000E+00  1.50000000E+00  8.00000000E-01  8.00000000E-01
  1.50000000E+00  1.50000000E+00  8.00000000E-01  8.00000000E-01  1.50000000E+00
  1.50000000E+00  8.00000000E-01  8.00000000E-01  1.50000000E+00  1.50000000E+00
  8.00000000E-01  8.00000000E-01  1.50000000E+00  1.50000000E+00  8.00000000E-01
  8.00000000E-01  1.50000000E+00  1.50000000E+00  8.00000000E-01  8.00000000E-01
  1.50000000E+00  1.50000000E+00  8.00000000E-01  8.00000000E-01  1.50000000E+00
  1.50000000E+00  8.00000000E-01  8.00000000E-01  1.50000000E+00  1.50000000E+00
  8.00000000E-01  8.00000000E-01  1.50000000E+00  1.50000000E+00  8.00000000E-01
  8.00000000E-01  1.50000000E+00  1.50000000E+00  8.00000000E-01  8.00000000E-01
  1.50000000E+00  1.50000000E+00  8.00000000E-01  8.00000000E-01  1.50000000E+00
  1.50000000E+00  8.00000000E-01  8.00000000E-01  1.50000000E+00  1.50000000E+00
  8.00000000E-01  8.00000000E-01  1.50000000E+00  1.50000000E+00  8.00000000E-01
  8.00000000E-01  1.50000000E+00  1.50000000E+00  8.00000000E-01  8.00000000E-01
  1.50000000E+00  1.50000000E+00  8.00000000E-01  8.00000000E-01  1.50000000E+00
  1.50000000E+00  8.00000000E-01  8.00000000E-01  1.50000000E+00  1.50000000E+00
  8.00000000E-01  8.00000000E-01  1.50000000E+00  1.50000000E+00  8.00000000E-01
  8.00000000E-01  1.50000000E+00  1.50000000E+00  8.00000000E-01  8.00000000E-01
  1.50000000E+00  1.50000000E+00  8.00000000E-01  8.00000000E-01  1.50000000E+00
  1.50000000E+00  8.00000000E-01  8.00000000E-01  1.50000000E+00  1.50000000E+00
  8.00000000E-01  8.00000000E-01  1.50000000E+00  1.50000000E+00  8.00000000E-01
  8.00000000E-01  1.50000000E+00  1.50000000E+00  8.00000000E-01  8.00000000E-01
  1.50000000E+00  1.50000000E+00  8.00000000E-01  8.00000000E-01  1.50000000E+00
  1.50000000E+00  8.00000000E-01  8.00000000E-01  1.50000000E+00  1.50000000E+00
  8.00000000E-01  8.00000000E-01  1.50000000E+00  1.50000000E+00  8.00000000E-01
  8.00000000E-01  1.50000000E+00  1.50000000E+00  8.00000000E-01  8.00000000E-01
  1.50000000E+00  1.50000000E+00  8.00000000E-01  8.00000000E-01  1.50000000E+00
  1.50000000E+00  8.00000000E-01  8.00000000E-01  1.50000000E+00  1.50000000E+00
  8.00000000E-01  8.00000000E-01  1.50000000E+00  1.50000000E+00  8.00000000E-01
  8.00000000E-01  1.50000000E+00  1.50000000E+00  8.00000000E-01  8.00000000E-01
  1.50000000E+00  1.50000000E+00  8.00000000E-01  8.00000000E-01  1.50000000E+00
  1.50000000E+00  8.00000000E-01  8.00000000E-01  1.50000000E+00  1.50000000E+00
  8.00000000E-01  8.00000000E-01  1.50000000E+00  1.50000000E+00  8.00000000E-01
  8.00000000E-01  1.50000000E+00  1.50000000E+00  8.00000000E-01  8.00000000E-01
  1.50000000E+00  1.50000000E+00  8.00000000E-01  8.00000000E-01  1.50000000E+00
  1.50000000E+00  8.00000000E-01  8.00000000E-01  1.50000000E+00  1.50000000E+00
  8.00000000E-01  8.00000000E-01  1.50000000E+00  1.50000000E+00  8.00000000E-01
  8.00000000E-01  1.50000000E+00  1.50000000E+00  8.00000000E-01  8.00000000E-01
  1.50000000E+00  1.50000000E+00  8.00000000E-01  8.00000000E-01  1.50000000E+00
  1.50000000E+00  8.00000000E-01  8.00000000E-01  1.50000000E+00  1.50000000E+00
  8.00000000E-01  8.00000000E-01  1.50000000E+00  1.50000000E+00  8.00000000E-01
  8.00000000E-01  1.50000000E+00  1.50000000E+00  8.00000000E-01  8.00000000E-01
  1.50000000E+00  1.50000000E+00  8.00000000E-01  8.00000000E-01  1.50000000E+00
  1.50000000E+00  8.00000000E-01  8.00000000E-01  1.50000000E+00  1.50000000E+00
  8.00000000E-01  8.00000000E-01  1.50000000E+00  1.50000000E+00  8.00000000E-01
  8.00000000E-01  1.50000000E+00  1.50000000E+00  8.00000000E-01  8.00000000E-01
  1.50000000E+00  1.50000000E+00  8.00000000E-01  8.00000000E-01  1.50000000E+00
  1.50000000E+00  8.00000000E-01  8.00000000E-01  1.50000000E+00  1.50000000E+00
  8.00000000E-01  8.00000000E-01  1.50000000E+00  1.50000000E+00  8.00000000E-01
  8.00000000E-01  1.50000000E+00  1.50000000E+00  8.00000000E-01  8.00000000E-01
  1.50000000E+00  1.50000000E+00  8.00000000E-01  8.00000000E-01  1.50000000E+00
  1.50000000E+00  8.00000000E-01  8.00000000E-01  1.50000000E+00  1.50000000E+00
  8.00000000E-01  8.00000000E-01  1.50000000E+00  1.50000000E+00  8.00000000E-01
  8.00000000E-01  1.50000000E+00  1.50000000E+00  8.00000000E-01  8.00000000E-01
  1.50000000E+00  1.50000000E+00  8.00000000E-01  8.00000000E-01  1.50000000E+00
  1.50000000E+00  8.00000000E-01  8.00000000E-01  1.50000000E+00  1.50000000E+00
  8.00000000E-01  8.00000000E-01  1.50000000E+00  1.50000000E+00  8.00000000E-01
  8.00000000E-01  1.50000000E+00  1.50000000E+00  8.00000000E-01  8.00000000E-01
  1.50000000E+00  1.50000000E+00  8.00000000E-01  8.00000000E-01  1.50000000E+00
  1.50000000E+00  8.00000000E-01  8.00000000E-01  1.50000000E+00  1.50000000E+00
  8.00000000E-01  8.00000000E-01  1.50000000E+00  1.50000000E+00  8.00000000E-01
  8.00000000E-01  1.50000000E+00  1.50000000E+00  8.00000000E-01  8.00000000E-01
  1.50000000E+00  1.50000000E+00  8.00000000E-01  8.00000000E-01  1.50000000E+00
  1.50000000E+00  8.00000000E-01  8.00000000E-01  1.50000000E+00  1.50000000E+00
  8.00000000E-01  8.00000000E-01  1.50000000E+00  1.50000000E+00  8.00000000E-01
  8.00000000E-01  1.50000000E+00  1.50000000E+00  8.00000000E-01  8.00000000E-01
  1.50000000E+00  1.50000000E+00  8.00000000E-01  8.00000000E-01  1.50000000E+00
  1.50000000E+00  8.00000000E-01  8.00000000E-01  1.50000000E+00  1.50000000E+00
  8.00000000E-01  8.00000000E-01  1.50000000E+00  1.50000000E+00  8.00000000E-01
  8.00000000E-01  1.50000000E+00  1.50000000E+00  8.00000000E-01  8.00000000E-01
  1.50000000E+00  1.50000000E+00  8.00000000E-01  8.00000000E-01  1.50000000E+00
  1.50000000E+00  8.00000000E-01  8.00000000E-01  1.50000000E+00  1.50000000E+00
  8.00000000E-01  8.00000000E-01  1.50000000E+00  1.50000000E+00  8.00000000E-01
  8.00000000E-01  1.50000000E+00  1.50000000E+00  8.00000000E-01  8.00000000E-01
  1.50000000E+00  1.50000000E+00  8.00000000E-01  8.00000000E-01  1.50000000E+00
  1.50000000E+00  8.00000000E-01  8.00000000E-01  1.50000000E+00  1.50000000E+00
  8.00000000E-01  8.00000000E-01  1.50000000E+00  1.50000000E+00  8.00000000E-01
  8.00000000E-01  1.50000000E+00  1.50000000E+00  8.00000000E-01  8.00000000E-01
  1.50000000E+00  1.50000000E+00  8.00000000E-01  8.00000000E-01  1.50000000E+00
  1.50000000E+00  8.00000000E-01  8.00000000E-01  1.50000000E+00  1.50000000E+00
  8.00000000E-01  8.00000000E-01  1.50000000E+00  1.50000000E+00  8.00000000E-01
  8.00000000E-01  1.50000000E+00  1.50000000E+00  8.00000000E-01  8.00000000E-01
  1.50000000E+00  1.50000000E+00  8.00000000E-01  8.00000000E-01  1.50000000E+00
  1.50000000E+00  8.00000000E-01  8.00000000E-01  1.50000000E+00  1.50000000E+00
  8.00000000E-01  8.00000000E-01  1.50000000E+00  1.50000000E+00  8.00000000E-01
  8.00000000E-01  1.50000000E+00  1.50000000E+00  8.00000000E-01  8.00000000E-01
  1.50000000E+00  1.50000000E+00  8.00000000E-01  8.00000000E-01  1.50000000E+00
  1.50000000E+00  8.00000000E-01  8.00000000E-01  1.50000000E+00  1.50000000E+00
  8.00000000E-01  8.00000000E-01  1.50000000E+00  1.50000000E+00  8.00000000E-01
  8.00000000E-01  1.50000000E+00  1.50000000E+00  8.00000000E-01  8.00000000E-01
  1.50000000E+00  1.50000000E+00  8.00000000E-01  8.00000000E-01  1.50000000E+00
  1.50000000E+00  8.00000000E-01  8.00000000E-01  1.50000000E+00  1.50000000E+00
  8.00000000E-01  8.00000000E-01  1.50000000E+00  1.50000000E+00  8.00000000E-01
  8.00000000E-01  1.50000000E+00  1.50000000E+00  8.00000000E-01  8.00000000E-01
  1.50000000E+00  1.50000000E+00  8.00000000E-01  8.00000000E-01  1.50000000E+00
  1.50000000E+00  8.00000000E-01  8.00000000E-01  1.50000000E+00  1.50000000E+00
  8.00000000E-01  8.00000000E-01  1.50000000E+00  1.50000000E+00  8.00000000E-01
  8.00000000E-01  1.50000000E+00  1.50000000E+00  8.00000000E-01  8.00000000E-01
  1.50000000E+00  1.50000000E+00  8.00000000E-01  8.00000000E-01  1.50000000E+00
  1.50000000E+00  8.00000000E-01  8.00000000E-01  1.50000000E+00  1.50000000E+00
  8.00000000E-01  8.00000000E-01  1.50000000E+00  1.50000000E+00  8.00000000E-01
  8.00000000E-01  1.50000000E+00  1.50000000E+00  8.00000000E-01  8.00000000E-01
  1.50000000E+00  1.50000000E+00  8.00000000E-01  8.00000000E-01  1.50000000E+00
  1.50000000E+00  8.00000000E-01  8.00000000E-01  1.50000000E+00  1.50000000E+00
  8.00000000E-01  8.00000000E-01  1.50000000E+00  1.50000000E+00  8.00000000E-01
  8.00000000E-01  1.50000000E+00  1.50000000E+00  8.00000000E-01  8.00000000E-01
  1.50000000E+00  1.50000000E+00  8.00000000E-01  8.00000000E-01  1.50000000E+00
  1.50000000E+00  8.00000000E-01  8.00000000E-01  1.50000000E+00  1.50000000E+00
  8.00000000E-01  8.00000000E-01  1.50000000E+00  1.50000000E+00  8.00000000E-01
  8.00000000E-01  1.50000000E+00  1.50000000E+00  8.00000000E-01  8.00000000E-01
  1.50000000E+00  1.50000000E+00  8.00000000E-01  8.00000000E-01  1.50000000E+00
  1.50000000E+00  8.00000000E-01  8.00000000E-01  1.50000000E+00  1.50000000E+00
  8.00000000E-01  8.00000000E-01  1.50000000E+00  1.50000000E+00  8.00000000E-01
  8.00000000E-01  1.50000000E+00  1.50000000E+00  8.00000000E-01  8.00000000E-01
  1.50000000E+00  1.50000000E+00  8.00000000E-01  8.00000000E-01  1.50000000E+00
  1.50000000E+00  8.00000000E-01  8.00000000E-01  1.50000000E+00  1.50000000E+00
  8.00000000E-01  8.00000000E-01  1.50000000E+00  1.50000000E+00  8.00000000E-01
  8.00000000E-01  1.50000000E+00  1.50000000E+00  8.00000000E-01  8.00000000E-01
  1.50000000E+00  1.50000000E+00  8.00000000E-01  8.00000000E-01  1.50000000E+00
  1.50000000E+00  8.00000000E-01  8.00000000E-01  1.50000000E+00  1.50000000E+00
  8.00000000E-01  8.00000000E-01  1.50000000E+00  1.50000000E+00  8.00000000E-01
  8.00000000E-01  1.50000000E+00  1.50000000E+00  8.00000000E-01  8.00000000E-01
  1.50000000E+00  1.50000000E+00  8.00000000E-01  8.00000000E-01  1.50000000E+00
  1.50000000E+00  8.00000000E-01  8.00000000E-01  1.50000000E+00  1.50000000E+00
  8.00000000E-01  8.00000000E-01  1.50000000E+00  1.50000000E+00  8.00000000E-01
  8.00000000E-01  1.50000000E+00  1.50000000E+00  8.00000000E-01  8.00000000E-01
  1.50000000E+00  1.50000000E+00  8.00000000E-01  8.00000000E-01  1.50000000E+00
  1.50000000E+00  8.00000000E-01  8.00000000E-01  1.50000000E+00  1.50000000E+00
  8.00000000E-01  8.00000000E-01  1.50000000E+00  1.50000000E+00  8.00000000E-01
  8.00000000E-01  1.50000000E+00  1.50000000E+00  8.00000000E-01  8.00000000E-01
  1.50000000E+00  1.50000000E+00  8.00000000E-01  8.00000000E-01  1.50000000E+00
  1.50000000E+00  8.00000000E-01  8.00000000E-01  1.50000000E+00  1.50000000E+00
  8.00000000E-01  8.00000000E-01  1.50000000E+00  1.50000000E+00  8.00000000E-01
  8.00000000E-01  1.50000000E+00  1.50000000E+00  8.00000000E-01  8.00000000E-01
  1.50000000E+00  1.50000000E+00  8.00000000E-01  8.00000000E-01  1.50000000E+00
  1.50000000E+00  8.00000000E-01  8.00000000E-01  1.50000000E+00  1.50000000E+00
  8.00000000E-01  8.00000000E-01  1.50000000E+00  1.50000000E+00  8.00000000E-01
  8.00000000E-01  1.50000000E+00  1.50000000E+00  8.00000000E-01  8.00000000E-01
  1.50000000E+00  1.50000000E+00  8.00000000E-01  8.00000000E-01  1.50000000E+00
  1.50000000E+00  8.00000000E-01  8.00000000E-01  1.50000000E+00  1.50000000E+00
  8.00000000E-01  8.00000000E-01  1.50000000E+00  1.50000000E+00  8.00000000E-01
  8.00000000E-01  1.50000000E+00  1.50000000E+00  8.00000000E-01  8.00000000E-01
  1.50000000E+00  1.50000000E+00  8.00000000E-01  8.00000000E-01  1.50000000E+00
  1.50000000E+00  8.00000000E-01  8.00000000E-01  1.50000000E+00  1.50000000E+00
  8.00000000E-01  8.00000000E-01  1.50000000E+00  1.50000000E+00  8.00000000E-01
  8.00000000E-01  1.50000000E+00  1.50000000E+00  8.00000000E-01  8.00000000E-01
  1.50000000E+00  1.50000000E+00  8.00000000E-01  8.00000000E-01  1.50000000E+00
  1.50000000E+00  8.00000000E-01  8.00000000E-01  1.50000000E+00  1.50000000E+00
  8.00000000E-01  8.00000000E-01  1.50000000E+00  1.50000000E+00  8.00000000E-01
  8.00000000E-01  1.50000000E+00  1.50000000E+00  8.00000000E-01  8.00000000E-01
  1.50000000E+00  1.50000000E+00  8.00000000E-01  8.00000000E-01  1.50000000E+00
  1.50000000E+00  8.00000000E-01  8.00000000E-01  1.50000000E+00  1.50000000E+00
  8.00000000E-01  8.00000000E-01  1.50000000E+00  1.50000000E+00  8.00000000E-01
  8.00000000E-01  1.50000000E+00  1.50000000E+00  8.00000000E-01  8.00000000E-01
  1.50000000E+00  1.50000000E+00  8.00000000E-01  8.00000000E-01  1.50000000E+00
  1.50000000E+00  8.00000000E-01  8.00000000E-01  1.50000000E+00  1.50000000E+00
  8.00000000E-01  8.00000000E-01  1.50000000E+00  1.50000000E+00  8.00000000E-01
  8.00000000E-01  1.50000000E+00  1.50000000E+00  8.00000000E-01  8.00000000E-01
  1.50000000E+00  1.50000000E+00  8.00000000E-01  8.00000000E-01  1.50000000E+00
  1.50000000E+00  8.00000000E-01  8.00000000E-01  1.50000000E+00  1.50000000E+00
  8.00000000E-01  8.00000000E-01  1.50000000E+00  1.50000000E+00  8.00000000E-01
  8.00000000E-01  1.50000000E+00  1.50000000E+00  8.00000000E-01  8.00000000E-01
  1.50000000E+00  1.50000000E+00  8.00000000E-01  8.00000000E-01  1.50000000E+00
  1.50000000E+00  8.00000000E-01  8.00000000E-01  1.50000000E+00  1.50000000E+00
  8.00000000E-01  8.00000000E-01  1.50000000E+00  1.50000000E+00  8.00000000E-01
  8.00000000E-01  1.50000000E+00  1.50000000E+00  8.00000000E-01  8.00000000E-01
  1.50000000E+00  1.50000000E+00  8.00000000E-01  8.00000000E-01  1.50000000E+00
  1.50000000E+00  8.00000000E-01  8.00000000E-01  1.50000000E+00  1.50000000E+00
  8.00000000E-01  8.00000000E-01  1.50000000E+00  1.50000000E+00  8.00000000E-01
  8.00000000E-01  1.50000000E+00  1.50000000E+00  8.00000000E-01  8.00000000E-01
  1.50000000E+00  1.50000000E+00  8.00000000E-01  8.00000000E-01  1.50000000E+00
  1.50000000E+00  8.00000000E-01  8.00000000E-01  1.50000000E+00  1.50000000E+00
  8.00000000E-01  8.00000000E-01  1.50000000E+00  1.50000000E+00  8.00000000E-01
  8.00000000E-01  1.50000000E+00  1.50000000E+00  8.00000000E-01  8.00000000E-01
  1.50000000E+00  1.50000000E+00  8.00000000E-01  8.00000000E-01  1.50000000E+00
  1.50000000E+00  8.00000000E-01  8.00000000E-01  1.50000000E+00  1.50000000E+00
  8.00000000E-01  8.00000000E-01  1.50000000E+00  1.50000000E+00  8.00000000E-01
  8.00000000E-01  1.50000000E+00  1.50000000E+00  8.00000000E-01  8.00000000E-01
  1.50000000E+00  1.50000000E+00  8.00000000E-01  8.00000000E-01  1.50000000E+00
  1.50000000E+00  8.00000000E-01  8.00000000E-01  1.50000000E+00  1.50000000E+00
  8.00000000E-01  8.00000000E-01  1.50000000E+00  1.50000000E+00  8.00000000E-01
  8.00000000E-01  1.50000000E+00  1.50000000E+00  8.00000000E-01  8.00000000E-01
  1.50000000E+00  1.50000000E+00  8.00000000E-01  8.00000000E-01  1.50000000E+00
  1.50000000E+00  8.00000000E-01  8.00000000E-01  1.50000000E+00  1.50000000E+00
  8.00000000E-01  8.00000000E-01  1.50000000E+00  1.50000000E+00  8.00000000E-01
  8.00000000E-01  1.50000000E+00  1.50000000E+00  8.00000000E-01  8.00000000E-01
  1.50000000E+00  1.50000000E+00  8.00000000E-01  8.00000000E-01  1.50000000E+00
  1.50000000E+00  8.00000000E-01  8.00000000E-01  1.50000000E+00  1.50000000E+00
  8.00000000E-01  8.00000000E-01  1.50000000E+00  1.50000000E+00  8.00000000E-01
  8.00000000E-01  1.50000000E+00  1.50000000E+00  8.00000000E-01  8.00000000E-01
  1.50000000E+00  1.50000000E+00  8.00000000E-01  8.00000000E-01  1.50000000E+00
  1.50000000E+00  8.00000000E-01  8.00000000E-01  1.50000000E+00  1.50000000E+00
  8.00000000E-01  8.00000000E-01  1.50000000E+00  1.50000000E+00  8.00000000E-01
  8.00000000E-01  1.50000000E+00  1.50000000E+00  8.00000000E-01  8.00000000E-01
  1.50000000E+00  1.50000000E+00  8.00000000E-01  8.00000000E-01  1.50000000E+00
  1.50000000E+00  8.00000000E-01  8.00000000E-01  1.50000000E+00  1.50000000E+00
  8.00000000E-01  8.00000000E-01  1.50000000E+00  1.50000000E+00  8.00000000E-01
  8.00000000E-01  1.50000000E+00  1.50000000E+00  8.00000000E-01  8.00000000E-01
  1.50000000E+00  1.50000000E+00  8.00000000E-01  8.00000000E-01  1.50000000E+00
  1.50000000E+00  8.00000000E-01  8.00000000E-01  1.50000000E+00  1.50000000E+00
  8.00000000E-01  8.00000000E-01  1.50000000E+00  1.50000000E+00  8.00000000E-01
  8.00000000E-01  1.50000000E+00  1.50000000E+00  8.00000000E-01  8.00000000E-01
  1.50000000E+00  1.50000000E+00  8.00000000E-01  8.00000000E-01  1.50000000E+00
  1.50000000E+00  8.00000000E-01  8.00000000E-01  1.50000000E+00  1.50000000E+00
  8.00000000E-01  8.00000000E-01  1.50000000E+00  1.50000000E+00  8.00000000E-01
  8.00000000E-01  1.50000000E+00  1.50000000E+00  8.00000000E-01  8.00000000E-01
  1.50000000E+00  1.50000000E+00  8.00000000E-01  8.00000000E-01  1.50000000E+00
  1.50000000E+00  8.00000000E-01  8.00000000E-01  1.50000000E+00  1.50000000E+00
  8.00000000E-01  8.00000000E-01  1.50000000E+00  1.50000000E+00  8.00000000E-01
  8.00000000E-01  1.50000000E+00  1.50000000E+00  8.00000000E-01  8.00000000E-01
  1.50000000E+00  1.50000000E+00  8.00000000E-01  8.00000000E-01  1.50000000E+00
  1.50000000E+00  8.00000000E-01  8.00000000E-01  1.50000000E+00  1.50000000E+00
  8.00000000E-01  8.00000000E-01  1.50000000E+00  1.50000000E+00  8.00000000E-01
  8.00000000E-01  1.50000000E+00  1.50000000E+00  8.00000000E-01  8.00000000E-01
  1.50000000E+00  1.50000000E+00  8.00000000E-01  8.00000000E-01  1.50000000E+00
  1.50000000E+00  8.00000000E-01  8.00000000E-01  1.50000000E+00  1.50000000E+00
  8.00000000E-01  8.00000000E-01  1.50000000E+00  1.50000000E+00  8.00000000E-01
  8.00000000E-01  1.50000000E+00  1.50000000E+00  8.00000000E-01  8.00000000E-01
  1.50000000E+00  1.50000000E+00  8.00000000E-01  8.00000000E-01  1.50000000E+00
  1.50000000E+00  8.00000000E-01  8.00000000E-01  1.50000000E+00  1.50000000E+00
  8.00000000E-01  8.00000000E-01  1.50000000E+00  1.50000000E+00  8.00000000E-01
  8.00000000E-01  1.50000000E+00  1.50000000E+00  8.00000000E-01  8.00000000E-01
  1.50000000E+00  1.50000000E+00  8.00000000E-01  8.00000000E-01  1.50000000E+00
  1.50000000E+00  8.00000000E-01  8.00000000E-01  1.50000000E+00  1.50000000E+00
  8.00000000E-01  8.00000000E-01  1.50000000E+00  1.50000000E+00  8.00000000E-01
  8.00000000E-01  1.50000000E+00  1.50000000E+00  8.00000000E-01  8.00000000E-01
  1.50000000E+00  1.50000000E+00  8.00000000E-01  8.00000000E-01  1.50000000E+00
  1.50000000E+00  8.00000000E-01  8.00000000E-01  1.50000000E+00  1.50000000E+00
  8.00000000E-01  8.00000000E-01  1.50000000E+00  1.50000000E+00  8.00000000E-01
  8.00000000E-01  1.50000000E+00  1.50000000E+00  8.00000000E-01  8.00000000E-01
  1.50000000E+00  1.50000000E+00  8.00000000E-01  8.00000000E-01  1.50000000E+00
  1.50000000E+00  8.00000000E-01  8.00000000E-01  1.50000000E+00  1.50000000E+00
  8.00000000E-01  8.00000000E-01  1.50000000E+00  1.50000000E+00  8.00000000E-01
  8.00000000E-01  1.50000000E+00  1.50000000E+00  8.00000000E-01  8.00000000E-01
  1.50000000E+00  1.50000000E+00  8.00000000E-01  8.00000000E-01  1.50000000E+00
  1.50000000E+00  8.00000000E-01  8.00000000E-01  1.50000000E+00  1.50000000E+00
  8.00000000E-01  8.00000000E-01  1.50000000E+00  1.50000000E+00  8.00000000E-01
  8.00000000E-01  1.50000000E+00  1.50000000E+00  8.00000000E-01  8.00000000E-01
  1.50000000E+00  1.50000000E+00  8.00000000E-01  8.00000000E-01  1.50000000E+00
  1.50000000E+00  8.00000000E-01  8.00000000E-01  1.50000000E+00  1.50000000E+00
  8.00000000E-01  8.00000000E-01  1.50000000E+00  1.50000000E+00  8.00000000E-01
  8.00000000E-01  1.50000000E+00  1.50000000E+00  8.00000000E-01  8.00000000E-01
  1.50000000E+00  1.50000000E+00  8.00000000E-01  8.00000000E-01  1.50000000E+00
  1.50000000E+00  8.00000000E-01  8.00000000E-01  1.50000000E+00  1.50000000E+00
  8.00000000E-01  8.00000000E-01  1.50000000E+00  1.50000000E+00  8.00000000E-01
  8.00000000E-01  1.50000000E+00  1.50000000E+00  8.00000000E-01  8.00000000E-01
  1.50000000E+00  1.50000000E+00  8.00000000E-01  8.00000000E-01  1.50000000E+00
  1.50000000E+00  8.00000000E-01  8.00000000E-01  1.50000000E+00  1.50000000E+00
  8.00000000E-01  8.00000000E-01  1.50000000E+00  1.50000000E+00  8.00000000E-01
  8.00000000E-01  1.50000000E+00  1.50000000E+00  8.00000000E-01  8.00000000E-01
  1.50000000E+00  1.50000000E+00  8.00000000E-01  8.00000000E-01  1.50000000E+00
  1.50000000E+00  8.00000000E-01  8.00000000E-01  1.50000000E+00  1.50000000E+00
  8.00000000E-01  8.00000000E-01  1.50000000E+00  1.50000000E+00  8.00000000E-01
  8.00000000E-01  1.50000000E+00  1.50000000E+00  8.00000000E-01  8.00000000E-01
  1.50000000E+00  1.50000000E+00  8.00000000E-01  8.00000000E-01  1.50000000E+00
  1.50000000E+00  8.00000000E-01  8.00000000E-01  1.50000000E+00  1.50000000E+00
  8.00000000E-01  8.00000000E-01  1.50000000E+00  1.50000000E+00  8.00000000E-01
  8.00000000E-01  1.50000000E+00  1.50000000E+00  8.00000000E-01  8.00000000E-01
  1.50000000E+00  1.50000000E+00  8.00000000E-01  8.00000000E-01  1.50000000E+00
  1.50000000E+00  8.00000000E-01  8.00000000E-01  1.50000000E+00  1.50000000E+00
  8.00000000E-01  8.00000000E-01  1.50000000E+00  1.50000000E+00  8.00000000E-01
  8.00000000E-01  1.50000000E+00  1.50000000E+00  8.00000000E-01  8.00000000E-01
  1.50000000E+00  1.50000000E+00  8.00000000E-01  8.00000000E-01  1.50000000E+00
  1.50000000E+00  8.00000000E-01  8.00000000E-01  1.50000000E+00  1.50000000E+00
  8.00000000E-01  8.00000000E-01  1.50000000E+00  1.50000000E+00  8.00000000E-01
  8.00000000E-01  1.50000000E+00  1.50000000E+00  8.00000000E-01  8.00000000E-01
  1.50000000E+00  1.50000000E+00  8.00000000E-01  8.00000000E-01  1.50000000E+00
  1.50000000E+00  8.00000000E-01  8.00000000E-01  1.50000000E+00  1.50000000E+00
  8.00000000E-01  8.00000000E-01  1.50000000E+00  1.50000000E+00  8.00000000E-01
  8.00000000E-01  1.50000000E+00  1.50000000E+00  8.00000000E-01  8.00000000E-01
  1.50000000E+00  1.50000000E+00  8.00000000E-01  8.00000000E-01  1.50000000E+00
  1.50000000E+00  8.00000000E-01  8.00000000E-01  1.50000000E+00  1.50000000E+00
  8.00000000E-01  8.00000000E-01  1.50000000E+00  1.50000000E+00  8.00000000E-01
  8.00000000E-01  1.50000000E+00  1.50000000E+00  8.00000000E-01  8.00000000E-01
  1.50000000E+00  1.50000000E+00  8.00000000E-01  8.00000000E-01  1.50000000E+00
  1.50000000E+00  8.00000000E-01  8.00000000E-01  1.50000000E+00  1.50000000E+00
  8.00000000E-01  8.00000000E-01  1.50000000E+00  1.50000000E+00  8.00000000E-01
  8.00000000E-01  1.50000000E+00  1.50000000E+00  8.00000000E-01  8.00000000E-01
  1.50000000E+00  1.50000000E+00  8.00000000E-01  8.00000000E-01  1.50000000E+00
  1.50000000E+00  8.00000000E-01  8.00000000E-01  1.50000000E+00  1.50000000E+00
  8.00000000E-01  8.00000000E-01  1.50000000E+00  1.50000000E+00  8.00000000E-01
  8.00000000E-01  1.50000000E+00  1.50000000E+00  8.00000000E-01  8.00000000E-01
  1.50000000E+00  1.50000000E+00  8.00000000E-01  8.00000000E-01  1.50000000E+00
  1.50000000E+00  8.00000000E-01  8.00000000E-01  1.50000000E+00  1.50000000E+00
  8.00000000E-01  8.00000000E-01  1.50000000E+00  1.50000000E+00  8.00000000E-01
  8.00000000E-01  1.50000000E+00  1.50000000E+00  8.00000000E-01  8.00000000E-01
  1.50000000E+00  1.50000000E+00  8.00000000E-01  8.00000000E-01  1.50000000E+00
  1.50000000E+00  8.00000000E-01  8.00000000E-01  1.50000000E+00  1.50000000E+00
  8.00000000E-01  8.00000000E-01  1.50000000E+00  1.50000000E+00  8.00000000E-01
  8.00000000E-01  1.50000000E+00  1.50000000E+00  8.00000000E-01  8.00000000E-01
  1.50000000E+00  1.50000000E+00  8.00000000E-01  8.00000000E-01  1.50000000E+00
  1.50000000E+00  8.00000000E-01  8.00000000E-01  1.50000000E+00  1.50000000E+00
  8.00000000E-01  8.00000000E-01  1.50000000E+00  1.50000000E+00  8.00000000E-01
  8.00000000E-01  1.50000000E+00  1.50000000E+00  8.00000000E-01  8.00000000E-01
  1.50000000E+00  1.50000000E+00  8.00000000E-01  8.00000000E-01  1.50000000E+00
  1.50000000E+00  8.00000000E-01  8.00000000E-01  1.50000000E+00  1.50000000E+00
  8.00000000E-01  8.00000000E-01  1.50000000E+00  1.50000000E+00  8.00000000E-01
  8.00000000E-01  1.50000000E+00  1.50000000E+00  8.00000000E-01  8.00000000E-01
  1.50000000E+00  1.50000000E+00  8.00000000E-01  8.00000000E-01  1.50000000E+00
  1.50000000E+00  8.00000000E-01  8.00000000E-01  1.50000000E+00  1.50000000E+00
  8.00000000E-01  8.00000000E-01  1.50000000E+00  1.50000000E+00  8.00000000E-01
  8.00000000E-01  1.50000000E+00  1.50000000E+00  8.00000000E-01  8.00000000E-01
  1.50000000E+00  1.50000000E+00  8.00000000E-01  8.00000000E-01  1.50000000E+00
  1.50000000E+00  8.00000000E-01  8.00000000E-01  1.50000000E+00  1.50000000E+00
  8.00000000E-01  8.00000000E-01  1.50000000E+00  1.50000000E+00  8.00000000E-01
  8.00000000E-01  1.50000000E+00  1.50000000E+00  8.00000000E-01  8.00000000E-01
  1.50000000E+00  1.50000000E+00  8.00000000E-01  8.00000000E-01  1.50000000E+00
  1.50000000E+00  8.00000000E-01  8.00000000E-01  1.50000000E+00  1.50000000E+00
  8.00000000E-01  8.00000000E-01  1.50000000E+00  1.50000000E+00  8.00000000E-01
  8.00000000E-01  1.50000000E+00  1.50000000E+00  8.00000000E-01  8.00000000E-01
  1.50000000E+00  1.50000000E+00  8.00000000E-01  8.00000000E-01  1.50000000E+00
  1.50000000E+00  8.00000000E-01  8.00000000E-01  1.50000000E+00  1.50000000E+00
  8.00000000E-01  8.00000000E-01  1.50000000E+00  1.50000000E+00  8.00000000E-01
  8.00000000E-01  1.50000000E+00  1.50000000E+00  8.00000000E-01  8.00000000E-01
  1.50000000E+00  1.50000000E+00  8.00000000E-01  8.00000000E-01  1.50000000E+00
  1.50000000E+00  8.00000000E-01  8.00000000E-01  1.50000000E+00  1.50000000E+00
  8.00000000E-01  8.00000000E-01  1.50000000E+00  1.50000000E+00  8.00000000E-01
  8.00000000E-01  1.50000000E+00  1.50000000E+00  8.00000000E-01  8.00000000E-01
  1.50000000E+00  1.50000000E+00  8.00000000E-01  8.00000000E-01  1.50000000E+00
  1.50000000E+00  8.00000000E-01  8.00000000E-01  1.50000000E+00  1.50000000E+00
  8.00000000E-01  8.00000000E-01  1.50000000E+00  1.50000000E+00  8.00000000E-01
  8.00000000E-01  1.50000000E+00  1.50000000E+00  8.00000000E-01  8.00000000E-01
  1.50000000E+00  1.50000000E+00  8.00000000E-01  8.00000000E-01  1.50000000E+00
  1.50000000E+00  8.00000000E-01  8.00000000E-01  1.50000000E+00  1.50000000E+00
  8.00000000E-01  8.00000000E-01  1.50000000E+00  1.50000000E+00  8.00000000E-01
  8.00000000E-01  1.50000000E+00  1.50000000E+00  8.00000000E-01  8.00000000E-01
  1.50000000E+00  1.50000000E+00  8.00000000E-01  8.00000000E-01  1.50000000E+00
  1.50000000E+00  8.00000000E-01  8.00000000E-01  1.50000000E+00  1.50000000E+00
  8.00000000E-01  8.00000000E-01  1.50000000E+00  1.50000000E+00  8.00000000E-01
  8.00000000E-01  1.50000000E+00  1.50000000E+00  8.00000000E-01  8.00000000E-01
  1.50000000E+00  1.50000000E+00  8.00000000E-01  8.00000000E-01  1.50000000E+00
  1.50000000E+00  8.00000000E-01  8.00000000E-01  1.50000000E+00  1.50000000E+00
  8.00000000E-01  8.00000000E-01  1.50000000E+00  1.50000000E+00  8.00000000E-01
  8.00000000E-01  1.50000000E+00  1.50000000E+00  8.00000000E-01  8.00000000E-01
  1.50000000E+00  1.50000000E+00  8.00000000E-01  8.00000000E-01  1.50000000E+00
  1.50000000E+00  8.00000000E-01  8.00000000E-01  1.50000000E+00  1.50000000E+00
  8.00000000E-01  8.00000000E-01  1.50000000E+00  1.50000000E+00  8.00000000E-01
  8.00000000E-01  1.50000000E+00  1.50000000E+00  8.00000000E-01  8.00000000E-01
  1.50000000E+00  1.50000000E+00  8.00000000E-01  8.00000000E-01  1.50000000E+00
  1.50000000E+00  8.00000000E-01  8.00000000E-01  1.50000000E+00  1.50000000E+00
  8.00000000E-01  8.00000000E-01  1.50000000E+00  1.50000000E+00  8.00000000E-01
  8.00000000E-01  1.50000000E+00  1.50000000E+00  8.00000000E-01  8.00000000E-01
  1.50000000E+00  1.50000000E+00  8.00000000E-01  8.00000000E-01  1.50000000E+00
  1.50000000E+00  8.00000000E-01  8.00000000E-01  1.50000000E+00  1.50000000E+00
  8.00000000E-01  8.00000000E-01  1.50000000E+00  1.50000000E+00  8.00000000E-01
  8.00000000E-01  1.50000000E+00  1.50000000E+00  8.00000000E-01  8.00000000E-01
  1.50000000E+00  1.50000000E+00  8.00000000E-01  8.00000000E-01  1.50000000E+00
  1.50000000E+00  8.00000000E-01  8.00000000E-01  1.50000000E+00  1.50000000E+00
  8.00000000E-01  8.00000000E-01  1.50000000E+00  1.50000000E+00  8.00000000E-01
  8.00000000E-01  1.50000000E+00  1.50000000E+00  8.00000000E-01  8.00000000E-01
  1.50000000E+00  1.50000000E+00  8.00000000E-01  8.00000000E-01  1.50000000E+00
  1.50000000E+00  8.00000000E-01  8.00000000E-01  1.50000000E+00  1.50000000E+00
  8.00000000E-01  8.00000000E-01  1.50000000E+00  1.50000000E+00  8.00000000E-01
  8.00000000E-01  1.50000000E+00  1.50000000E+00  8.00000000E-01  8.00000000E-01
  1.50000000E+00  1.50000000E+00  8.00000000E-01  8.00000000E-01  1.50000000E+00
  1.50000000E+00  8.00000000E-01  8.00000000E-01  1.50000000E+00  1.50000000E+00
  8.00000000E-01  8.00000000E-01  1.50000000E+00  1.50000000E+00  8.00000000E-01
  8.00000000E-01  1.50000000E+00  1.50000000E+00  8.00000000E-01  8.00000000E-01
  1.50000000E+00  1.50000000E+00  8.00000000E-01  8.00000000E-01  1.50000000E+00
  1.50000000E+00  8.00000000E-01  8.00000000E-01  1.50000000E+00  1.50000000E+00
  8.00000000E-01  8.00000000E-01  1.50000000E+00  1.50000000E+00  8.00000000E-01
  8.00000000E-01  1.50000000E+00  1.50000000E+00  8.00000000E-01  8.00000000E-01
  1.50000000E+00  1.50000000E+00  8.00000000E-01  8.00000000E-01  1.50000000E+00
  1.50000000E+00  8.00000000E-01  8.00000000E-01  1.50000000E+00  1.50000000E+00
  8.00000000E-01  8.00000000E-01  1.50000000E+00  1.50000000E+00  8.00000000E-01
  8.00000000E-01  1.50000000E+00  1.50000000E+00  8.00000000E-01  8.00000000E-01
  1.50000000E+00  1.50000000E+00  8.00000000E-01  8.00000000E-01  1.50000000E+00
  1.50000000E+00  8.00000000E-01  8.00000000E-01  1.50000000E+00  1.50000000E+00
  8.00000000E-01  8.00000000E-01  1.50000000E+00  1.50000000E+00  8.00000000E-01
  8.00000000E-01  1.50000000E+00  1.50000000E+00  8.00000000E-01  8.00000000E-01
  1.50000000E+00  1.50000000E+00  8.00000000E-01  8.00000000E-01  1.50000000E+00
  1.50000000E+00  8.00000000E-01  8.00000000E-01  1.50000000E+00  1.50000000E+00
  8.00000000E-01  8.00000000E-01  1.50000000E+00  1.50000000E+00  8.00000000E-01
  8.00000000E-01  1.50000000E+00  1.50000000E+00  8.00000000E-01  8.00000000E-01
  1.50000000E+00  1.50000000E+00  8.00000000E-01  8.00000000E-01  1.50000000E+00
  1.50000000E+00  8.00000000E-01  8.00000000E-01  1.50000000E+00  1.50000000E+00
  8.00000000E-01  8.00000000E-01  1.50000000E+00  1.50000000E+00  8.00000000E-01
  8.00000000E-01  1.50000000E+00  1.50000000E+00  8.00000000E-01  8.00000000E-01
  1.50000000E+00  1.50000000E+00  8.00000000E-01  8.00000000E-01  1.50000000E+00
  1.50000000E+00  8.00000000E-01  8.00000000E-01  1.50000000E+00  1.50000000E+00
  8.00000000E-01  8.00000000E-01  1.50000000E+00  1.50000000E+00  8.00000000E-01
  8.00000000E-01  1.50000000E+00  1.50000000E+00  8.00000000E-01  8.00000000E-01
  1.50000000E+00  1.50000000E+00  8.00000000E-01  8.00000000E-01  1.50000000E+00
  1.50000000E+00  8.00000000E-01  8.00000000E-01  1.50000000E+00  1.50000000E+00
  8.00000000E-01  8.00000000E-01  1.50000000E+00  1.50000000E+00  8.00000000E-01
  8.00000000E-01  1.50000000E+00  1.50000000E+00  8.00000000E-01  8.00000000E-01
  1.50000000E+00  1.50000000E+00  8.00000000E-01  8.00000000E-01  1.50000000E+00
  1.50000000E+00  8.00000000E-01  8.00000000E-01  1.50000000E+00  1.50000000E+00
  8.00000000E-01  8.00000000E-01  1.50000000E+00  1.50000000E+00  8.00000000E-01
  8.00000000E-01  1.50000000E+00  1.50000000E+00  8.00000000E-01  8.00000000E-01
  1.50000000E+00  1.50000000E+00  8.00000000E-01  8.00000000E-01  1.50000000E+00
  1.50000000E+00  8.00000000E-01  8.00000000E-01  1.50000000E+00  1.50000000E+00
  8.00000000E-01  8.00000000E-01  1.50000000E+00  1.50000000E+00  8.00000000E-01
  8.00000000E-01  1.50000000E+00  1.50000000E+00  8.00000000E-01  8.00000000E-01
  1.50000000E+00  1.50000000E+00  8.00000000E-01  8.00000000E-01  1.50000000E+00
  1.50000000E+00  8.00000000E-01  8.00000000E-01  1.50000000E+00  1.50000000E+00
  8.00000000E-01  8.00000000E-01  1.50000000E+00  1.50000000E+00  8.00000000E-01
  8.00000000E-01  1.50000000E+00  1.50000000E+00  8.00000000E-01  8.00000000E-01
  1.50000000E+00  1.50000000E+00  8.00000000E-01  8.00000000E-01  1.50000000E+00
  1.50000000E+00  8.00000000E-01  8.00000000E-01  1.50000000E+00  1.50000000E+00
  8.00000000E-01  8.00000000E-01  1.50000000E+00  1.50000000E+00  8.00000000E-01
  8.00000000E-01  1.50000000E+00  1.50000000E+00  8.00000000E-01  8.00000000E-01
  1.50000000E+00  1.50000000E+00  8.00000000E-01  8.00000000E-01  1.50000000E+00
  1.50000000E+00  8.00000000E-01  8.00000000E-01  1.50000000E+00  1.50000000E+00
  8.00000000E-01  8.00000000E-01  1.50000000E+00  1.50000000E+00  8.00000000E-01
  8.00000000E-01  1.50000000E+00  1.50000000E+00  8.00000000E-01  8.00000000E-01
  1.50000000E+00  1.50000000E+00  8.00000000E-01  8.00000000E-01  1.50000000E+00
  1.50000000E+00  8.00000000E-01  8.00000000E-01  1.50000000E+00  1.50000000E+00
  8.00000000E-01  8.00000000E-01  1.50000000E+00  1.50000000E+00  8.00000000E-01
  8.00000000E-01  1.50000000E+00  1.50000000E+00  8.00000000E-01  8.00000000E-01
  1.50000000E+00  1.50000000E+00  8.00000000E-01  8.00000000E-01  1.50000000E+00
  1.50000000E+00  8.00000000E-01  8.00000000E-01  1.50000000E+00  1.50000000E+00
  8.00000000E-01  8.00000000E-01  1.50000000E+00  1.50000000E+00  8.00000000E-01
  8.00000000E-01  1.50000000E+00  1.50000000E+00  8.00000000E-01  8.00000000E-01
  1.50000000E+00  1.50000000E+00  8.00000000E-01  8.00000000E-01  1.50000000E+00
  1.50000000E+00  8.00000000E-01  8.00000000E-01  1.50000000E+00  1.50000000E+00
  8.00000000E-01  8.00000000E-01  1.50000000E+00  1.50000000E+00  8.00000000E-01
  8.00000000E-01  1.50000000E+00  1.50000000E+00  8.00000000E-01  8.00000000E-01
  1.50000000E+00  1.50000000E+00  8.00000000E-01  8.00000000E-01  1.50000000E+00
  1.50000000E+00  8.00000000E-01  8.00000000E-01  1.50000000E+00  1.50000000E+00
  8.00000000E-01  8.00000000E-01  1.50000000E+00  1.50000000E+00  8.00000000E-01
  8.00000000E-01  1.50000000E+00  1.50000000E+00  8.00000000E-01  8.00000000E-01
  1.50000000E+00  1.50000000E+00  8.00000000E-01  8.00000000E-01  1.50000000E+00
  1.50000000E+00  8.00000000E-01  8.00000000E-01  1.50000000E+00  1.50000000E+00
  8.00000000E-01  8.00000000E-01  1.50000000E+00  1.50000000E+00  8.00000000E-01
  8.00000000E-01  1.50000000E+00  1.50000000E+00  8.00000000E-01  8.00000000E-01
  1.50000000E+00  1.50000000E+00  8.00000000E-01  8.00000000E-01  1.50000000E+00
  1.50000000E+00  8.00000000E-01  8.00000000E-01  1.50000000E+00  1.50000000E+00
  8.00000000E-01  8.00000000E-01  1.50000000E+00  1.50000000E+00  8.00000000E-01
  8.00000000E-01  1.50000000E+00  1.50000000E+00  8.00000000E-01  8.00000000E-01
  1.50000000E+00  1.50000000E+00  8.00000000E-01  8.00000000E-01  1.50000000E+00
  1.50000000E+00  8.00000000E-01  8.00000000E-01  1.50000000E+00  1.50000000E+00
  8.00000000E-01  8.00000000E-01  1.50000000E+00  1.50000000E+00  8.00000000E-01
  8.00000000E-01  1.50000000E+00  1.50000000E+00  8.00000000E-01  8.00000000E-01
  1.50000000E+00  1.50000000E+00  8.00000000E-01  8.00000000E-01  1.50000000E+00
  1.50000000E+00  8.00000000E-01  8.00000000E-01  1.50000000E+00  1.50000000E+00
  8.00000000E-01  8.00000000E-01  1.50000000E+00  1.50000000E+00  8.00000000E-01
  8.00000000E-01  1.50000000E+00  1.50000000E+00  8.00000000E-01  8.00000000E-01
  1.50000000E+00  1.50000000E+00  8.00000000E-01  8.00000000E-01  1.50000000E+00
  1.50000000E+00  8.00000000E-01  8.00000000E-01  1.50000000E+00  1.50000000E+00
  8.00000000E-01  8.00000000E-01  1.50000000E+00  1.50000000E+00  8.00000000E-01
  8.00000000E-01  1.50000000E+00  1.50000000E+00  8.00000000E-01  8.00000000E-01
  1.50000000E+00  1.50000000E+00  8.00000000E-01  8.00000000E-01  1.50000000E+00
  1.50000000E+00  8.00000000E-01  8.00000000E-01  1.50000000E+00  1.50000000E+00
  8.00000000E-01  8.00000000E-01  1.50000000E+00  1.50000000E+00  8.00000000E-01
  8.00000000E-01  1.50000000E+00  1.50000000E+00  8.00000000E-01  8.00000000E-01
  1.50000000E+00  1.50000000E+00  8.00000000E-01  8.00000000E-01  1.50000000E+00
  1.50000000E+00  8.00000000E-01  8.00000000E-01  1.50000000E+00  1.50000000E+00
  8.00000000E-01  8.00000000E-01  1.50000000E+00  1.50000000E+00  8.00000000E-01
  8.00000000E-01  1.50000000E+00  1.50000000E+00  8.00000000E-01  8.00000000E-01
  1.50000000E+00  1.50000000E+00  8.00000000E-01  8.00000000E-01  1.50000000E+00
  1.50000000E+00  8.00000000E-01  8.00000000E-01  1.50000000E+00  1.50000000E+00
  8.00000000E-01  8.00000000E-01  1.50000000E+00  1.50000000E+00  8.00000000E-01
  8.00000000E-01  1.50000000E+00  1.50000000E+00  8.00000000E-01  8.00000000E-01
  1.50000000E+00  1.50000000E+00  8.00000000E-01  8.00000000E-01  1.50000000E+00
  1.50000000E+00  8.00000000E-01  8.00000000E-01  1.50000000E+00  1.50000000E+00
  8.00000000E-01  8.00000000E-01  1.50000000E+00  1.50000000E+00  8.00000000E-01
  8.00000000E-01  1.50000000E+00  1.50000000E+00  8.00000000E-01  8.00000000E-01
  1.50000000E+00  1.50000000E+00  8.00000000E-01  8.00000000E-01  1.50000000E+00
  1.50000000E+00  8.00000000E-01  8.00000000E-01  1.50000000E+00  1.50000000E+00
  8.00000000E-01  8.00000000E-01  1.50000000E+00  1.50000000E+00  8.00000000E-01
  8.00000000E-01  1.50000000E+00  1.50000000E+00  8.00000000E-01  8.00000000E-01
  1.50000000E+00  1.50000000E+00  8.00000000E-01  8.00000000E-01  1.50000000E+00
  1.50000000E+00  8.00000000E-01  8.00000000E-01  1.50000000E+00  1.50000000E+00
  8.00000000E-01  8.00000000E-01  1.50000000E+00  1.50000000E+00  8.00000000E-01
  8.00000000E-01  1.50000000E+00  1.50000000E+00  8.00000000E-01  8.00000000E-01
  1.50000000E+00  1.50000000E+00  8.00000000E-01  8.00000000E-01  1.50000000E+00
  1.50000000E+00  8.00000000E-01  8.00000000E-01  1.50000000E+00  1.50000000E+00
  8.00000000E-01  8.00000000E-01  1.50000000E+00  1.50000000E+00  8.00000000E-01
  8.00000000E-01  1.50000000E+00  1.50000000E+00  8.00000000E-01  8.00000000E-01
  1.50000000E+00  1.50000000E+00  8.00000000E-01  8.00000000E-01  1.50000000E+00
  1.50000000E+00  8.00000000E-01  8.00000000E-01  1.50000000E+00  1.50000000E+00
  8.00000000E-01  8.00000000E-01  1.50000000E+00  1.50000000E+00  8.00000000E-01
  8.00000000E-01  1.50000000E+00  1.50000000E+00  8.00000000E-01  8.00000000E-01
  1.50000000E+00  1.50000000E+00  8.00000000E-01  8.00000000E-01  1.50000000E+00
  1.50000000E+00  8.00000000E-01  8.00000000E-01  1.50000000E+00  1.50000000E+00
  8.00000000E-01  8.00000000E-01  1.50000000E+00  1.50000000E+00  8.00000000E-01
  8.00000000E-01  1.50000000E+00  1.50000000E+00  8.00000000E-01  8.00000000E-01
  1.50000000E+00  1.50000000E+00  8.00000000E-01  8.00000000E-01  1.50000000E+00
  1.50000000E+00  8.00000000E-01  8.00000000E-01  1.50000000E+00  1.50000000E+00
  8.00000000E-01  8.00000000E-01  1.50000000E+00  1.50000000E+00  8.00000000E-01
  8.00000000E-01  1.50000000E+00  1.50000000E+00  8.00000000E-01  8.00000000E-01
  1.50000000E+00  1.50000000E+00  8.00000000E-01  8.00000000E-01  1.50000000E+00
  1.50000000E+00  8.00000000E-01  8.00000000E-01  1.50000000E+00  1.50000000E+00
  8.00000000E-01  8.00000000E-01  1.50000000E+00  1.50000000E+00  8.00000000E-01
  8.00000000E-01  1.50000000E+00  1.50000000E+00  8.00000000E-01  8.00000000E-01
  1.50000000E+00  1.50000000E+00  8.00000000E-01  8.00000000E-01  1.50000000E+00
  1.50000000E+00  8.00000000E-01  8.00000000E-01  1.50000000E+00  1.50000000E+00
  8.00000000E-01  8.00000000E-01  1.50000000E+00  1.50000000E+00  8.00000000E-01
  8.00000000E-01  1.50000000E+00  1.50000000E+00  8.00000000E-01  8.00000000E-01
  1.50000000E+00  1.50000000E+00  8.00000000E-01  8.00000000E-01  1.50000000E+00
  1.50000000E+00  8.00000000E-01  8.00000000E-01  1.50000000E+00  1.50000000E+00
  8.00000000E-01  8.00000000E-01  1.50000000E+00  1.50000000E+00  8.00000000E-01
  8.00000000E-01  1.50000000E+00  1.50000000E+00  8.00000000E-01  8.00000000E-01
  1.50000000E+00  1.50000000E+00  8.00000000E-01  8.00000000E-01  1.50000000E+00
  1.50000000E+00  8.00000000E-01  8.00000000E-01  1.50000000E+00  1.50000000E+00
  8.00000000E-01  8.00000000E-01  1.50000000E+00  1.50000000E+00  8.00000000E-01
  8.00000000E-01  1.50000000E+00  1.50000000E+00  8.00000000E-01  8.00000000E-01
  1.50000000E+00  1.50000000E+00  8.00000000E-01  8.00000000E-01  1.50000000E+00
  1.50000000E+00  8.00000000E-01  8.00000000E-01  1.50000000E+00  1.50000000E+00
  8.00000000E-01  8.00000000E-01  1.50000000E+00  1.50000000E+00  8.00000000E-01
  8.00000000E-01  1.50000000E+00  1.50000000E+00  8.00000000E-01  8.00000000E-01
  1.50000000E+00  1.50000000E+00  8.00000000E-01  8.00000000E-01  1.50000000E+00
  1.50000000E+00  8.00000000E-01  8.00000000E-01  1.50000000E+00  1.50000000E+00
  8.00000000E-01  8.00000000E-01  1.50000000E+00  1.50000000E+00  8.00000000E-01
  8.00000000E-01  1.50000000E+00  1.50000000E+00  8.00000000E-01  8.00000000E-01
  1.50000000E+00  1.50000000E+00  8.00000000E-01  8.00000000E-01  1.50000000E+00
  1.50000000E+00  8.00000000E-01  8.00000000E-01  1.50000000E+00  1.50000000E+00
  8.00000000E-01  8.00000000E-01  1.50000000E+00  1.50000000E+00  8.00000000E-01
  8.00000000E-01  1.50000000E+00  1.50000000E+00  8.00000000E-01  8.00000000E-01
  1.50000000E+00  1.50000000E+00  8.00000000E-01  8.00000000E-01  1.50000000E+00
  1.50000000E+00  8.00000000E-01  8.00000000E-01  1.50000000E+00  1.50000000E+00
  8.00000000E-01  8.00000000E-01  1.50000000E+00  1.50000000E+00  8.00000000E-01
  8.00000000E-01  1.50000000E+00  1.50000000E+00  8.00000000E-01  8.00000000E-01
  1.50000000E+00  1.50000000E+00  8.00000000E-01  8.00000000E-01  1.50000000E+00
  1.50000000E+00  8.00000000E-01  8.00000000E-01  1.50000000E+00  1.50000000E+00
  8.00000000E-01  8.00000000E-01  1.50000000E+00  1.50000000E+00  8.00000000E-01
  8.00000000E-01  1.50000000E+00  1.50000000E+00  8.00000000E-01  8.00000000E-01
  1.50000000E+00  1.50000000E+00  8.00000000E-01  8.00000000E-01  1.50000000E+00
  1.50000000E+00  8.00000000E-01  8.00000000E-01  1.50000000E+00  1.50000000E+00
  8.00000000E-01  8.00000000E-01  1.50000000E+00  1.50000000E+00  8.00000000E-01
  8.00000000E-01  1.50000000E+00  1.50000000E+00  8.00000000E-01  8.00000000E-01
  1.50000000E+00  1.50000000E+00  8.00000000E-01  8.00000000E-01  1.50000000E+00
  1.50000000E+00  8.00000000E-01  8.00000000E-01  1.50000000E+00  1.50000000E+00
  8.00000000E-01  8.00000000E-01  1.50000000E+00  1.50000000E+00  8.00000000E-01
  8.00000000E-01  1.50000000E+00  1.50000000E+00  8.00000000E-01  8.00000000E-01
  1.50000000E+00  1.50000000E+00  8.00000000E-01  8.00000000E-01  1.50000000E+00
  1.50000000E+00  8.00000000E-01  8.00000000E-01  1.50000000E+00  1.50000000E+00
  8.00000000E-01  8.00000000E-01  1.50000000E+00  1.50000000E+00  8.00000000E-01
  8.00000000E-01  1.50000000E+00  1.50000000E+00  8.00000000E-01  8.00000000E-01
  1.50000000E+00  1.50000000E+00  8.00000000E-01  8.00000000E-01  1.50000000E+00
  1.50000000E+00  8.00000000E-01  8.00000000E-01  1.50000000E+00  1.50000000E+00
  8.00000000E-01  8.00000000E-01  1.50000000E+00  1.50000000E+00  8.00000000E-01
  8.00000000E-01  1.50000000E+00  1.50000000E+00  8.00000000E-01  8.00000000E-01
  1.50000000E+00  1.50000000E+00  8.00000000E-01  8.00000000E-01  1.50000000E+00
  1.50000000E+00  8.00000000E-01  8.00000000E-01  1.50000000E+00  1.50000000E+00
  8.00000000E-01  8.00000000E-01  1.50000000E+00  1.50000000E+00  8.00000000E-01
  8.00000000E-01  1.50000000E+00  1.50000000E+00  8.00000000E-01  8.00000000E-01
  1.50000000E+00  1.50000000E+00  8.00000000E-01  8.00000000E-01  1.50000000E+00
  1.50000000E+00  8.00000000E-01  8.00000000E-01  1.50000000E+00  1.50000000E+00
  8.00000000E-01  8.00000000E-01  1.50000000E+00  1.50000000E+00  8.00000000E-01
  8.00000000E-01  1.50000000E+00  1.50000000E+00  8.00000000E-01  8.00000000E-01
  1.50000000E+00  1.50000000E+00  8.00000000E-01  8.00000000E-01  1.50000000E+00
  1.50000000E+00  8.00000000E-01  8.00000000E-01  1.50000000E+00  1.50000000E+00
  8.00000000E-01  8.00000000E-01  1.50000000E+00  1.50000000E+00  8.00000000E-01
  8.00000000E-01  1.50000000E+00  1.50000000E+00  8.00000000E-01  8.00000000E-01
  1.50000000E+00  1.50000000E+00  8.00000000E-01  8.00000000E-01  1.50000000E+00
  1.50000000E+00  8.00000000E-01  8.00000000E-01  1.50000000E+00  1.50000000E+00
  8.00000000E-01  8.00000000E-01  1.50000000E+00  1.50000000E+00  8.00000000E-01
  8.00000000E-01  1.50000000E+00  1.50000000E+00  8.00000000E-01  8.00000000E-01
  1.50000000E+00  1.50000000E+00  8.00000000E-01  8.00000000E-01  1.50000000E+00
  1.50000000E+00  8.00000000E-01  8.00000000E-01  1.50000000E+00  1.50000000E+00
  8.00000000E-01  8.00000000E-01  1.50000000E+00  1.50000000E+00  8.00000000E-01
  8.00000000E-01  1.50000000E+00  1.50000000E+00  8.00000000E-01  8.00000000E-01
  1.50000000E+00  1.50000000E+00  8.00000000E-01  8.00000000E-01  1.50000000E+00
  1.50000000E+00  8.00000000E-01  8.00000000E-01  1.50000000E+00  1.50000000E+00
  8.00000000E-01  8.00000000E-01  1.50000000E+00  1.50000000E+00  8.00000000E-01
  8.00000000E-01  1.50000000E+00  1.50000000E+00  8.00000000E-01  8.00000000E-01
  1.50000000E+00  1.50000000E+00  8.00000000E-01  8.00000000E-01  1.50000000E+00
  1.50000000E+00  8.00000000E-01  8.00000000E-01  1.50000000E+00  1.50000000E+00
  8.00000000E-01  8.00000000E-01  1.50000000E+00  1.50000000E+00  8.00000000E-01
  8.00000000E-01  1.50000000E+00  1.50000000E+00  8.00000000E-01  8.00000000E-01
  1.50000000E+00  1.50000000E+00  8.00000000E-01  8.00000000E-01  1.50000000E+00
  1.50000000E+00  8.00000000E-01  8.00000000E-01  1.50000000E+00  1.50000000E+00
  8.00000000E-01  8.00000000E-01  1.50000000E+00  1.50000000E+00  8.00000000E-01
  8.00000000E-01  1.50000000E+00  1.50000000E+00  8.00000000E-01  8.00000000E-01
  1.50000000E+00  1.50000000E+00  8.00000000E-01  8.00000000E-01  1.50000000E+00
  1.50000000E+00  8.00000000E-01  8.00000000E-01  1.50000000E+00  1.50000000E+00
  8.00000000E-01  8.00000000E-01  1.50000000E+00  1.50000000E+00  8.00000000E-01
  8.00000000E-01  1.50000000E+00  1.50000000E+00  8.00000000E-01  8.00000000E-01
  1.50000000E+00  1.50000000E+00  8.00000000E-01  8.00000000E-01  1.50000000E+00
  1.50000000E+00  8.00000000E-01  8.00000000E-01  1.50000000E+00  1.50000000E+00
  8.00000000E-01  8.00000000E-01  1.50000000E+00  1.50000000E+00  8.00000000E-01
  8.00000000E-01  1.50000000E+00  1.50000000E+00  8.00000000E-01  8.00000000E-01
  1.50000000E+00  1.50000000E+00  8.00000000E-01  8.00000000E-01  1.50000000E+00
  1.50000000E+00  8.00000000E-01  8.00000000E-01  1.50000000E+00  1.50000000E+00
  8.00000000E-01  8.00000000E-01  1.50000000E+00  1.50000000E+00  8.00000000E-01
  8.00000000E-01  1.50000000E+00  1.50000000E+00  8.00000000E-01  8.00000000E-01
  1.50000000E+00  1.50000000E+00  8.00000000E-01  8.00000000E-01  1.50000000E+00
  1.50000000E+00  8.00000000E-01  8.00000000E-01  1.50000000E+00  1.50000000E+00
  8.00000000E-01  8.00000000E-01  1.50000000E+00  1.50000000E+00  8.00000000E-01
  8.00000000E-01  1.50000000E+00  1.50000000E+00  8.00000000E-01  8.00000000E-01
  1.50000000E+00  1.50000000E+00  8.00000000E-01  8.00000000E-01  1.50000000E+00
  1.50000000E+00  8.00000000E-01  8.00000000E-01  1.50000000E+00  1.50000000E+00
  8.00000000E-01  8.00000000E-01  1.50000000E+00  1.50000000E+00  8.00000000E-01
  8.00000000E-01  1.50000000E+00  1.50000000E+00  8.00000000E-01  8.00000000E-01
  1.50000000E+00  1.50000000E+00  8.00000000E-01  8.00000000E-01  1.50000000E+00
  1.50000000E+00  8.00000000E-01  8.00000000E-01  1.50000000E+00  1.50000000E+00
  8.00000000E-01  8.00000000E-01  1.50000000E+00  1.50000000E+00  8.00000000E-01
  8.00000000E-01  1.50000000E+00  1.50000000E+00  8.00000000E-01  8.00000000E-01
  1.50000000E+00  1.50000000E+00  8.00000000E-01  8.00000000E-01  1.50000000E+00
  1.50000000E+00  8.00000000E-01  8.00000000E-01  1.50000000E+00  1.50000000E+00
  8.00000000E-01  8.00000000E-01  1.50000000E+00  1.50000000E+00  8.00000000E-01
  8.00000000E-01  1.50000000E+00  1.50000000E+00  8.00000000E-01  8.00000000E-01
  1.50000000E+00  1.50000000E+00  8.00000000E-01  8.00000000E-01  1.50000000E+00
  1.50000000E+00  8.00000000E-01  8.00000000E-01  1.50000000E+00  1.50000000E+00
  8.00000000E-01  8.00000000E-01  1.50000000E+00  1.50000000E+00  8.00000000E-01
  8.00000000E-01  1.50000000E+00  1.50000000E+00  8.00000000E-01  8.00000000E-01
  1.50000000E+00  1.50000000E+00  8.00000000E-01  8.00000000E-01  1.50000000E+00
  1.50000000E+00  8.00000000E-01  8.00000000E-01  1.50000000E+00  1.50000000E+00
  8.00000000E-01  8.00000000E-01  1.50000000E+00  1.50000000E+00  8.00000000E-01
  8.00000000E-01  1.50000000E+00  1.50000000E+00  8.00000000E-01  8.00000000E-01
  1.50000000E+00  1.50000000E+00  8.00000000E-01  8.00000000E-01  1.50000000E+00
  1.50000000E+00  8.00000000E-01  8.00000000E-01  1.50000000E+00  1.50000000E+00
  8.00000000E-01  8.00000000E-01  1.50000000E+00  1.50000000E+00  8.00000000E-01
  8.00000000E-01  1.50000000E+00  1.50000000E+00  8.00000000E-01  8.00000000E-01
  1.50000000E+00  1.50000000E+00  8.00000000E-01  8.00000000E-01  1.50000000E+00
  1.50000000E+00  8.00000000E-01  8.00000000E-01  1.50000000E+00  1.50000000E+00
  8.00000000E-01  8.00000000E-01  1.50000000E+00  1.50000000E+00  8.00000000E-01
  8.00000000E-01  1.50000000E+00  1.50000000E+00  8.00000000E-01  8.00000000E-01
  1.50000000E+00  1.50000000E+00  8.00000000E-01  8.00000000E-01  1.50000000E+00
  1.50000000E+00  8.00000000E-01  8.00000000E-01  1.50000000E+00  1.50000000E+00
  8.00000000E-01  8.00000000E-01  1.50000000E+00  1.50000000E+00  8.00000000E-01
  8.00000000E-01  1.50000000E+00  1.50000000E+00  8.00000000E-01  8.00000000E-01
  1.50000000E+00  1.50000000E+00  8.00000000E-01  8.00000000E-01  1.50000000E+00
  1.50000000E+00  8.00000000E-01  8.00000000E-01  1.50000000E+00  1.50000000E+00
  8.00000000E-01  8.00000000E-01  1.50000000E+00  1.50000000E+00  8.00000000E-01
  8.00000000E-01  1.50000000E+00  1.50000000E+00  8.00000000E-01  8.00000000E-01
  1.50000000E+00  1.50000000E+00  8.00000000E-01  8.00000000E-01  1.50000000E+00
  1.50000000E+00  8.00000000E-01  8.00000000E-01  1.50000000E+00  1.50000000E+00
  8.00000000E-01  8.00000000E-01  1.50000000E+00  1.50000000E+00  8.00000000E-01
  8.00000000E-01  1.50000000E+00  1.50000000E+00  8.00000000E-01  8.00000000E-01
  1.50000000E+00  1.50000000E+00  8.00000000E-01  8.00000000E-01  1.50000000E+00
  1.50000000E+00  8.00000000E-01  8.00000000E-01  1.50000000E+00  1.50000000E+00
  8.00000000E-01  8.00000000E-01  1.50000000E+00  1.50000000E+00  8.00000000E-01
  8.00000000E-01  1.50000000E+00  1.50000000E+00  8.00000000E-01  8.00000000E-01
  1.50000000E+00  1.50000000E+00  8.00000000E-01  8.00000000E-01  1.50000000E+00
  1.50000000E+00  8.00000000E-01  8.00000000E-01  1.50000000E+00  1.50000000E+00
  8.00000000E-01  8.00000000E-01  1.50000000E+00  1.50000000E+00  8.00000000E-01
  8.00000000E-01  1.50000000E+00  1.50000000E+00  8.00000000E-01  8.00000000E-01
  1.50000000E+00  1.50000000E+00  8.00000000E-01  8.00000000E-01  1.50000000E+00
  1.50000000E+00  8.00000000E-01  8.00000000E-01  1.50000000E+00  1.50000000E+00
  8.00000000E-01  8.00000000E-01  1.50000000E+00  1.50000000E+00  8.00000000E-01
  8.00000000E-01  1.50000000E+00  1.50000000E+00  8.00000000E-01  8.00000000E-01
  1.50000000E+00  1.50000000E+00  8.00000000E-01  8.00000000E-01  1.50000000E+00
  1.50000000E+00  8.00000000E-01  8.00000000E-01  1.50000000E+00  1.50000000E+00
  8.00000000E-01  8.00000000E-01  1.50000000E+00  1.50000000E+00  8.00000000E-01
  8.00000000E-01  1.50000000E+00  1.50000000E+00  8.00000000E-01  8.00000000E-01
  1.50000000E+00  1.50000000E+00  8.00000000E-01  8.00000000E-01  1.50000000E+00
  1.50000000E+00  8.00000000E-01  8.00000000E-01  1.50000000E+00  1.50000000E+00
  8.00000000E-01  8.00000000E-01  1.50000000E+00  1.50000000E+00  8.00000000E-01
  8.00000000E-01  1.50000000E+00  1.50000000E+00  8.00000000E-01  8.00000000E-01
  1.50000000E+00  1.50000000E+00  8.00000000E-01  8.00000000E-01  1.50000000E+00
  1.50000000E+00  8.00000000E-01  8.00000000E-01  1.50000000E+00  1.50000000E+00
  8.00000000E-01  8.00000000E-01  1.50000000E+00  1.50000000E+00  8.00000000E-01
  8.00000000E-01  1.50000000E+00  1.50000000E+00  8.00000000E-01  8.00000000E-01
  1.50000000E+00  1.50000000E+00  8.00000000E-01  8.00000000E-01  1.50000000E+00
  1.50000000E+00  8.00000000E-01  8.00000000E-01  1.50000000E+00  1.50000000E+00
  8.00000000E-01  8.00000000E-01  1.50000000E+00  1.50000000E+00  8.00000000E-01
  8.00000000E-01  1.50000000E+00  1.50000000E+00  8.00000000E-01  8.00000000E-01
  1.50000000E+00  1.50000000E+00  8.00000000E-01  8.00000000E-01  1.50000000E+00
  1.50000000E+00  8.00000000E-01  8.00000000E-01  1.50000000E+00  1.50000000E+00
  8.00000000E-01  8.00000000E-01  1.50000000E+00  1.50000000E+00  8.00000000E-01
  8.00000000E-01  1.50000000E+00  1.50000000E+00  8.00000000E-01  8.00000000E-01
  1.50000000E+00  1.50000000E+00  8.00000000E-01  8.00000000E-01  1.50000000E+00
  1.50000000E+00  8.00000000E-01  8.00000000E-01  1.50000000E+00  1.50000000E+00
  8.00000000E-01  8.00000000E-01  1.50000000E+00  1.50000000E+00  8.00000000E-01
  8.00000000E-01  1.50000000E+00  1.50000000E+00  8.00000000E-01  8.00000000E-01
  1.50000000E+00  1.50000000E+00  8.00000000E-01  8.00000000E-01  1.50000000E+00
  1.50000000E+00  8.00000000E-01  8.00000000E-01  1.50000000E+00  1.50000000E+00
  8.00000000E-01  8.00000000E-01  1.50000000E+00  1.50000000E+00  8.00000000E-01
  8.00000000E-01  1.50000000E+00  1.50000000E+00  8.00000000E-01  8.00000000E-01
  1.50000000E+00  1.50000000E+00  8.00000000E-01  8.00000000E-01  1.50000000E+00
  1.50000000E+00  8.00000000E-01  8.00000000E-01  1.50000000E+00  1.50000000E+00
  8.00000000E-01  8.00000000E-01  1.50000000E+00  1.50000000E+00  8.00000000E-01
  8.00000000E-01  1.50000000E+00  1.50000000E+00  8.00000000E-01  8.00000000E-01
  1.50000000E+00  1.50000000E+00  8.00000000E-01  8.00000000E-01  1.50000000E+00
  1.50000000E+00  8.00000000E-01  8.00000000E-01  1.50000000E+00  1.50000000E+00
  8.00000000E-01  8.00000000E-01  1.50000000E+00  1.50000000E+00  8.00000000E-01
  8.00000000E-01  1.50000000E+00  1.50000000E+00  8.00000000E-01  8.00000000E-01
  1.50000000E+00  1.50000000E+00  8.00000000E-01  8.00000000E-01  1.50000000E+00
  1.50000000E+00  8.00000000E-01  8.00000000E-01  1.50000000E+00  1.50000000E+00
  8.00000000E-01  8.00000000E-01  1.50000000E+00  1.50000000E+00  8.00000000E-01
  8.00000000E-01  1.50000000E+00  1.50000000E+00  8.00000000E-01  8.00000000E-01
  1.50000000E+00  1.50000000E+00  8.00000000E-01  8.00000000E-01  1.50000000E+00
  1.50000000E+00  8.00000000E-01  8.00000000E-01  1.50000000E+00  1.50000000E+00
  8.00000000E-01  8.00000000E-01  1.50000000E+00  1.50000000E+00  8.00000000E-01
  8.00000000E-01  1.50000000E+00  1.50000000E+00  8.00000000E-01  8.00000000E-01
  1.50000000E+00  1.50000000E+00  8.00000000E-01  8.00000000E-01  1.50000000E+00
  1.50000000E+00  8.00000000E-01  8.00000000E-01  1.50000000E+00  1.50000000E+00
  8.00000000E-01  8.00000000E-01  1.50000000E+00  1.50000000E+00  8.00000000E-01
  8.00000000E-01  1.50000000E+00  1.50000000E+00  8.00000000E-01  8.00000000E-01
  1.50000000E+00  1.50000000E+00  8.00000000E-01  8.00000000E-01  1.50000000E+00
  1.50000000E+00  8.00000000E-01  8.00000000E-01  1.50000000E+00  1.50000000E+00
  8.00000000E-01  8.00000000E-01  1.50000000E+00  1.50000000E+00  8.00000000E-01
  8.00000000E-01  1.50000000E+00  1.50000000E+00  8.00000000E-01  8.00000000E-01
  1.50000000E+00  1.50000000E+00  8.00000000E-01  8.00000000E-01  1.50000000E+00
  1.50000000E+00  8.00000000E-01  8.00000000E-01  1.50000000E+00  1.50000000E+00
  8.00000000E-01  8.00000000E-01  1.50000000E+00  1.50000000E+00  8.00000000E-01
  8.00000000E-01  1.50000000E+00  1.50000000E+00  8.00000000E-01  8.00000000E-01
  1.50000000E+00  1.50000000E+00  8.00000000E-01  8.00000000E-01  1.50000000E+00
  1.50000000E+00  8.00000000E-01  8.00000000E-01  1.50000000E+00  1.50000000E+00
  8.00000000E-01  8.00000000E-01  1.50000000E+00  1.50000000E+00  8.00000000E-01
  8.00000000E-01  1.50000000E+00  1.50000000E+00  8.00000000E-01  8.00000000E-01
  1.50000000E+00  1.50000000E+00  8.00000000E-01  8.00000000E-01  1.50000000E+00
  1.50000000E+00  8.00000000E-01  8.00000000E-01  1.50000000E+00  1.50000000E+00
  8.00000000E-01  8.00000000E-01  1.50000000E+00  1.50000000E+00  8.00000000E-01
  8.00000000E-01  1.50000000E+00  1.50000000E+00  8.00000000E-01  8.00000000E-01
  1.50000000E+00  1.50000000E+00  8.00000000E-01  8.00000000E-01  1.50000000E+00
  1.50000000E+00  8.00000000E-01  8.00000000E-01  1.50000000E+00  1.50000000E+00
  8.00000000E-01  8.00000000E-01  1.50000000E+00  1.50000000E+00  8.00000000E-01
  8.00000000E-01  1.50000000E+00  1.50000000E+00  8.00000000E-01  8.00000000E-01
  1.50000000E+00  1.50000000E+00  8.00000000E-01  8.00000000E-01  1.50000000E+00
  1.50000000E+00  8.00000000E-01  8.00000000E-01  1.50000000E+00  1.50000000E+00
  8.00000000E-01  8.00000000E-01  1.50000000E+00  1.50000000E+00  8.00000000E-01
  8.00000000E-01  1.50000000E+00  1.50000000E+00  8.00000000E-01  8.00000000E-01
  1.50000000E+00  1.50000000E+00  8.00000000E-01  8.00000000E-01  1.50000000E+00
  1.50000000E+00  8.00000000E-01  8.00000000E-01  1.50000000E+00  1.50000000E+00
  8.00000000E-01  8.00000000E-01  1.50000000E+00  1.50000000E+00  8.00000000E-01
  8.00000000E-01  1.50000000E+00  1.50000000E+00  8.00000000E-01  8.00000000E-01
  1.50000000E+00  1.50000000E+00  8.00000000E-01  8.00000000E-01  1.50000000E+00
  1.50000000E+00  8.00000000E-01  8.00000000E-01  1.50000000E+00  1.50000000E+00
  8.00000000E-01  8.00000000E-01  1.50000000E+00  1.50000000E+00  8.00000000E-01
  8.00000000E-01  1.50000000E+00  1.50000000E+00  8.00000000E-01  8.00000000E-01
  1.50000000E+00  1.50000000E+00  8.00000000E-01  8.00000000E-01  1.50000000E+00
  1.50000000E+00  8.00000000E-01  8.00000000E-01  1.50000000E+00  1.50000000E+00
  8.00000000E-01  8.00000000E-01  1.50000000E+00  1.50000000E+00  8.00000000E-01
  8.00000000E-01  1.50000000E+00  1.50000000E+00  8.00000000E-01  8.00000000E-01
  1.50000000E+00  1.50000000E+00  8.00000000E-01  8.00000000E-01  1.50000000E+00
  1.50000000E+00  8.00000000E-01  8.00000000E-01  1.50000000E+00  1.50000000E+00
  8.00000000E-01  8.00000000E-01  1.50000000E+00  1.50000000E+00  8.00000000E-01
  8.00000000E-01  1.50000000E+00  1.50000000E+00  8.00000000E-01  8.00000000E-01
  1.50000000E+00  1.50000000E+00  8.00000000E-01  8.00000000E-01  1.50000000E+00
  1.50000000E+00  8.00000000E-01  8.00000000E-01  1.50000000E+00  1.50000000E+00
  8.00000000E-01  8.00000000E-01  1.50000000E+00  1.50000000E+00  8.00000000E-01
  8.00000000E-01  1.50000000E+00  1.50000000E+00  8.00000000E-01  8.00000000E-01
  1.50000000E+00  1.50000000E+00  8.00000000E-01  8.00000000E-01  1.50000000E+00
  1.50000000E+00  8.00000000E-01  8.00000000E-01  1.50000000E+00  1.50000000E+00
  8.00000000E-01  8.00000000E-01  1.50000000E+00  1.50000000E+00  8.00000000E-01
  8.00000000E-01  1.50000000E+00  1.50000000E+00  8.00000000E-01  8.00000000E-01
  1.50000000E+00  1.50000000E+00  8.00000000E-01  8.00000000E-01  1.50000000E+00
  1.50000000E+00  8.00000000E-01  8.00000000E-01  1.50000000E+00  1.50000000E+00
  8.00000000E-01  8.00000000E-01  1.50000000E+00  1.50000000E+00  8.00000000E-01
  8.00000000E-01  1.50000000E+00  1.50000000E+00  8.00000000E-01  8.00000000E-01
  1.50000000E+00  1.50000000E+00  8.00000000E-01  8.00000000E-01  1.50000000E+00
  1.50000000E+00  8.00000000E-01  8.00000000E-01  1.50000000E+00  1.50000000E+00
  8.00000000E-01  8.00000000E-01  1.50000000E+00  1.50000000E+00  8.00000000E-01
  8.00000000E-01  1.50000000E+00  1.50000000E+00  8.00000000E-01  8.00000000E-01
  1.50000000E+00  1.50000000E+00  8.00000000E-01  8.00000000E-01  1.50000000E+00
  1.50000000E+00  8.00000000E-01  8.00000000E-01  1.50000000E+00  1.50000000E+00
  8.00000000E-01  8.00000000E-01  1.50000000E+00  1.50000000E+00  8.00000000E-01
  8.00000000E-01  1.50000000E+00  1.50000000E+00  8.00000000E-01  8.00000000E-01
  1.50000000E+00  1.50000000E+00  8.00000000E-01  8.00000000E-01  1.50000000E+00
  1.50000000E+00  8.00000000E-01  8.00000000E-01  1.50000000E+00  1.50000000E+00
  8.00000000E-01  8.00000000E-01  1.50000000E+00  1.50000000E+00  8.00000000E-01
  8.00000000E-01  1.50000000E+00  1.50000000E+00  8.00000000E-01  8.00000000E-01
  1.50000000E+00  1.50000000E+00  8.00000000E-01  8.00000000E-01  1.50000000E+00
  1.50000000E+00  8.00000000E-01  8.00000000E-01  1.50000000E+00  1.50000000E+00
  8.00000000E-01  8.00000000E-01  1.50000000E+00  1.50000000E+00  8.00000000E-01
  8.00000000E-01  1.50000000E+00  1.50000000E+00  8.00000000E-01  8.00000000E-01
  1.50000000E+00  1.50000000E+00  8.00000000E-01  8.00000000E-01  1.50000000E+00
  1.50000000E+00  8.00000000E-01  8.00000000E-01  1.50000000E+00  1.50000000E+00
  8.00000000E-01  8.00000000E-01  1.50000000E+00  1.50000000E+00  8.00000000E-01
  8.00000000E-01  1.50000000E+00  1.50000000E+00  8.00000000E-01  8.00000000E-01
  1.50000000E+00  1.50000000E+00  8.00000000E-01  8.00000000E-01  1.50000000E+00
  1.50000000E+00  8.00000000E-01  8.00000000E-01  1.50000000E+00  1.50000000E+00
  8.00000000E-01  8.00000000E-01  1.50000000E+00  1.50000000E+00  8.00000000E-01
  8.00000000E-01  1.50000000E+00  1.50000000E+00  8.00000000E-01  8.00000000E-01
  1.50000000E+00  1.50000000E+00  8.00000000E-01  8.00000000E-01  1.50000000E+00
  1.50000000E+00  8.00000000E-01  8.00000000E-01  1.50000000E+00  1.50000000E+00
  8.00000000E-01  8.00000000E-01  1.50000000E+00  1.50000000E+00  8.00000000E-01
  8.00000000E-01  1.50000000E+00  1.50000000E+00  8.00000000E-01  8.00000000E-01
  1.50000000E+00  1.50000000E+00  8.00000000E-01  8.00000000E-01  1.50000000E+00
  1.50000000E+00  8.00000000E-01  8.00000000E-01  1.50000000E+00  1.50000000E+00
  8.00000000E-01  8.00000000E-01  1.50000000E+00  1.50000000E+00  8.00000000E-01
  8.00000000E-01  1.50000000E+00  1.50000000E+00  8.00000000E-01  8.00000000E-01
  1.50000000E+00  1.50000000E+00  8.00000000E-01  8.00000000E-01  1.50000000E+00
  1.50000000E+00  8.00000000E-01  8.00000000E-01  1.50000000E+00  1.50000000E+00
  8.00000000E-01  8.00000000E-01  1.50000000E+00  1.50000000E+00  8.00000000E-01
  8.00000000E-01  1.50000000E+00  1.50000000E+00  8.00000000E-01  8.00000000E-01
  1.50000000E+00  1.50000000E+00  8.00000000E-01  8.00000000E-01  1.50000000E+00
  1.50000000E+00  8.00000000E-01  8.00000000E-01  1.50000000E+00  1.50000000E+00
  8.00000000E-01  8.00000000E-01  1.50000000E+00  1.50000000E+00  8.00000000E-01
  8.00000000E-01  1.50000000E+00  1.50000000E+00  8.00000000E-01  8.00000000E-01
  1.50000000E+00  1.50000000E+00  8.00000000E-01  8.00000000E-01  1.50000000E+00
  1.50000000E+00  8.00000000E-01  8.00000000E-01  1.50000000E+00  1.50000000E+00
  8.00000000E-01  8.00000000E-01  1.50000000E+00  1.50000000E+00  8.00000000E-01
  8.00000000E-01  1.50000000E+00  1.50000000E+00  8.00000000E-01  8.00000000E-01
  1.50000000E+00  1.50000000E+00  8.00000000E-01  8.00000000E-01  1.50000000E+00
  1.50000000E+00  8.00000000E-01  8.00000000E-01  1.50000000E+00  1.50000000E+00
  8.00000000E-01  8.00000000E-01  1.50000000E+00  1.50000000E+00  8.00000000E-01
  8.00000000E-01  1.50000000E+00  1.50000000E+00  8.00000000E-01  8.00000000E-01
  1.50000000E+00  1.50000000E+00  8.00000000E-01  8.00000000E-01  1.50000000E+00
  1.50000000E+00  8.00000000E-01  8.00000000E-01  1.50000000E+00  1.50000000E+00
  8.00000000E-01  8.00000000E-01  1.50000000E+00  1.50000000E+00  8.00000000E-01
  8.00000000E-01  1.50000000E+00  1.50000000E+00  8.00000000E-01  8.00000000E-01
  1.50000000E+00  1.50000000E+00  8.00000000E-01  8.00000000E-01  1.50000000E+00
  1.50000000E+00  8.00000000E-01  8.00000000E-01  1.50000000E+00  1.50000000E+00
  8.00000000E-01  8.00000000E-01  1.50000000E+00  1.50000000E+00  8.00000000E-01
  8.00000000E-01  1.50000000E+00  1.50000000E+00  8.00000000E-01  8.00000000E-01
  1.50000000E+00  1.50000000E+00  8.00000000E-01  8.00000000E-01  1.50000000E+00
  1.50000000E+00  8.00000000E-01  8.00000000E-01  1.50000000E+00  1.50000000E+00
  8.00000000E-01  8.00000000E-01  1.50000000E+00  1.50000000E+00  8.00000000E-01
  8.00000000E-01  1.50000000E+00  1.50000000E+00  8.00000000E-01  8.00000000E-01
  1.50000000E+00  1.50000000E+00  8.00000000E-01  8.00000000E-01  1.50000000E+00
  1.50000000E+00  8.00000000E-01  8.00000000E-01  1.50000000E+00  1.50000000E+00
  8.00000000E-01  8.00000000E-01  1.50000000E+00  1.50000000E+00  8.00000000E-01
  8.00000000E-01  1.50000000E+00  1.50000000E+00  8.00000000E-01  8.00000000E-01
  1.50000000E+00  1.50000000E+00  8.00000000E-01  8.00000000E-01  1.50000000E+00
  1.50000000E+00  8.00000000E-01  8.00000000E-01  1.50000000E+00  1.50000000E+00
  8.00000000E-01  8.00000000E-01  1.50000000E+00  1.50000000E+00  8.00000000E-01
  8.00000000E-01  1.50000000E+00  1.50000000E+00  8.00000000E-01  8.00000000E-01
  1.50000000E+00  1.50000000E+00  8.00000000E-01  8.00000000E-01  1.50000000E+00
  1.50000000E+00  8.00000000E-01  8.00000000E-01  1.50000000E+00  1.50000000E+00
  8.00000000E-01  8.00000000E-01  1.50000000E+00  1.50000000E+00  8.00000000E-01
  8.00000000E-01  1.50000000E+00  1.50000000E+00  8.00000000E-01  8.00000000E-01
  1.50000000E+00  1.50000000E+00  8.00000000E-01  8.00000000E-01  1.50000000E+00
  1.50000000E+00  8.00000000E-01  8.00000000E-01  1.50000000E+00  1.50000000E+00
  8.00000000E-01  8.00000000E-01  1.50000000E+00  1.50000000E+00  8.00000000E-01
  8.00000000E-01  1.50000000E+00  1.50000000E+00  8.00000000E-01  8.00000000E-01
  1.50000000E+00  1.50000000E+00  8.00000000E-01  8.00000000E-01  1.50000000E+00
  1.50000000E+00  8.00000000E-01  8.00000000E-01  1.50000000E+00  1.50000000E+00
  8.00000000E-01  8.00000000E-01  1.50000000E+00  1.50000000E+00  8.00000000E-01
  8.00000000E-01  1.50000000E+00  1.50000000E+00  8.00000000E-01  8.00000000E-01
  1.50000000E+00  1.50000000E+00  8.00000000E-01  8.00000000E-01  1.50000000E+00
  1.50000000E+00  8.00000000E-01  8.00000000E-01  1.50000000E+00  1.50000000E+00
  8.00000000E-01  8.00000000E-01  1.50000000E+00  1.50000000E+00  8.00000000E-01
  8.00000000E-01  1.50000000E+00  1.50000000E+00  8.00000000E-01  8.00000000E-01
  1.50000000E+00  1.50000000E+00  8.00000000E-01  8.00000000E-01  1.50000000E+00
  1.50000000E+00  8.00000000E-01  8.00000000E-01  1.50000000E+00  1.50000000E+00
  8.00000000E-01  8.00000000E-01  1.50000000E+00  1.50000000E+00  8.00000000E-01
  8.00000000E-01  1.50000000E+00  1.50000000E+00  8.00000000E-01  8.00000000E-01
  1.50000000E+00  1.50000000E+00  8.00000000E-01  8.00000000E-01  1.50000000E+00
  1.50000000E+00  8.00000000E-01  8.00000000E-01  1.50000000E+00  1.50000000E+00
  8.00000000E-01  8.00000000E-01  1.50000000E+00  1.50000000E+00  8.00000000E-01
  8.00000000E-01  1.50000000E+00  1.50000000E+00  8.00000000E-01  8.00000000E-01
  1.50000000E+00  1.50000000E+00  8.00000000E-01  8.00000000E-01  1.50000000E+00
  1.50000000E+00  8.00000000E-01  8.00000000E-01  1.50000000E+00  1.50000000E+00
  8.00000000E-01  8.00000000E-01  1.50000000E+00  1.50000000E+00  8.00000000E-01
  8.00000000E-01  1.50000000E+00  1.50000000E+00  8.00000000E-01  8.00000000E-01
  1.50000000E+00  1.50000000E+00  8.00000000E-01  8.00000000E-01  1.50000000E+00
  1.50000000E+00  8.00000000E-01  8.00000000E-01  1.50000000E+00  1.50000000E+00
  8.00000000E-01  8.00000000E-01  1.50000000E+00  1.50000000E+00  8.00000000E-01
  8.00000000E-01  1.50000000E+00  1.50000000E+00  8.00000000E-01  8.00000000E-01
  1.50000000E+00  1.50000000E+00  8.00000000E-01  8.00000000E-01  1.50000000E+00
  1.50000000E+00  8.00000000E-01  8.00000000E-01  1.50000000E+00  1.50000000E+00
  8.00000000E-01  8.00000000E-01  1.50000000E+00  1.50000000E+00  8.00000000E-01
  8.00000000E-01  1.50000000E+00  1.50000000E+00  8.00000000E-01  8.00000000E-01
  1.50000000E+00  1.50000000E+00  8.00000000E-01  8.00000000E-01  1.50000000E+00
  1.50000000E+00  8.00000000E-01  8.00000000E-01  1.50000000E+00  1.50000000E+00
  8.00000000E-01  8.00000000E-01  1.50000000E+00  1.50000000E+00  8.00000000E-01
  8.00000000E-01  1.50000000E+00  1.50000000E+00  8.00000000E-01  8.00000000E-01
  1.50000000E+00  1.50000000E+00  8.00000000E-01  8.00000000E-01  1.50000000E+00
  1.50000000E+00  8.00000000E-01  8.00000000E-01  1.50000000E+00  1.50000000E+00
  8.00000000E-01  8.00000000E-01  1.50000000E+00  1.50000000E+00  8.00000000E-01
  8.00000000E-01  1.50000000E+00  1.50000000E+00  8.00000000E-01  8.00000000E-01
  1.50000000E+00  1.50000000E+00  8.00000000E-01  8.00000000E-01  1.50000000E+00
  1.50000000E+00  8.00000000E-01  8.00000000E-01  1.50000000E+00  1.50000000E+00
  8.00000000E-01  8.00000000E-01  1.50000000E+00  1.50000000E+00  8.00000000E-01
  8.00000000E-01  1.50000000E+00  1.50000000E+00  8.00000000E-01  8.00000000E-01
  1.50000000E+00  1.50000000E+00  8.00000000E-01  8.00000000E-01  1.50000000E+00
  1.50000000E+00  8.00000000E-01  8.00000000E-01  1.50000000E+00  1.50000000E+00
  8.00000000E-01  8.00000000E-01  1.50000000E+00  1.50000000E+00  8.00000000E-01
  8.00000000E-01  1.50000000E+00  1.50000000E+00  8.00000000E-01  8.00000000E-01
  1.50000000E+00  1.50000000E+00  8.00000000E-01  8.00000000E-01  1.50000000E+00
  1.50000000E+00  8.00000000E-01  8.00000000E-01  1.50000000E+00  1.50000000E+00
  8.00000000E-01  8.00000000E-01  1.50000000E+00  1.50000000E+00  8.00000000E-01
  8.00000000E-01  1.50000000E+00  1.50000000E+00  8.00000000E-01  8.00000000E-01
  1.50000000E+00  1.50000000E+00  8.00000000E-01  8.00000000E-01  1.50000000E+00
  1.50000000E+00  8.00000000E-01  8.00000000E-01  1.50000000E+00  1.50000000E+00
  8.00000000E-01  8.00000000E-01  1.50000000E+00  1.50000000E+00  8.00000000E-01
  8.00000000E-01  1.50000000E+00  1.50000000E+00  8.00000000E-01  8.00000000E-01
  1.50000000E+00  1.50000000E+00  8.00000000E-01  8.00000000E-01  1.50000000E+00
  1.50000000E+00  8.00000000E-01  8.00000000E-01  1.50000000E+00  1.50000000E+00
  8.00000000E-01  8.00000000E-01  1.50000000E+00  1.50000000E+00  8.00000000E-01
  8.00000000E-01  1.50000000E+00  1.50000000E+00  8.00000000E-01  8.00000000E-01
  1.50000000E+00  1.50000000E+00  8.00000000E-01  8.00000000E-01  1.50000000E+00
  1.50000000E+00  8.00000000E-01  8.00000000E-01  1.50000000E+00  1.50000000E+00
  8.00000000E-01  8.00000000E-01  1.50000000E+00  1.50000000E+00  8.00000000E-01
  8.00000000E-01  1.50000000E+00  1.50000000E+00  8.00000000E-01  8.00000000E-01
  1.50000000E+00  1.50000000E+00  8.00000000E-01  8.00000000E-01  1.50000000E+00
  1.50000000E+00  8.00000000E-01  8.00000000E-01  1.50000000E+00  1.50000000E+00
  8.00000000E-01  8.00000000E-01  1.50000000E+00  1.50000000E+00  8.00000000E-01
  8.00000000E-01  1.50000000E+00  1.50000000E+00  8.00000000E-01  8.00000000E-01
  1.50000000E+00  1.50000000E+00  8.00000000E-01  8.00000000E-01  1.50000000E+00
  1.50000000E+00  8.00000000E-01  8.00000000E-01  1.50000000E+00  1.50000000E+00
  8.00000000E-01  8.00000000E-01  1.50000000E+00  1.50000000E+00  8.00000000E-01
  8.00000000E-01  1.50000000E+00  1.50000000E+00  8.00000000E-01  8.00000000E-01
  1.50000000E+00  1.50000000E+00  8.00000000E-01  8.00000000E-01  1.50000000E+00
  1.50000000E+00  8.00000000E-01  8.00000000E-01  1.50000000E+00  1.50000000E+00
  8.00000000E-01  8.00000000E-01  1.50000000E+00  1.50000000E+00  8.00000000E-01
  8.00000000E-01  1.50000000E+00  1.50000000E+00  8.00000000E-01  8.00000000E-01
  1.50000000E+00  1.50000000E+00  8.00000000E-01  8.00000000E-01  1.50000000E+00
  1.50000000E+00  8.00000000E-01  8.00000000E-01  1.50000000E+00  1.50000000E+00
  8.00000000E-01  8.00000000E-01  1.50000000E+00  1.50000000E+00  8.00000000E-01
  8.00000000E-01  1.50000000E+00  1.50000000E+00  8.00000000E-01  8.00000000E-01
  1.50000000E+00  1.50000000E+00  8.00000000E-01  8.00000000E-01  1.50000000E+00
  1.50000000E+00  8.00000000E-01  8.00000000E-01  1.50000000E+00  1.50000000E+00
  8.00000000E-01  8.00000000E-01  1.50000000E+00  1.50000000E+00  8.00000000E-01
  8.00000000E-01  1.50000000E+00  1.50000000E+00  8.00000000E-01  8.00000000E-01
  1.50000000E+00  1.50000000E+00  8.00000000E-01  8.00000000E-01  1.50000000E+00
  1.50000000E+00  8.00000000E-01  8.00000000E-01  1.50000000E+00  1.50000000E+00
  8.00000000E-01  8.00000000E-01  1.50000000E+00  1.50000000E+00  8.00000000E-01
  8.00000000E-01  1.50000000E+00  1.50000000E+00  8.00000000E-01  8.00000000E-01
  1.50000000E+00  1.50000000E+00  8.00000000E-01  8.00000000E-01  1.50000000E+00
  1.50000000E+00  8.00000000E-01  8.00000000E-01  1.50000000E+00  1.50000000E+00
  8.00000000E-01  8.00000000E-01  1.50000000E+00  1.50000000E+00  8.00000000E-01
  8.00000000E-01  1.50000000E+00  1.50000000E+00  8.00000000E-01  8.00000000E-01
  1.50000000E+00  1.50000000E+00  8.00000000E-01  8.00000000E-01  1.50000000E+00
  1.50000000E+00  8.00000000E-01  8.00000000E-01  1.50000000E+00  1.50000000E+00
  8.00000000E-01  8.00000000E-01  1.50000000E+00  1.50000000E+00  8.00000000E-01
  8.00000000E-01  1.50000000E+00  1.50000000E+00  8.00000000E-01  8.00000000E-01
  1.50000000E+00  1.50000000E+00  8.00000000E-01  8.00000000E-01  1.50000000E+00
  1.50000000E+00  8.00000000E-01  8.00000000E-01  1.50000000E+00  1.50000000E+00
  8.00000000E-01  8.00000000E-01  1.50000000E+00  1.50000000E+00  8.00000000E-01
  8.00000000E-01  1.50000000E+00  1.50000000E+00  8.00000000E-01  8.00000000E-01
  1.50000000E+00  1.50000000E+00  8.00000000E-01  8.00000000E-01  1.50000000E+00
  1.50000000E+00  8.00000000E-01  8.00000000E-01  1.50000000E+00  1.50000000E+00
  8.00000000E-01  8.00000000E-01  1.50000000E+00  1.50000000E+00  8.00000000E-01
  8.00000000E-01  1.50000000E+00  1.50000000E+00  8.00000000E-01  8.00000000E-01
  1.50000000E+00  1.50000000E+00  8.00000000E-01  8.00000000E-01  1.50000000E+00
  1.50000000E+00  8.00000000E-01  8.00000000E-01  1.50000000E+00  1.50000000E+00
  8.00000000E-01  8.00000000E-01  1.50000000E+00  1.50000000E+00  8.00000000E-01
  8.00000000E-01  1.50000000E+00  1.50000000E+00  8.00000000E-01  8.00000000E-01
  1.50000000E+00  1.50000000E+00  8.00000000E-01  8.00000000E-01  1.50000000E+00
  1.50000000E+00  8.00000000E-01  8.00000000E-01  1.50000000E+00  1.50000000E+00
  8.00000000E-01  8.00000000E-01  1.50000000E+00  1.50000000E+00  8.00000000E-01
  8.00000000E-01  1.50000000E+00  1.50000000E+00  8.00000000E-01  8.00000000E-01
  1.50000000E+00  1.50000000E+00  8.00000000E-01  8.00000000E-01  1.50000000E+00
  1.50000000E+00  8.00000000E-01  8.00000000E-01  1.50000000E+00  1.50000000E+00
  8.00000000E-01  8.00000000E-01  1.50000000E+00  1.50000000E+00  8.00000000E-01
  8.00000000E-01  1.50000000E+00  1.50000000E+00  8.00000000E-01  8.00000000E-01
  1.50000000E+00  1.50000000E+00  8.00000000E-01  8.00000000E-01  1.50000000E+00
  1.50000000E+00  8.00000000E-01  8.00000000E-01  1.50000000E+00  1.50000000E+00
  8.00000000E-01  8.00000000E-01  1.50000000E+00  1.50000000E+00  8.00000000E-01
  8.00000000E-01  1.50000000E+00  1.50000000E+00  8.00000000E-01  8.00000000E-01
  1.50000000E+00  1.50000000E+00  8.00000000E-01  8.00000000E-01  1.50000000E+00
  1.50000000E+00  8.00000000E-01  8.00000000E-01  1.50000000E+00  1.50000000E+00
  8.00000000E-01  8.00000000E-01  1.50000000E+00  1.50000000E+00  8.00000000E-01
  8.00000000E-01  1.50000000E+00  1.50000000E+00  8.00000000E-01  8.00000000E-01
  1.50000000E+00  1.50000000E+00  8.00000000E-01  8.00000000E-01  1.50000000E+00
  1.50000000E+00  8.00000000E-01  8.00000000E-01  1.50000000E+00  1.50000000E+00
  8.00000000E-01  8.00000000E-01  1.50000000E+00  1.50000000E+00  8.00000000E-01
  8.00000000E-01  1.50000000E+00  1.50000000E+00  8.00000000E-01  8.00000000E-01
  1.50000000E+00  1.50000000E+00  8.00000000E-01  8.00000000E-01  1.50000000E+00
  1.50000000E+00  8.00000000E-01  8.00000000E-01  1.50000000E+00  1.50000000E+00
  8.00000000E-01  8.00000000E-01  1.50000000E+00  1.50000000E+00  8.00000000E-01
  8.00000000E-01  1.50000000E+00  1.50000000E+00  8.00000000E-01  8.00000000E-01
  1.50000000E+00  1.50000000E+00  8.00000000E-01  8.00000000E-01  1.50000000E+00
  1.50000000E+00  8.00000000E-01  8.00000000E-01  1.50000000E+00  1.50000000E+00
  8.00000000E-01  8.00000000E-01  1.50000000E+00  1.50000000E+00  8.00000000E-01
  8.00000000E-01  1.50000000E+00  1.50000000E+00  8.00000000E-01  8.00000000E-01
  1.50000000E+00  1.50000000E+00  8.00000000E-01  8.00000000E-01  1.50000000E+00
  1.50000000E+00  8.00000000E-01  8.00000000E-01  1.50000000E+00  1.50000000E+00
  8.00000000E-01  8.00000000E-01  1.50000000E+00  1.50000000E+00  8.00000000E-01
  8.00000000E-01  1.50000000E+00  1.50000000E+00  8.00000000E-01  8.00000000E-01
  1.50000000E+00  1.50000000E+00  8.00000000E-01  8.00000000E-01  1.50000000E+00
  1.50000000E+00  8.00000000E-01  8.00000000E-01  1.50000000E+00  1.50000000E+00
  8.00000000E-01  8.00000000E-01  1.50000000E+00  1.50000000E+00  8.00000000E-01
  8.00000000E-01  1.50000000E+00  1.50000000E+00  8.00000000E-01  8.00000000E-01
  1.50000000E+00  1.50000000E+00  8.00000000E-01  8.00000000E-01  1.50000000E+00
  1.50000000E+00  8.00000000E-01  8.00000000E-01  1.50000000E+00  1.50000000E+00
  8.00000000E-01  8.00000000E-01  1.50000000E+00  1.50000000E+00  8.00000000E-01
  8.00000000E-01  1.50000000E+00  1.50000000E+00  8.00000000E-01  8.00000000E-01
  1.50000000E+00  1.50000000E+00  8.00000000E-01  8.00000000E-01  1.50000000E+00
  1.50000000E+00  8.00000000E-01  8.00000000E-01  1.50000000E+00  1.50000000E+00
  8.00000000E-01  8.00000000E-01  1.50000000E+00  1.50000000E+00  8.00000000E-01
  8.00000000E-01  1.50000000E+00  1.50000000E+00  8.00000000E-01  8.00000000E-01
  1.50000000E+00  1.50000000E+00  8.00000000E-01  8.00000000E-01  1.50000000E+00
  1.50000000E+00  8.00000000E-01  8.00000000E-01  1.50000000E+00  1.50000000E+00
  8.00000000E-01  8.00000000E-01  1.50000000E+00  1.50000000E+00  8.00000000E-01
  8.00000000E-01  1.50000000E+00  1.50000000E+00  8.00000000E-01  8.00000000E-01
  1.50000000E+00  1.50000000E+00  8.00000000E-01  8.00000000E-01  1.50000000E+00
  1.50000000E+00  8.00000000E-01  8.00000000E-01  1.50000000E+00  1.50000000E+00
  8.00000000E-01  8.00000000E-01  1.50000000E+00  1.50000000E+00  8.00000000E-01
  8.00000000E-01  1.50000000E+00  1.50000000E+00  8.00000000E-01  8.00000000E-01
  1.50000000E+00  1.50000000E+00  8.00000000E-01  8.00000000E-01  1.50000000E+00
  1.50000000E+00  8.00000000E-01  8.00000000E-01  1.50000000E+00  1.50000000E+00
  8.00000000E-01  8.00000000E-01  1.50000000E+00  1.50000000E+00  8.00000000E-01
  8.00000000E-01  1.50000000E+00  1.50000000E+00  8.00000000E-01  8.00000000E-01
  1.50000000E+00  1.50000000E+00  8.00000000E-01  8.00000000E-01  1.50000000E+00
  1.50000000E+00  8.00000000E-01  8.00000000E-01  1.50000000E+00  1.50000000E+00
  8.00000000E-01  8.00000000E-01  1.50000000E+00  1.50000000E+00  8.00000000E-01
  8.00000000E-01  1.50000000E+00  1.50000000E+00  8.00000000E-01  8.00000000E-01
  1.50000000E+00  1.50000000E+00  8.00000000E-01  8.00000000E-01  1.50000000E+00
  1.50000000E+00  8.00000000E-01  8.00000000E-01  1.50000000E+00  1.50000000E+00
  8.00000000E-01  8.00000000E-01  1.50000000E+00  1.50000000E+00  8.00000000E-01
  8.00000000E-01  1.50000000E+00  1.50000000E+00  8.00000000E-01  8.00000000E-01
  1.50000000E+00  1.50000000E+00  8.00000000E-01  8.00000000E-01  1.50000000E+00
  1.50000000E+00  8.00000000E-01  8.00000000E-01  1.50000000E+00  1.50000000E+00
  8.00000000E-01  8.00000000E-01  1.50000000E+00  1.50000000E+00  8.00000000E-01
  8.00000000E-01  1.50000000E+00  1.50000000E+00  8.00000000E-01  8.00000000E-01
  1.50000000E+00  1.50000000E+00  8.00000000E-01  8.00000000E-01  1.50000000E+00
  1.50000000E+00  8.00000000E-01  8.00000000E-01  1.50000000E+00  1.50000000E+00
  8.00000000E-01  8.00000000E-01  1.50000000E+00  1.50000000E+00  8.00000000E-01
  8.00000000E-01  1.50000000E+00  1.50000000E+00  8.00000000E-01  8.00000000E-01
  1.50000000E+00  1.50000000E+00  8.00000000E-01  8.00000000E-01  1.50000000E+00
  1.50000000E+00  8.00000000E-01  8.00000000E-01  1.50000000E+00  1.50000000E+00
  8.00000000E-01  8.00000000E-01  1.50000000E+00  1.50000000E+00  8.00000000E-01
  8.00000000E-01  1.50000000E+00  1.50000000E+00  8.00000000E-01  8.00000000E-01
  1.50000000E+00  1.50000000E+00  8.00000000E-01  8.00000000E-01  1.50000000E+00
  1.50000000E+00  8.00000000E-01  8.00000000E-01  1.50000000E+00  1.50000000E+00
  8.00000000E-01  8.00000000E-01  1.50000000E+00  1.50000000E+00  8.00000000E-01
  8.00000000E-01  1.50000000E+00  1.50000000E+00  8.00000000E-01  8.00000000E-01
  1.50000000E+00  1.50000000E+00  8.00000000E-01  8.00000000E-01  1.50000000E+00
  1.50000000E+00  8.00000000E-01  8.00000000E-01  1.50000000E+00  1.50000000E+00
  8.00000000E-01  8.00000000E-01  1.50000000E+00  1.50000000E+00  8.00000000E-01
  8.00000000E-01  1.50000000E+00  1.50000000E+00  8.00000000E-01  8.00000000E-01
  1.50000000E+00  1.50000000E+00  8.00000000E-01  8.00000000E-01  1.50000000E+00
  1.50000000E+00  8.00000000E-01  8.00000000E-01  1.50000000E+00  1.50000000E+00
  8.00000000E-01  8.00000000E-01  1.50000000E+00  1.50000000E+00  8.00000000E-01
  8.00000000E-01  1.50000000E+00  1.50000000E+00  8.00000000E-01  8.00000000E-01
  1.50000000E+00  1.50000000E+00  8.00000000E-01  8.00000000E-01  1.50000000E+00
  1.50000000E+00  8.00000000E-01  8.00000000E-01  1.50000000E+00  1.50000000E+00
  8.00000000E-01  8.00000000E-01  1.50000000E+00  1.50000000E+00  8.00000000E-01
  8.00000000E-01  1.50000000E+00  1.50000000E+00  8.00000000E-01  8.00000000E-01
  1.50000000E+00  1.50000000E+00  8.00000000E-01  8.00000000E-01  1.50000000E+00
  1.50000000E+00  8.00000000E-01  8.00000000E-01  1.50000000E+00  1.50000000E+00
  8.00000000E-01  8.00000000E-01  1.50000000E+00  1.50000000E+00  8.00000000E-01
  8.00000000E-01  1.50000000E+00  1.50000000E+00  8.00000000E-01  8.00000000E-01
  1.50000000E+00  1.50000000E+00  8.00000000E-01  8.00000000E-01  1.50000000E+00
  1.50000000E+00  8.00000000E-01  8.00000000E-01  1.50000000E+00  1.50000000E+00
  8.00000000E-01  8.00000000E-01  1.50000000E+00  1.50000000E+00  8.00000000E-01
  8.00000000E-01  1.50000000E+00  1.50000000E+00  8.00000000E-01  8.00000000E-01
  1.50000000E+00  1.50000000E+00  8.00000000E-01  8.00000000E-01  1.50000000E+00
  1.50000000E+00  8.00000000E-01  8.00000000E-01  1.50000000E+00  1.50000000E+00
  8.00000000E-01  8.00000000E-01  1.50000000E+00  1.50000000E+00  8.00000000E-01
  8.00000000E-01  1.50000000E+00  1.50000000E+00  8.00000000E-01  8.00000000E-01
  1.50000000E+00  1.50000000E+00  8.00000000E-01  8.00000000E-01  1.50000000E+00
  1.50000000E+00  8.00000000E-01  8.00000000E-01  1.50000000E+00  1.50000000E+00
  8.00000000E-01  8.00000000E-01  1.50000000E+00  1.50000000E+00  8.00000000E-01
  8.00000000E-01  1.50000000E+00  1.50000000E+00  8.00000000E-01  8.00000000E-01
  1.50000000E+00  1.50000000E+00  8.00000000E-01  8.00000000E-01  1.50000000E+00
  1.50000000E+00  8.00000000E-01  8.00000000E-01  1.50000000E+00  1.50000000E+00
  8.00000000E-01  8.00000000E-01  1.50000000E+00  1.50000000E+00  8.00000000E-01
  8.00000000E-01  1.50000000E+00  1.50000000E+00  8.00000000E-01  8.00000000E-01
  1.50000000E+00  1.50000000E+00  8.00000000E-01  8.00000000E-01  1.50000000E+00
  1.50000000E+00  8.00000000E-01  8.00000000E-01  1.50000000E+00  1.50000000E+00
  8.00000000E-01  8.00000000E-01  1.50000000E+00  1.50000000E+00  8.00000000E-01
  8.00000000E-01  1.50000000E+00  1.50000000E+00  8.00000000E-01  8.00000000E-01
  1.50000000E+00  1.50000000E+00  8.00000000E-01  8.00000000E-01  1.50000000E+00
  1.50000000E+00  8.00000000E-01  8.00000000E-01  1.50000000E+00  1.50000000E+00
  8.00000000E-01  8.00000000E-01  1.50000000E+00  1.50000000E+00  8.00000000E-01
  8.00000000E-01  1.50000000E+00  1.50000000E+00  8.00000000E-01  8.00000000E-01
  1.50000000E+00  1.50000000E+00  8.00000000E-01  8.00000000E-01  1.50000000E+00
  1.50000000E+00  8.00000000E-01  8.00000000E-01  1.50000000E+00  1.50000000E+00
  8.00000000E-01  8.00000000E-01  1.50000000E+00  1.50000000E+00  8.00000000E-01
  8.00000000E-01  1.50000000E+00  1.50000000E+00  8.00000000E-01  8.00000000E-01
  1.50000000E+00  1.50000000E+00  8.00000000E-01  8.00000000E-01  1.50000000E+00
  1.50000000E+00  8.00000000E-01  8.00000000E-01  1.50000000E+00  1.50000000E+00
  8.00000000E-01  8.00000000E-01  1.50000000E+00  1.50000000E+00  8.00000000E-01
  8.00000000E-01  1.50000000E+00  1.50000000E+00  8.00000000E-01  8.00000000E-01
  1.50000000E+00  1.50000000E+00  8.00000000E-01  8.00000000E-01  1.50000000E+00
  1.50000000E+00  8.00000000E-01  8.00000000E-01  1.50000000E+00  1.50000000E+00
  8.00000000E-01  8.00000000E-01  1.50000000E+00  1.50000000E+00  8.00000000E-01
  8.00000000E-01  1.50000000E+00  1.50000000E+00  8.00000000E-01  8.00000000E-01
  1.50000000E+00  1.50000000E+00  8.00000000E-01  8.00000000E-01  1.50000000E+00
  1.50000000E+00  8.00000000E-01  8.00000000E-01  1.50000000E+00  1.50000000E+00
  8.00000000E-01  8.00000000E-01  1.50000000E+00  1.50000000E+00  8.00000000E-01
  8.00000000E-01  1.50000000E+00  1.50000000E+00  8.00000000E-01  8.00000000E-01
  1.50000000E+00  1.50000000E+00  8.00000000E-01  8.00000000E-01  1.50000000E+00
  1.50000000E+00  8.00000000E-01  8.00000000E-01  1.50000000E+00  1.50000000E+00
  8.00000000E-01  8.00000000E-01  1.50000000E+00  1.50000000E+00  8.00000000E-01
  8.00000000E-01  1.50000000E+00  1.50000000E+00  8.00000000E-01  8.00000000E-01
  1.50000000E+00  1.50000000E+00  8.00000000E-01  8.00000000E-01  1.50000000E+00
  1.50000000E+00  8.00000000E-01  8.00000000E-01  1.50000000E+00  1.50000000E+00
  8.00000000E-01  8.00000000E-01  1.50000000E+00  1.50000000E+00  8.00000000E-01
  8.00000000E-01  1.50000000E+00  1.50000000E+00  8.00000000E-01  8.00000000E-01
  1.50000000E+00  1.50000000E+00  8.00000000E-01  8.00000000E-01  1.50000000E+00
  1.50000000E+00  8.00000000E-01  8.00000000E-01  1.50000000E+00  1.50000000E+00
  8.00000000E-01  8.00000000E-01  1.50000000E+00  1.50000000E+00  8.00000000E-01
  8.00000000E-01  1.50000000E+00  1.50000000E+00  8.00000000E-01  8.00000000E-01
  1.50000000E+00  1.50000000E+00  8.00000000E-01  8.00000000E-01  1.50000000E+00
  1.50000000E+00  8.00000000E-01  8.00000000E-01  1.50000000E+00  1.50000000E+00
  8.00000000E-01  8.00000000E-01  1.50000000E+00  1.50000000E+00  8.00000000E-01
  8.00000000E-01  1.50000000E+00  1.50000000E+00  8.00000000E-01  8.00000000E-01
  1.50000000E+00  1.50000000E+00  8.00000000E-01  8.00000000E-01  1.50000000E+00
  1.50000000E+00  8.00000000E-01  8.00000000E-01  1.50000000E+00  1.50000000E+00
  8.00000000E-01  8.00000000E-01  1.50000000E+00  1.50000000E+00  8.00000000E-01
  8.00000000E-01  1.50000000E+00  1.50000000E+00  8.00000000E-01  8.00000000E-01
  1.50000000E+00  1.50000000E+00  8.00000000E-01  8.00000000E-01  1.50000000E+00
  1.50000000E+00  8.00000000E-01  8.00000000E-01  1.50000000E+00  1.50000000E+00
  8.00000000E-01  8.00000000E-01  1.50000000E+00  1.50000000E+00  8.00000000E-01
  8.00000000E-01  1.50000000E+00  1.50000000E+00  8.00000000E-01  8.00000000E-01
  1.50000000E+00  1.50000000E+00  8.00000000E-01  8.00000000E-01  1.50000000E+00
  1.50000000E+00  8.00000000E-01  8.00000000E-01  1.50000000E+00  1.50000000E+00
  8.00000000E-01  8.00000000E-01  1.50000000E+00  1.50000000E+00  8.00000000E-01
  8.00000000E-01  1.50000000E+00  1.50000000E+00  8.00000000E-01  8.00000000E-01
  1.50000000E+00  1.50000000E+00  8.00000000E-01  8.00000000E-01  1.50000000E+00
  1.50000000E+00  8.00000000E-01  8.00000000E-01  1.50000000E+00  1.50000000E+00
  8.00000000E-01  8.00000000E-01  1.50000000E+00  1.50000000E+00  8.00000000E-01
  8.00000000E-01  1.50000000E+00  1.50000000E+00  8.00000000E-01  8.00000000E-01
  1.50000000E+00  1.50000000E+00  8.00000000E-01  8.00000000E-01  1.50000000E+00
  1.50000000E+00  8.00000000E-01  8.00000000E-01  1.50000000E+00  1.50000000E+00
  8.00000000E-01  8.00000000E-01  1.50000000E+00  1.50000000E+00  8.00000000E-01
  8.00000000E-01  1.50000000E+00  1.50000000E+00  8.00000000E-01  8.00000000E-01
  1.50000000E+00  1.50000000E+00  8.00000000E-01  8.00000000E-01  1.50000000E+00
  1.50000000E+00  8.00000000E-01  8.00000000E-01  1.50000000E+00  1.50000000E+00
  8.00000000E-01  8.00000000E-01  1.50000000E+00  1.50000000E+00  8.00000000E-01
  8.00000000E-01  1.50000000E+00  1.50000000E+00  8.00000000E-01  8.00000000E-01
  1.50000000E+00  1.50000000E+00  8.00000000E-01  8.00000000E-01  1.50000000E+00
  1.50000000E+00  8.00000000E-01  8.00000000E-01  1.50000000E+00  1.50000000E+00
  8.00000000E-01  8.00000000E-01  1.50000000E+00  1.50000000E+00  8.00000000E-01
  8.00000000E-01  1.50000000E+00  1.50000000E+00  8.00000000E-01  8.00000000E-01
  1.50000000E+00  1.50000000E+00  8.00000000E-01  8.00000000E-01  1.50000000E+00
  1.50000000E+00  8.00000000E-01  8.00000000E-01  1.50000000E+00  1.50000000E+00
  8.00000000E-01  8.00000000E-01  1.50000000E+00  1.50000000E+00  8.00000000E-01
  8.00000000E-01  1.50000000E+00  1.50000000E+00  8.00000000E-01  8.00000000E-01
  1.50000000E+00  1.50000000E+00  8.00000000E-01  8.00000000E-01  1.50000000E+00
  1.50000000E+00  8.00000000E-01  8.00000000E-01  1.50000000E+00  1.50000000E+00
  8.00000000E-01  8.00000000E-01  1.50000000E+00  1.50000000E+00  8.00000000E-01
  8.00000000E-01  1.50000000E+00  1.50000000E+00  8.00000000E-01  8.00000000E-01
  1.50000000E+00  1.50000000E+00  8.00000000E-01  8.00000000E-01  1.50000000E+00
  1.50000000E+00  8.00000000E-01  8.00000000E-01  1.50000000E+00  1.50000000E+00
  8.00000000E-01  8.00000000E-01  1.50000000E+00  1.50000000E+00  8.00000000E-01
  8.00000000E-01  1.50000000E+00  1.50000000E+00  8.00000000E-01  8.00000000E-01
  1.50000000E+00  1.50000000E+00  8.00000000E-01  8.00000000E-01  1.50000000E+00
  1.50000000E+00  8.00000000E-01  8.00000000E-01  1.50000000E+00  1.50000000E+00
  8.00000000E-01  8.00000000E-01  1.50000000E+00  1.50000000E+00  8.00000000E-01
  8.00000000E-01  1.50000000E+00  1.50000000E+00  8.00000000E-01  8.00000000E-01
  1.50000000E+00  1.50000000E+00  8.00000000E-01  8.00000000E-01  1.50000000E+00
  1.50000000E+00  8.00000000E-01  8.00000000E-01  1.50000000E+00  1.50000000E+00
  8.00000000E-01  8.00000000E-01  1.50000000E+00  1.50000000E+00  8.00000000E-01
  8.00000000E-01  1.50000000E+00  1.50000000E+00  8.00000000E-01  8.00000000E-01
  1.50000000E+00  1.50000000E+00  8.00000000E-01  8.00000000E-01  1.50000000E+00
  1.50000000E+00  8.00000000E-01  8.00000000E-01  1.50000000E+00  1.50000000E+00
  8.00000000E-01  8.00000000E-01  1.50000000E+00  1.50000000E+00  8.00000000E-01
  8.00000000E-01  1.50000000E+00  1.50000000E+00  8.00000000E-01  8.00000000E-01
  1.50000000E+00  1.50000000E+00  8.00000000E-01  8.00000000E-01  1.50000000E+00
  1.50000000E+00  8.00000000E-01  8.00000000E-01  1.50000000E+00  1.50000000E+00
  8.00000000E-01  8.00000000E-01  1.50000000E+00  1.50000000E+00  8.00000000E-01
  8.00000000E-01  1.50000000E+00  1.50000000E+00  8.00000000E-01  8.00000000E-01
  1.50000000E+00  1.50000000E+00  8.00000000E-01  8.00000000E-01  1.50000000E+00
  1.50000000E+00  8.00000000E-01  8.00000000E-01  1.50000000E+00  1.50000000E+00
  8.00000000E-01  8.00000000E-01  1.50000000E+00  1.50000000E+00  8.00000000E-01
  8.00000000E-01  1.50000000E+00  1.50000000E+00  8.00000000E-01  8.00000000E-01
  1.50000000E+00  1.50000000E+00  8.00000000E-01  8.00000000E-01  1.50000000E+00
  1.50000000E+00  8.00000000E-01  8.00000000E-01  1.50000000E+00  1.50000000E+00
  8.00000000E-01  8.00000000E-01  1.50000000E+00  1.50000000E+00  8.00000000E-01
  8.00000000E-01  1.50000000E+00  1.50000000E+00  8.00000000E-01  8.00000000E-01
  1.50000000E+00  1.50000000E+00  8.00000000E-01  8.00000000E-01  1.50000000E+00
  1.50000000E+00  8.00000000E-01  8.00000000E-01  1.50000000E+00  1.50000000E+00
  8.00000000E-01  8.00000000E-01  1.50000000E+00  1.50000000E+00  8.00000000E-01
  8.00000000E-01  1.50000000E+00  1.50000000E+00  8.00000000E-01  8.00000000E-01
  1.50000000E+00  1.50000000E+00  8.00000000E-01  8.00000000E-01  1.50000000E+00
  1.50000000E+00  8.00000000E-01  8.00000000E-01  1.50000000E+00  1.50000000E+00
  8.00000000E-01  8.00000000E-01  1.50000000E+00  1.50000000E+00  8.00000000E-01
  8.00000000E-01  1.50000000E+00  1.50000000E+00  8.00000000E-01  8.00000000E-01
  1.50000000E+00  1.50000000E+00  8.00000000E-01  8.00000000E-01  1.50000000E+00
  1.50000000E+00  8.00000000E-01  8.00000000E-01  1.50000000E+00  1.50000000E+00
  8.00000000E-01  8.00000000E-01  1.50000000E+00  1.50000000E+00  8.00000000E-01
  8.00000000E-01  1.50000000E+00  1.50000000E+00  8.00000000E-01  8.00000000E-01
  1.50000000E+00  1.50000000E+00  8.00000000E-01  8.00000000E-01  1.50000000E+00
  1.50000000E+00  8.00000000E-01  8.00000000E-01  1.50000000E+00  1.50000000E+00
  8.00000000E-01  8.00000000E-01  1.50000000E+00  1.50000000E+00  8.00000000E-01
  8.00000000E-01  1.50000000E+00  1.50000000E+00  8.00000000E-01  8.00000000E-01
  1.50000000E+00  1.50000000E+00  8.00000000E-01  8.00000000E-01  1.50000000E+00
  1.50000000E+00  8.00000000E-01  8.00000000E-01  1.50000000E+00  1.50000000E+00
  8.00000000E-01  8.00000000E-01  1.50000000E+00  1.50000000E+00  8.00000000E-01
  8.00000000E-01  1.50000000E+00  1.50000000E+00  8.00000000E-01  8.00000000E-01
  1.50000000E+00  1.50000000E+00  8.00000000E-01  8.00000000E-01  1.50000000E+00
  1.50000000E+00  8.00000000E-01  8.00000000E-01  1.50000000E+00  1.50000000E+00
  8.00000000E-01  8.00000000E-01  1.50000000E+00  1.50000000E+00  8.00000000E-01
  8.00000000E-01  1.50000000E+00  1.50000000E+00  8.00000000E-01  8.00000000E-01
  1.50000000E+00  1.50000000E+00  8.00000000E-01  8.00000000E-01  1.50000000E+00
  1.50000000E+00  8.00000000E-01  8.00000000E-01  1.50000000E+00  1.50000000E+00
  8.00000000E-01  8.00000000E-01  1.50000000E+00  1.50000000E+00  8.00000000E-01
  8.00000000E-01  1.50000000E+00  1.50000000E+00  8.00000000E-01  8.00000000E-01
  1.50000000E+00  1.50000000E+00  8.00000000E-01  8.00000000E-01  1.50000000E+00
  1.50000000E+00  8.00000000E-01  8.00000000E-01  1.50000000E+00  1.50000000E+00
  8.00000000E-01  8.00000000E-01  1.50000000E+00  1.50000000E+00  8.00000000E-01
  8.00000000E-01  1.50000000E+00  1.50000000E+00  8.00000000E-01  8.00000000E-01
  1.50000000E+00  1.50000000E+00  8.00000000E-01  8.00000000E-01  1.50000000E+00
  1.50000000E+00  8.00000000E-01  8.00000000E-01  1.50000000E+00  1.50000000E+00
  8.00000000E-01  8.00000000E-01  1.50000000E+00  1.50000000E+00  8.00000000E-01
  8.00000000E-01  1.50000000E+00  1.50000000E+00  8.00000000E-01  8.00000000E-01
  1.50000000E+00  1.50000000E+00  8.00000000E-01  8.00000000E-01  1.50000000E+00
  1.50000000E+00  8.00000000E-01  8.00000000E-01  1.50000000E+00  1.50000000E+00
  8.00000000E-01  8.00000000E-01  1.50000000E+00  1.50000000E+00  8.00000000E-01
  8.00000000E-01  1.50000000E+00  1.50000000E+00  8.00000000E-01  8.00000000E-01
  1.50000000E+00  1.50000000E+00  8.00000000E-01  8.00000000E-01  1.50000000E+00
  1.50000000E+00  8.00000000E-01  8.00000000E-01  1.50000000E+00  1.50000000E+00
  8.00000000E-01  8.00000000E-01  1.50000000E+00  1.50000000E+00  8.00000000E-01
  8.00000000E-01  1.50000000E+00  1.50000000E+00  8.00000000E-01  8.00000000E-01
  1.50000000E+00  1.50000000E+00  8.00000000E-01  8.00000000E-01  1.50000000E+00
  1.50000000E+00  8.00000000E-01  8.00000000E-01  1.50000000E+00  1.50000000E+00
  8.00000000E-01  8.00000000E-01  1.50000000E+00  1.50000000E+00  8.00000000E-01
  8.00000000E-01  1.50000000E+00  1.50000000E+00  8.00000000E-01  8.00000000E-01
  1.50000000E+00  1.50000000E+00  8.00000000E-01  8.00000000E-01  1.50000000E+00
  1.50000000E+00  8.00000000E-01  8.00000000E-01  1.50000000E+00  1.50000000E+00
  8.00000000E-01  8.00000000E-01  1.50000000E+00  1.50000000E+00  8.00000000E-01
  8.00000000E-01  1.50000000E+00  1.50000000E+00  8.00000000E-01  8.00000000E-01
  1.50000000E+00  1.50000000E+00  8.00000000E-01  8.00000000E-01  1.50000000E+00
  1.50000000E+00  8.00000000E-01  8.00000000E-01  1.50000000E+00  1.50000000E+00
  8.00000000E-01  8.00000000E-01  1.50000000E+00  1.50000000E+00  8.00000000E-01
  8.00000000E-01  1.50000000E+00  1.50000000E+00  8.00000000E-01  8.00000000E-01
  1.50000000E+00  1.50000000E+00  8.00000000E-01  8.00000000E-01  1.50000000E+00
  1.50000000E+00  8.00000000E-01  8.00000000E-01  1.50000000E+00  1.50000000E+00
  8.00000000E-01  8.00000000E-01  1.50000000E+00  1.50000000E+00  8.00000000E-01
  8.00000000E-01  1.50000000E+00  1.50000000E+00  8.00000000E-01  8.00000000E-01
  1.50000000E+00  1.50000000E+00  8.00000000E-01  8.00000000E-01  1.50000000E+00
  1.50000000E+00  8.00000000E-01  8.00000000E-01  1.50000000E+00  1.50000000E+00
  8.00000000E-01  8.00000000E-01  1.50000000E+00  1.50000000E+00  8.00000000E-01
  8.00000000E-01  1.50000000E+00  1.50000000E+00  8.00000000E-01  8.00000000E-01
  1.50000000E+00  1.50000000E+00  8.00000000E-01  8.00000000E-01  1.50000000E+00
  1.50000000E+00  8.00000000E-01  8.00000000E-01  1.50000000E+00  1.50000000E+00
  8.00000000E-01  8.00000000E-01  1.50000000E+00  1.50000000E+00  8.00000000E-01
  8.00000000E-01  1.50000000E+00  1.50000000E+00  8.00000000E-01  8.00000000E-01
  1.50000000E+00  1.50000000E+00  8.00000000E-01  8.00000000E-01  1.50000000E+00
  1.50000000E+00  8.00000000E-01  8.00000000E-01  1.50000000E+00  1.50000000E+00
  8.00000000E-01  8.00000000E-01  1.50000000E+00  1.50000000E+00  8.00000000E-01
  8.00000000E-01  1.50000000E+00  1.50000000E+00  8.00000000E-01  8.00000000E-01
  1.50000000E+00  1.50000000E+00  8.00000000E-01  8.00000000E-01  1.50000000E+00
  1.50000000E+00  8.00000000E-01  8.00000000E-01  1.50000000E+00  1.50000000E+00
  8.00000000E-01  8.00000000E-01  1.50000000E+00  1.50000000E+00  8.00000000E-01
  8.00000000E-01  1.50000000E+00  1.50000000E+00  8.00000000E-01  8.00000000E-01
  1.50000000E+00  1.50000000E+00  8.00000000E-01  8.00000000E-01  1.50000000E+00
  1.50000000E+00  8.00000000E-01  8.00000000E-01  1.50000000E+00  1.50000000E+00
  8.00000000E-01  8.00000000E-01  1.50000000E+00  1.50000000E+00  8.00000000E-01
  8.00000000E-01  1.50000000E+00  1.50000000E+00  8.00000000E-01  8.00000000E-01
  1.50000000E+00  1.50000000E+00  8.00000000E-01  8.00000000E-01  1.50000000E+00
  1.50000000E+00  8.00000000E-01  8.00000000E-01  1.50000000E+00  1.50000000E+00
  8.00000000E-01  8.00000000E-01  1.50000000E+00  1.50000000E+00  8.00000000E-01
  8.00000000E-01  1.50000000E+00  1.50000000E+00  8.00000000E-01  8.00000000E-01
  1.50000000E+00  1.50000000E+00  8.00000000E-01  8.00000000E-01  1.50000000E+00
  1.50000000E+00  8.00000000E-01  8.00000000E-01  1.50000000E+00  1.50000000E+00
  8.00000000E-01  8.00000000E-01  1.50000000E+00  1.50000000E+00  8.00000000E-01
  8.00000000E-01  1.50000000E+00  1.50000000E+00  8.00000000E-01  8.00000000E-01
  1.50000000E+00  1.50000000E+00  8.00000000E-01  8.00000000E-01  1.50000000E+00
  1.50000000E+00  8.00000000E-01  8.00000000E-01  1.50000000E+00  1.50000000E+00
  8.00000000E-01  8.00000000E-01  1.50000000E+00  1.50000000E+00  8.00000000E-01
  8.00000000E-01  1.50000000E+00  1.50000000E+00  8.00000000E-01  8.00000000E-01
  1.50000000E+00  1.50000000E+00  8.00000000E-01  8.00000000E-01  1.50000000E+00
  1.50000000E+00  8.00000000E-01  8.00000000E-01  1.50000000E+00  1.50000000E+00
  8.00000000E-01  8.00000000E-01  1.50000000E+00  1.50000000E+00  8.00000000E-01
  8.00000000E-01  1.50000000E+00  1.50000000E+00  8.00000000E-01  8.00000000E-01
  1.50000000E+00  1.50000000E+00  8.00000000E-01  8.00000000E-01  1.50000000E+00
  1.50000000E+00  8.00000000E-01  8.00000000E-01  1.50000000E+00  1.50000000E+00
  8.00000000E-01  8.00000000E-01  1.50000000E+00  1.50000000E+00  8.00000000E-01
  8.00000000E-01  1.50000000E+00  1.50000000E+00  8.00000000E-01  8.00000000E-01
  1.50000000E+00  1.50000000E+00  8.00000000E-01  8.00000000E-01  1.50000000E+00
  1.50000000E+00  8.00000000E-01  8.00000000E-01  1.50000000E+00  1.50000000E+00
  8.00000000E-01  8.00000000E-01  1.50000000E+00  1.50000000E+00  8.00000000E-01
  8.00000000E-01  1.50000000E+00  1.50000000E+00  8.00000000E-01  8.00000000E-01
  1.50000000E+00  1.50000000E+00  8.00000000E-01  8.00000000E-01  1.50000000E+00
  1.50000000E+00  8.00000000E-01  8.00000000E-01  1.50000000E+00  1.50000000E+00
  8.00000000E-01  8.00000000E-01  1.50000000E+00  1.50000000E+00  8.00000000E-01
  8.00000000E-01  1.50000000E+00  1.50000000E+00  8.00000000E-01  8.00000000E-01
  1.50000000E+00  1.50000000E+00  8.00000000E-01  8.00000000E-01  1.50000000E+00
  1.50000000E+00  8.00000000E-01  8.00000000E-01  1.50000000E+00  1.50000000E+00
  8.00000000E-01  8.00000000E-01  1.50000000E+00  1.50000000E+00  8.00000000E-01
  8.00000000E-01  1.50000000E+00  1.50000000E+00  8.00000000E-01  8.00000000E-01
  1.50000000E+00  1.50000000E+00  8.00000000E-01  8.00000000E-01  1.50000000E+00
  1.50000000E+00  8.00000000E-01  8.00000000E-01  1.50000000E+00  1.50000000E+00
  8.00000000E-01  8.00000000E-01  1.50000000E+00  1.50000000E+00  8.00000000E-01
  8.00000000E-01  1.50000000E+00  1.50000000E+00  8.00000000E-01  8.00000000E-01
  1.50000000E+00  1.50000000E+00  8.00000000E-01  8.00000000E-01  1.50000000E+00
  1.50000000E+00  8.00000000E-01  8.00000000E-01  1.50000000E+00  1.50000000E+00
  8.00000000E-01  8.00000000E-01  1.50000000E+00  1.50000000E+00  8.00000000E-01
  8.00000000E-01  1.50000000E+00  1.50000000E+00  8.00000000E-01  8.00000000E-01
  1.50000000E+00  1.50000000E+00  8.00000000E-01  8.00000000E-01  1.50000000E+00
  1.50000000E+00  8.00000000E-01  8.00000000E-01  1.50000000E+00  1.50000000E+00
  8.00000000E-01  8.00000000E-01  1.50000000E+00  1.50000000E+00  8.00000000E-01
  8.00000000E-01  1.50000000E+00  1.50000000E+00  8.00000000E-01  8.00000000E-01
  1.50000000E+00  1.50000000E+00  8.00000000E-01  8.00000000E-01  1.50000000E+00
  1.50000000E+00  8.00000000E-01  8.00000000E-01  1.50000000E+00  1.50000000E+00
  8.00000000E-01  8.00000000E-01  1.50000000E+00  1.50000000E+00  8.00000000E-01
  8.00000000E-01  1.50000000E+00  1.50000000E+00  8.00000000E-01  8.00000000E-01
  1.50000000E+00  1.50000000E+00  8.00000000E-01  8.00000000E-01  1.50000000E+00
  1.50000000E+00  8.00000000E-01  8.00000000E-01  1.50000000E+00  1.50000000E+00
  8.00000000E-01  8.00000000E-01  1.50000000E+00  1.50000000E+00  8.00000000E-01
  8.00000000E-01  1.50000000E+00  1.50000000E+00  8.00000000E-01  8.00000000E-01
  1.50000000E+00  1.50000000E+00  8.00000000E-01  8.00000000E-01  1.50000000E+00
  1.50000000E+00  8.00000000E-01  8.00000000E-01  1.50000000E+00  1.50000000E+00
  8.00000000E-01  8.00000000E-01  1.50000000E+00  1.50000000E+00  8.00000000E-01
  8.00000000E-01  1.50000000E+00  1.50000000E+00  8.00000000E-01  8.00000000E-01
  1.50000000E+00  1.50000000E+00  8.00000000E-01  8.00000000E-01  1.50000000E+00
  1.50000000E+00  8.00000000E-01  8.00000000E-01  1.50000000E+00  1.50000000E+00
  8.00000000E-01  8.00000000E-01  1.50000000E+00  1.50000000E+00  8.00000000E-01
  8.00000000E-01  1.50000000E+00  1.50000000E+00  8.00000000E-01  8.00000000E-01
  1.50000000E+00  1.50000000E+00  8.00000000E-01  8.00000000E-01  1.50000000E+00
  1.50000000E+00  8.00000000E-01  8.00000000E-01  1.50000000E+00  1.50000000E+00
  8.00000000E-01  8.00000000E-01  1.50000000E+00  1.50000000E+00  8.00000000E-01
  8.00000000E-01  1.50000000E+00  1.50000000E+00  8.00000000E-01  8.00000000E-01
  1.50000000E+00  1.50000000E+00  8.00000000E-01  8.00000000E-01  1.50000000E+00
  1.50000000E+00  8.00000000E-01  8.00000000E-01  1.50000000E+00  1.50000000E+00
  8.00000000E-01  8.00000000E-01  1.50000000E+00  1.50000000E+00  8.00000000E-01
  8.00000000E-01  1.50000000E+00  1.50000000E+00  8.00000000E-01  8.00000000E-01
  1.50000000E+00  1.50000000E+00  8.00000000E-01  8.00000000E-01  1.50000000E+00
  1.50000000E+00  8.00000000E-01  8.00000000E-01  1.50000000E+00  1.50000000E+00
  8.00000000E-01  8.00000000E-01  1.50000000E+00  1.50000000E+00  8.00000000E-01
  8.00000000E-01  1.50000000E+00  1.50000000E+00  8.00000000E-01  8.00000000E-01
  1.50000000E+00  1.50000000E+00  8.00000000E-01  8.00000000E-01  1.50000000E+00
  1.50000000E+00  8.00000000E-01  8.00000000E-01  1.50000000E+00  1.50000000E+00
  8.00000000E-01  8.00000000E-01  1.50000000E+00  1.50000000E+00  8.00000000E-01
  8.00000000E-01  1.50000000E+00  1.50000000E+00  8.00000000E-01  8.00000000E-01
  1.50000000E+00  1.50000000E+00  8.00000000E-01  8.00000000E-01  1.50000000E+00
  1.50000000E+00  8.00000000E-01  8.00000000E-01  1.50000000E+00  1.50000000E+00
  8.00000000E-01  8.00000000E-01  1.50000000E+00  1.50000000E+00  8.00000000E-01
  8.00000000E-01  1.50000000E+00  1.50000000E+00  8.00000000E-01  8.00000000E-01
  1.50000000E+00  1.50000000E+00  8.00000000E-01  8.00000000E-01  1.50000000E+00
  1.50000000E+00  8.00000000E-01  8.00000000E-01  1.50000000E+00  1.50000000E+00
  8.00000000E-01  8.00000000E-01  1.50000000E+00  1.50000000E+00  8.00000000E-01
  8.00000000E-01  1.50000000E+00  1.50000000E+00  8.00000000E-01  8.00000000E-01
  1.50000000E+00  1.50000000E+00  8.00000000E-01  8.00000000E-01  1.50000000E+00
  1.50000000E+00  8.00000000E-01  8.00000000E-01  1.50000000E+00  1.50000000E+00
  8.00000000E-01  8.00000000E-01  1.50000000E+00  1.50000000E+00  8.00000000E-01
  8.00000000E-01  1.50000000E+00  1.50000000E+00  8.00000000E-01  8.00000000E-01
  1.50000000E+00  1.50000000E+00  8.00000000E-01  8.00000000E-01  1.50000000E+00
  1.50000000E+00  8.00000000E-01  8.00000000E-01  1.50000000E+00  1.50000000E+00
  8.00000000E-01  8.00000000E-01  1.50000000E+00  1.50000000E+00  8.00000000E-01
  8.00000000E-01  1.50000000E+00  1.50000000E+00  8.00000000E-01  8.00000000E-01
  1.50000000E+00  1.50000000E+00  8.00000000E-01  8.00000000E-01  1.50000000E+00
  1.50000000E+00  8.00000000E-01  8.00000000E-01  1.50000000E+00  1.50000000E+00
  8.00000000E-01  8.00000000E-01  1.50000000E+00  1.50000000E+00  8.00000000E-01
  8.00000000E-01  1.50000000E+00  1.50000000E+00  8.00000000E-01  8.00000000E-01
  1.50000000E+00  1.50000000E+00  8.00000000E-01  8.00000000E-01  1.50000000E+00
  1.50000000E+00  8.00000000E-01  8.00000000E-01  1.50000000E+00  1.50000000E+00
  8.00000000E-01  8.00000000E-01  1.50000000E+00  1.50000000E+00  8.00000000E-01
  8.00000000E-01  1.50000000E+00  1.50000000E+00  8.00000000E-01  8.00000000E-01
  1.50000000E+00  1.50000000E+00  8.00000000E-01  8.00000000E-01  1.50000000E+00
  1.50000000E+00  8.00000000E-01  8.00000000E-01  1.50000000E+00  1.50000000E+00
  8.00000000E-01  8.00000000E-01  1.50000000E+00  1.50000000E+00  8.00000000E-01
  8.00000000E-01  1.50000000E+00  1.50000000E+00  8.00000000E-01  8.00000000E-01
  1.50000000E+00  1.50000000E+00  8.00000000E-01  8.00000000E-01  1.50000000E+00
  1.50000000E+00  8.00000000E-01  8.00000000E-01  1.50000000E+00  1.50000000E+00
  8.00000000E-01  8.00000000E-01  1.50000000E+00  1.50000000E+00  8.00000000E-01
  8.00000000E-01  1.50000000E+00  1.50000000E+00  8.00000000E-01  8.00000000E-01
  1.50000000E+00  1.50000000E+00  8.00000000E-01  8.00000000E-01  1.50000000E+00
  1.50000000E+00  8.00000000E-01  8.00000000E-01  1.50000000E+00  1.50000000E+00
  8.00000000E-01  8.00000000E-01  1.50000000E+00  1.50000000E+00  8.00000000E-01
  8.00000000E-01  1.50000000E+00  1.50000000E+00  8.00000000E-01  8.00000000E-01
  1.50000000E+00  1.50000000E+00  8.00000000E-01  8.00000000E-01  1.50000000E+00
  1.50000000E+00  8.00000000E-01  8.00000000E-01  1.50000000E+00  1.50000000E+00
  8.00000000E-01  8.00000000E-01  1.50000000E+00  1.50000000E+00  8.00000000E-01
  8.00000000E-01  1.50000000E+00  1.50000000E+00  8.00000000E-01  8.00000000E-01
  1.50000000E+00  1.50000000E+00  8.00000000E-01  8.00000000E-01  1.50000000E+00
  1.50000000E+00  8.00000000E-01  8.00000000E-01  1.50000000E+00  1.50000000E+00
  8.00000000E-01  8.00000000E-01  1.50000000E+00  1.50000000E+00  8.00000000E-01
  8.00000000E-01  1.50000000E+00  1.50000000E+00  8.00000000E-01  8.00000000E-01
  1.50000000E+00  1.50000000E+00  8.00000000E-01  8.00000000E-01  1.50000000E+00
  1.50000000E+00  8.00000000E-01  8.00000000E-01  1.50000000E+00  1.50000000E+00
  8.00000000E-01  8.00000000E-01  1.50000000E+00  1.50000000E+00  8.00000000E-01
  8.00000000E-01  1.50000000E+00  1.50000000E+00  8.00000000E-01  8.00000000E-01
  1.50000000E+00  1.50000000E+00  8.00000000E-01  8.00000000E-01  1.50000000E+00
  1.50000000E+00  8.00000000E-01  8.00000000E-01  1.50000000E+00  1.50000000E+00
  8.00000000E-01  8.00000000E-01  1.50000000E+00  1.50000000E+00  8.00000000E-01
  8.00000000E-01  1.50000000E+00  1.50000000E+00  8.00000000E-01  8.00000000E-01
  1.50000000E+00  1.50000000E+00  8.00000000E-01  8.00000000E-01  1.50000000E+00
  1.50000000E+00  8.00000000E-01  8.00000000E-01  1.50000000E+00
%FLAG SCREEN                                                                    
%FORMAT(5E16.8)                                                                 
  8.50000000E-01  7.20000000E-01  8.50000000E-01  8.50000000E-01  7.20000000E-01
  8.50000000E-01  7.90000000E-01  8.50000000E-01  7.20000000E-01  8.50000000E-01
  7.20000000E-01  8.50000000E-01  8.50000000E-01  7.20000000E-01  7.20000000E-01
  8.50000000E-01  7.90000000E-01  8.50000000E-01  7.20000000E-01  7.20000000E-01
  8.50000000E-01  7.20000000E-01  8.50000000E-01  7.20000000E-01  8.50000000E-01
  7.20000000E-01  8.50000000E-01  7.20000000E-01  7.20000000E-01  8.50000000E-01
  7.90000000E-01  8.50000000E-01  7.20000000E-01  8.50000000E-01  7.20000000E-01
  8.50000000E-01  7.20000000E-01  8.50000000E-01  8.50000000E-01  8.50000000E-01
  7.20000000E-01  8.50000000E-01  8.50000000E-01  8.50000000E-01  7.20000000E-01
  8.50000000E-01  7.90000000E-01  8.50000000E-01  7.20000000E-01  8.50000000E-01
  7.20000000E-01  8.50000000E-01  7.20000000E-01  8.50000000E-01  8.50000000E-01
  8.50000000E-01  8.50000000E-01  8.50000000E-01  7.20000000E-01  8.50000000E-01
  7.90000000E-01  8.50000000E-01  7.20000000E-01  8.50000000E-01  7.20000000E-01
  8.50000000E-01  8.50000000E-01  7.20000000E-01  7.90000000E-01  8.50000000E-01
  7.20000000E-01  8.50000000E-01  7.90000000E-01  7.20000000E-01  8.50000000E-01
  7.20000000E-01  8.50000000E-01  7.90000000E-01  8.50000000E-01  7.20000000E-01
  8.50000000E-01  7.20000000E-01  8.50000000E-01  8.50000000E-01  7.20000000E-01
  8.50000000E-01  8.50000000E-01  7.20000000E-01  8.50000000E-01  8.50000000E-01
  7.90000000E-01  8.50000000E-01  7.20000000E-01  7.90000000E-01  8.50000000E-01
  8.50000000E-01  7.90000000E-01  8.50000000E-01  8.50000000E-01  7.20000000E-01
  8.50000000E-01  7.20000000E-01  8.50000000E-01  7.20000000E-01  8.00000000E-01
  8.00000000E-01  8.00000000E-01  8.00000000E-01  7.20000000E-01  7.20000000E-01
  8.00000000E-01  7.90000000E-01  8.50000000E-01  8.50000000E-01  8.50000000E-01
  8.50000000E-01  8.50000000E-01  8.50000000E-01  8.50000000E-01  8.50000000E-01
  8.50000000E-01  8.50000000E-01  8.50000000E-01  8.50000000E-01  8.50000000E-01
  8.50000000E-01  7.90000000E-01  8.50000000E-01  7.20000000E-01  8.50000000E-01
  7.20000000E-01  8.50000000E-01  8.50000000E-01  8.50000000E-01  7.20000000E-01
  8.50000000E-01  7.90000000E-01  8.50000000E-01  7.20000000E-01  8.50000000E-01
  8.50000000E-01  7.20000000E-01  8.50000000E-01  7.90000000E-01  8.50000000E-01
  7.20000000E-01  8.50000000E-01  7.20000000E-01  8.50000000E-01  8.50000000E-01
  7.20000000E-01  8.50000000E-01  7.20000000E-01  8.50000000E-01  8.50000000E-01
  8.50000000E-01  7.20000000E-01  8.50000000E-01  8.50000000E-01  8.50000000E-01
  7.20000000E-01  8.50000000E-01  7.20000000E-01  8.50000000E-01  7.20000000E-01
  8.00000000E-01  8.00000000E-01  8.00000000E-01  7.90000000E-01  8.50000000E-01
  8.50000000E-01  8.50000000E-01  8.50000000E-01  8.50000000E-01  8.50000000E-01
  8.50000000E-01  8.50000000E-01  7.90000000E-01  8.50000000E-01  7.20000000E-01
  8.50000000E-01  7.20000000E-01  8.50000000E-01  8.50000000E-01  8.50000000E-01
  8.50000000E-01  7.20000000E-01  8.50000000E-01  7.90000000E-01  8.50000000E-01
  7.20000000E-01  8.50000000E-01  7.20000000E-01  8.50000000E-01  8.50000000E-01
  7.20000000E-01  8.50000000E-01  8.50000000E-01  7.20000000E-01  8.50000000E-01
  8.50000000E-01  7.90000000E-01  8.50000000E-01  7.20000000E-01  7.90000000E-01
  8.50000000E-01  8.50000000E-01  7.90000000E-01  8.50000000E-01  8.50000000E-01
  7.20000000E-01  8.50000000E-01  7.90000000E-01  8.50000000E-01  7.20000000E-01
  8.50000000E-01  7.20000000E-01  8.50000000E-01  8.50000000E-01  8.50000000E-01
  8.50000000E-01  7.20000000E-01  8.50000000E-01  7.90000000E-01  8.50000000E-01
  7.20000000E-01  8.50000000E-01  8.50000000E-01  7.20000000E-01  8.50000000E-01
  7.90000000E-01  8.50000000E-01  7.20000000E-01  8.50000000E-01  8.50000000E-01
  7.20000000E-01  8.50000000E-01  7.90000000E-01  8.50000000E-01  7.20000000E-01
  8.50000000E-01  7.20000000E-01  8.50000000E-01  7.20000000E-01  8.50000000E-01
  8.50000000E-01  8.50000000E-01  7.20000000E-01  8.50000000E-01  8.50000000E-01
  8.50000000E-01  7.20000000E-01  8.50000000E-01  7.90000000E-01  8.50000000E-01
  7.20000000E-01  8.50000000E-01  7.20000000E-01  8.50000000E-01  7.20000000E-01
  8.50000000E-01  8.50000000E-01  8.50000000E-01  7.20000000E-01  8.50000000E-01
  8.50000000E-01  8.50000000E-01  7.20000000E-01  8.50000000E-01  7.90000000E-01
  8.50000000E-01  7.20000000E-01  8.50000000E-01  7.20000000E-01  8.50000000E-01
  8.50000000E-01  7.20000000E-01  8.50000000E-01  8.50000000E-01  7.20000000E-01
  8.50000000E-01  8.50000000E-01  7.20000000E-01  8.50000000E-01  8.50000000E-01
  7.90000000E-01  8.50000000E-01  8.50000000E-01  8.50000000E-01  7.20000000E-01
  8.50000000E-01  7.90000000E-01  8.50000000E-01  7.20000000E-01  8.50000000E-01
  7.20000000E-01  8.50000000E-01  8.50000000E-01  7.20000000E-01  8.50000000E-01
  7.90000000E-01  8.50000000E-01  8.50000000E-01  7.20000000E-01  8.50000000E-01
  7.90000000E-01  8.50000000E-01  7.20000000E-01  8.50000000E-01  7.20000000E-01
  8.50000000E-01  8.50000000E-01  7.20000000E-01  8.50000000E-01  7.90000000E-01
  8.50000000E-01  8.50000000E-01  7.20000000E-01  8.50000000E-01  7.90000000E-01
  8.50000000E-01  7.20000000E-01  8.50000000E-01  7.20000000E-01  8.50000000E-01
  8.50000000E-01  7.20000000E-01  7.20000000E-01  8.50000000E-01  7.20000000E-01
  8.50000000E-01  7.20000000E-01  8.50000000E-01  7.20000000E-01  8.50000000E-01
  7.20000000E-01  8.50000000E-01  7.20000000E-01  8.50000000E-01  7.90000000E-01
  8.50000000E-01  7.20000000E-01  8.50000000E-01  7.20000000E-01  8.50000000E-01
  7.20000000E-01  8.50000000E-01  8.50000000E-01  8.50000000E-01  7.20000000E-01
  8.50000000E-01  8.50000000E-01  8.50000000E-01  7.20000000E-01  8.50000000E-01
  7.90000000E-01  7.20000000E-01  8.50000000E-01  8.50000000E-01  7.20000000E-01
  8.50000000E-01  8.50000000E-01  7.20000000E-01  8.50000000E-01  8.50000000E-01
  7.20000000E-01  8.50000000E-01  7.20000000E-01  8.50000000E-01  7.90000000E-01
  8.50000000E-01  7.20000000E-01  8.50000000E-01  7.20000000E-01  8.50000000E-01
  7.20000000E-01  8.50000000E-01  8.50000000E-01  8.50000000E-01  8.50000000E-01
  8.50000000E-01  7.20000000E-01  8.50000000E-01  7.90000000E-01  8.50000000E-01
  7.20000000E-01  8.50000000E-01  7.20000000E-01  8.50000000E-01  8.50000000E-01
  7.20000000E-01  8.50000000E-01  8.50000000E-01  7.20000000E-01  8.50000000E-01
  7.90000000E-01  8.50000000E-01  7.20000000E-01  8.50000000E-01  7.20000000E-01
  8.50000000E-01  7.20000000E-01  8.50000000E-01  8.50000000E-01  8.50000000E-01
  7.20000000E-01  8.50000000E-01  8.50000000E-01  8.50000000E-01  7.20000000E-01
  8.50000000E-01  7.90000000E-01  8.50000000E-01  7.20000000E-01  8.50000000E-01
  8.50000000E-01  7.20000000E-01  8.50000000E-01  7.90000000E-01  7.20000000E-01
  8.50000000E-01  8.50000000E-01  7.20000000E-01  8.50000000E-01  8.50000000E-01
  7.20000000E-01  8.50000000E-01  8.50000000E-01  7.20000000E-01  8.50000000E-01
  7.20000000E-01  8.50000000E-01  7.90000000E-01  8.50000000E-01  7.20000000E-01
  8.50000000E-01  7.20000000E-01  8.50000000E-01  8.50000000E-01  7.20000000E-01
  7.20000000E-01  8.50000000E-01  7.20000000E-01  8.50000000E-01  7.20000000E-01
  8.50000000E-01  7.20000000E-01  8.50000000E-01  7.20000000E-01  8.50000000E-01
  7.20000000E-01  8.50000000E-01  7.90000000E-01  8.50000000E-01  7.20000000E-01
  8.50000000E-01  7.20000000E-01  8.50000000E-01  8.50000000E-01  8.50000000E-01
  7.20000000E-01  8.50000000E-01  7.90000000E-01  8.50000000E-01  7.20000000E-01
  8.50000000E-01  7.20000000E-01  8.50000000E-01  8.50000000E-01  7.20000000E-01
  7.20000000E-01  8.50000000E-01  7.20000000E-01  8.50000000E-01  7.20000000E-01
  8.50000000E-01  7.20000000E-01  8.50000000E-01  7.20000000E-01  8.50000000E-01
  7.20000000E-01  8.50000000E-01  7.90000000E-01  8.50000000E-01  8.50000000E-01
  8.00000000E-01  8.00000000E-01  8.00000000E-01  8.00000000E-01  8.00000000E-01
  8.00000000E-01  8.00000000E-01  8.00000000E-01  8.00000000E-01  8.00000000E-01
  8.00000000E-01  8.00000000E-01  8.00000000E-01  8.00000000E-01  8.00000000E-01
  8.00000000E-01  8.00000000E-01  8.00000000E-01  8.00000000E-01  8.00000000E-01
  8.00000000E-01  8.00000000E-01  8.00000000E-01  8.00000000E-01  8.00000000E-01
  8.00000000E-01  8.00000000E-01  8.00000000E-01  8.00000000E-01  8.00000000E-01
  8.00000000E-01  8.00000000E-01  8.00000000E-01  8.00000000E-01  8.00000000E-01
  8.00000000E-01  8.00000000E-01  8.00000000E-01  8.00000000E-01  8.00000000E-01
  8.00000000E-01  8.00000000E-01  8.00000000E-01  8.00000000E-01  8.50000000E-01
  8.50000000E-01  8.50000000E-01  8.00000000E-01  8.50000000E-01  8.50000000E-01
  8.50000000E-01  8.00000000E-01  8.50000000E-01  8.50000000E-01  8.50000000E-01
  8.00000000E-01  8.50000000E-01  8.50000000E-01  8.50000000E-01  8.00000000E-01
  8.50000000E-01  8.50000000E-01  8.50000000E-01  8.00000000E-01  8.50000000E-01
  8.50000000E-01  8.50000000E-01  8.00000000E-01  8.50000000E-01  8.50000000E-01
  8.50000000E-01  8.00000000E-01  8.50000000E-01  8.50000000E-01  8.50000000E-01
  8.00000000E-01  8.50000000E-01  8.50000000E-01  8.50000000E-01  8.00000000E-01
  8.50000000E-01  8.50000000E-01  8.50000000E-01  8.00000000E-01  8.50000000E-01
  8.50000000E-01  8.50000000E-01  8.00000000E-01  8.50000000E-01  8.50000000E-01
  8.50000000E-01  8.00000000E-01  8.50000000E-01  8.50000000E-01  8.50000000E-01
  8.00000000E-01  8.50000000E-01  8.50000000E-01  8.50000000E-01  8.00000000E-01
  8.50000000E-01  8.50000000E-01  8.50000000E-01  8.00000000E-01  8.50000000E-01
  8.50000000E-01  8.50000000E-01  8.00000000E-01  8.50000000E-01  8.50000000E-01
  8.50000000E-01  8.00000000E-01  8.50000000E-01  8.50000000E-01  8.50000000E-01
  8.00000000E-01  8.50000000E-01  8.50000000E-01  8.50000000E-01  8.00000000E-01
  8.50000000E-01  8.50000000E-01  8.50000000E-01  8.00000000E-01  8.50000000E-01
  8.50000000E-01  8.50000000E-01  8.00000000E-01  8.50000000E-01  8.50000000E-01
  8.50000000E-01  8.00000000E-01  8.50000000E-01  8.50000000E-01  8.50000000E-01
  8.00000000E-01  8.50000000E-01  8.50000000E-01  8.50000000E-01  8.00000000E-01
  8.50000000E-01  8.50000000E-01  8.50000000E-01  8.00000000E-01  8.50000000E-01
  8.50000000E-01  8.50000000E-01  8.00000000E-01  8.50000000E-01  8.50000000E-01
  8.50000000E-01  8.00000000E-01  8.50000000E-01  8.50000000E-01  8.50000000E-01
  8.00000000E-01  8.50000000E-01  8.50000000E-01  8.50000000E-01  8.00000000E-01
  8.50000000E-01  8.50000000E-01  8.50000000E-01  8.00000000E-01  8.50000000E-01
  8.50000000E-01  8.50000000E-01  8.00000000E-01  8.50000000E-01  8.50000000E-01
  8.50000000E-01  8.00000000E-01  8.50000000E-01  8.50000000E-01  8.50000000E-01
  8.00000000E-01  8.50000000E-01  8.50000000E-01  8.50000000E-01  8.00000000E-01
  8.50000000E-01  8.50000000E-01  8.50000000E-01  8.00000000E-01  8.50000000E-01
  8.50000000E-01  8.50000000E-01  8.00000000E-01  8.50000000E-01  8.50000000E-01
  8.50000000E-01  8.00000000E-01  8.50000000E-01  8.50000000E-01  8.50000000E-01
  8.00000000E-01  8.50000000E-01  8.50000000E-01  8.50000000E-01  8.00000000E-01
  8.50000000E-01  8.50000000E-01  8.50000000E-01  8.00000000E-01  8.50000000E-01
  8.50000000E-01  8.50000000E-01  8.00000000E-01  8.50000000E-01  8.50000000E-01
  8.50000000E-01  8.00000000E-01  8.50000000E-01  8.50000000E-01  8.50000000E-01
  8.00000000E-01  8.50000000E-01  8.50000000E-01  8.50000000E-01  8.00000000E-01
  8.50000000E-01  8.50000000E-01  8.50000000E-01  8.00000000E-01  8.50000000E-01
  8.50000000E-01  8.50000000E-01  8.00000000E-01  8.50000000E-01  8.50000000E-01
  8.50000000E-01  8.00000000E-01  8.50000000E-01  8.50000000E-01  8.50000000E-01
  8.00000000E-01  8.50000000E-01  8.50000000E-01  8.50000000E-01  8.00000000E-01
  8.50000000E-01  8.50000000E-01  8.50000000E-01  8.00000000E-01  8.50000000E-01
  8.50000000E-01  8.50000000E-01  8.00000000E-01  8.50000000E-01  8.50000000E-01
  8.50000000E-01  8.00000000E-01  8.50000000E-01  8.50000000E-01  8.50000000E-01
  8.00000000E-01  8.50000000E-01  8.50000000E-01  8.50000000E-01  8.00000000E-01
  8.50000000E-01  8.50000000E-01  8.50000000E-01  8.00000000E-01  8.50000000E-01
  8.50000000E-01  8.50000000E-01  8.00000000E-01  8.50000000E-01  8.50000000E-01
  8.50000000E-01  8.00000000E-01  8.50000000E-01  8.50000000E-01  8.50000000E-01
  8.00000000E-01  8.50000000E-01  8.50000000E-01  8.50000000E-01  8.00000000E-01
  8.50000000E-01  8.50000000E-01  8.50000000E-01  8.00000000E-01  8.50000000E-01
  8.50000000E-01  8.50000000E-01  8.00000000E-01  8.50000000E-01  8.50000000E-01
  8.50000000E-01  8.00000000E-01  8.50000000E-01  8.50000000E-01  8.50000000E-01
  8.00000000E-01  8.50000000E-01  8.50000000E-01  8.50000000E-01  8.00000000E-01
  8.50000000E-01  8.50000000E-01  8.50000000E-01  8.00000000E-01  8.50000000E-01
  8.50000000E-01  8.50000000E-01  8.00000000E-01  8.50000000E-01  8.50000000E-01
  8.50000000E-01  8.00000000E-01  8.50000000E-01  8.50000000E-01  8.50000000E-01
  8.00000000E-01  8.50000000E-01  8.50000000E-01  8.50000000E-01  8.00000000E-01
  8.50000000E-01  8.50000000E-01  8.50000000E-01  8.00000000E-01  8.50000000E-01
  8.50000000E-01  8.50000000E-01  8.00000000E-01  8.50000000E-01  8.50000000E-01
  8.50000000E-01  8.00000000E-01  8.50000000E-01  8.50000000E-01  8.50000000E-01
  8.00000000E-01  8.50000000E-01  8.50000000E-01  8.50000000E-01  8.00000000E-01
  8.50000000E-01  8.50000000E-01  8.50000000E-01  8.00000000E-01  8.50000000E-01
  8.50000000E-01  8.50000000E-01  8.00000000E-01  8.50000000E-01  8.50000000E-01
  8.50000000E-01  8.00000000E-01  8.50000000E-01  8.50000000E-01  8.50000000E-01
  8.00000000E-01  8.50000000E-01  8.50000000E-01  8.50000000E-01  8.00000000E-01
  8.50000000E-01  8.50000000E-01  8.50000000E-01  8.00000000E-01  8.50000000E-01
  8.50000000E-01  8.50000000E-01  8.00000000E-01  8.50000000E-01  8.50000000E-01
  8.50000000E-01  8.00000000E-01  8.50000000E-01  8.50000000E-01  8.50000000E-01
  8.00000000E-01  8.50000000E-01  8.50000000E-01  8.50000000E-01  8.00000000E-01
  8.50000000E-01  8.50000000E-01  8.50000000E-01  8.00000000E-01  8.50000000E-01
  8.50000000E-01  8.50000000E-01  8.00000000E-01  8.50000000E-01  8.50000000E-01
  8.50000000E-01  8.00000000E-01  8.50000000E-01  8.50000000E-01  8.50000000E-01
  8.00000000E-01  8.50000000E-01  8.50000000E-01  8.50000000E-01  8.00000000E-01
  8.50000000E-01  8.50000000E-01  8.50000000E-01  8.00000000E-01  8.50000000E-01
  8.50000000E-01  8.50000000E-01  8.00000000E-01  8.50000000E-01  8.50000000E-01
  8.50000000E-01  8.00000000E-01  8.50000000E-01  8.50000000E-01  8.50000000E-01
  8.00000000E-01  8.50000000E-01  8.50000000E-01  8.50000000E-01  8.00000000E-01
  8.50000000E-01  8.50000000E-01  8.50000000E-01  8.00000000E-01  8.50000000E-01
  8.50000000E-01  8.50000000E-01  8.00000000E-01  8.50000000E-01  8.50000000E-01
  8.50000000E-01  8.00000000E-01  8.50000000E-01  8.50000000E-01  8.50000000E-01
  8.00000000E-01  8.50000000E-01  8.50000000E-01  8.50000000E-01  8.00000000E-01
  8.50000000E-01  8.50000000E-01  8.50000000E-01  8.00000000E-01  8.50000000E-01
  8.50000000E-01  8.50000000E-01  8.00000000E-01  8.50000000E-01  8.50000000E-01
  8.50000000E-01  8.00000000E-01  8.50000000E-01  8.50000000E-01  8.50000000E-01
  8.00000000E-01  8.50000000E-01  8.50000000E-01  8.50000000E-01  8.00000000E-01
  8.50000000E-01  8.50000000E-01  8.50000000E-01  8.00000000E-01  8.50000000E-01
  8.50000000E-01  8.50000000E-01  8.00000000E-01  8.50000000E-01  8.50000000E-01
  8.50000000E-01  8.00000000E-01  8.50000000E-01  8.50000000E-01  8.50000000E-01
  8.00000000E-01  8.50000000E-01  8.50000000E-01  8.50000000E-01  8.00000000E-01
  8.50000000E-01  8.50000000E-01  8.50000000E-01  8.00000000E-01  8.50000000E-01
  8.50000000E-01  8.50000000E-01  8.00000000E-01  8.50000000E-01  8.50000000E-01
  8.50000000E-01  8.00000000E-01  8.50000000E-01  8.50000000E-01  8.50000000E-01
  8.00000000E-01  8.50000000E-01  8.50000000E-01  8.50000000E-01  8.00000000E-01
  8.50000000E-01  8.50000000E-01  8.50000000E-01  8.00000000E-01  8.50000000E-01
  8.50000000E-01  8.50000000E-01  8.00000000E-01  8.50000000E-01  8.50000000E-01
  8.50000000E-01  8.00000000E-01  8.50000000E-01  8.50000000E-01  8.50000000E-01
  8.00000000E-01  8.50000000E-01  8.50000000E-01  8.50000000E-01  8.00000000E-01
  8.50000000E-01  8.50000000E-01  8.50000000E-01  8.00000000E-01  8.50000000E-01
  8.50000000E-01  8.50000000E-01  8.00000000E-01  8.50000000E-01  8.50000000E-01
  8.50000000E-01  8.00000000E-01  8.50000000E-01  8.50000000E-01  8.50000000E-01
  8.00000000E-01  8.50000000E-01  8.50000000E-01  8.50000000E-01  8.00000000E-01
  8.50000000E-01  8.50000000E-01  8.50000000E-01  8.00000000E-01  8.50000000E-01
  8.50000000E-01  8.50000000E-01  8.00000000E-01  8.50000000E-01  8.50000000E-01
  8.50000000E-01  8.00000000E-01  8.50000000E-01  8.50000000E-01  8.50000000E-01
  8.00000000E-01  8.50000000E-01  8.50000000E-01  8.50000000E-01  8.00000000E-01
  8.50000000E-01  8.50000000E-01  8.50000000E-01  8.00000000E-01  8.50000000E-01
  8.50000000E-01  8.50000000E-01  8.00000000E-01  8.50000000E-01  8.50000000E-01
  8.50000000E-01  8.00000000E-01  8.50000000E-01  8.50000000E-01  8.50000000E-01
  8.00000000E-01  8.50000000E-01  8.50000000E-01  8.50000000E-01  8.00000000E-01
  8.50000000E-01  8.50000000E-01  8.50000000E-01  8.00000000E-01  8.50000000E-01
  8.50000000E-01  8.50000000E-01  8.00000000E-01  8.50000000E-01  8.50000000E-01
  8.50000000E-01  8.00000000E-01  8.50000000E-01  8.50000000E-01  8.50000000E-01
  8.00000000E-01  8.50000000E-01  8.50000000E-01  8.50000000E-01  8.00000000E-01
  8.50000000E-01  8.50000000E-01  8.50000000E-01  8.00000000E-01  8.50000000E-01
  8.50000000E-01  8.50000000E-01  8.00000000E-01  8.50000000E-01  8.50000000E-01
  8.50000000E-01  8.00000000E-01  8.50000000E-01  8.50000000E-01  8.50000000E-01
  8.00000000E-01  8.50000000E-01  8.50000000E-01  8.50000000E-01  8.00000000E-01
  8.50000000E-01  8.50000000E-01  8.50000000E-01  8.00000000E-01  8.50000000E-01
  8.50000000E-01  8.50000000E-01  8.00000000E-01  8.50000000E-01  8.50000000E-01
  8.50000000E-01  8.00000000E-01  8.50000000E-01  8.50000000E-01  8.50000000E-01
  8.00000000E-01  8.50000000E-01  8.50000000E-01  8.50000000E-01  8.00000000E-01
  8.50000000E-01  8.50000000E-01  8.50000000E-01  8.00000000E-01  8.50000000E-01
  8.50000000E-01  8.50000000E-01  8.00000000E-01  8.50000000E-01  8.50000000E-01
  8.50000000E-01  8.00000000E-01  8.50000000E-01  8.50000000E-01  8.50000000E-01
  8.00000000E-01  8.50000000E-01  8.50000000E-01  8.50000000E-01  8.00000000E-01
  8.50000000E-01  8.50000000E-01  8.50000000E-01  8.00000000E-01  8.50000000E-01
  8.50000000E-01  8.50000000E-01  8.00000000E-01  8.50000000E-01  8.50000000E-01
  8.50000000E-01  8.00000000E-01  8.50000000E-01  8.50000000E-01  8.50000000E-01
  8.00000000E-01  8.50000000E-01  8.50000000E-01  8.50000000E-01  8.00000000E-01
  8.50000000E-01  8.50000000E-01  8.50000000E-01  8.00000000E-01  8.50000000E-01
  8.50000000E-01  8.50000000E-01  8.00000000E-01  8.50000000E-01  8.50000000E-01
  8.50000000E-01  8.00000000E-01  8.50000000E-01  8.50000000E-01  8.50000000E-01
  8.00000000E-01  8.50000000E-01  8.50000000E-01  8.50000000E-01  8.00000000E-01
  8.50000000E-01  8.50000000E-01  8.50000000E-01  8.00000000E-01  8.50000000E-01
  8.50000000E-01  8.50000000E-01  8.00000000E-01  8.50000000E-01  8.50000000E-01
  8.50000000E-01  8.00000000E-01  8.50000000E-01  8.50000000E-01  8.50000000E-01
  8.00000000E-01  8.50000000E-01  8.50000000E-01  8.50000000E-01  8.00000000E-01
  8.50000000E-01  8.50000000E-01  8.50000000E-01  8.00000000E-01  8.50000000E-01
  8.50000000E-01  8.50000000E-01  8.00000000E-01  8.50000000E-01  8.50000000E-01
  8.50000000E-01  8.00000000E-01  8.50000000E-01  8.50000000E-01  8.50000000E-01
  8.00000000E-01  8.50000000E-01  8.50000000E-01  8.50000000E-01  8.00000000E-01
  8.50000000E-01  8.50000000E-01  8.50000000E-01  8.00000000E-01  8.50000000E-01
  8.50000000E-01  8.50000000E-01  8.00000000E-01  8.50000000E-01  8.50000000E-01
  8.50000000E-01  8.00000000E-01  8.50000000E-01  8.50000000E-01  8.50000000E-01
  8.00000000E-01  8.50000000E-01  8.50000000E-01  8.50000000E-01  8.00000000E-01
  8.50000000E-01  8.50000000E-01  8.50000000E-01  8.00000000E-01  8.50000000E-01
  8.50000000E-01  8.50000000E-01  8.00000000E-01  8.50000000E-01  8.50000000E-01
  8.50000000E-01  8.00000000E-01  8.50000000E-01  8.50000000E-01  8.50000000E-01
  8.00000000E-01  8.50000000E-01  8.50000000E-01  8.50000000E-01  8.00000000E-01
  8.50000000E-01  8.50000000E-01  8.50000000E-01  8.00000000E-01  8.50000000E-01
  8.50000000E-01  8.50000000E-01  8.00000000E-01  8.50000000E-01  8.50000000E-01
  8.50000000E-01  8.00000000E-01  8.50000000E-01  8.50000000E-01  8.50000000E-01
  8.00000000E-01  8.50000000E-01  8.50000000E-01  8.50000000E-01  8.00000000E-01
  8.50000000E-01  8.50000000E-01  8.50000000E-01  8.00000000E-01  8.50000000E-01
  8.50000000E-01  8.50000000E-01  8.00000000E-01  8.50000000E-01  8.50000000E-01
  8.50000000E-01  8.00000000E-01  8.50000000E-01  8.50000000E-01  8.50000000E-01
  8.00000000E-01  8.50000000E-01  8.50000000E-01  8.50000000E-01  8.00000000E-01
  8.50000000E-01  8.50000000E-01  8.50000000E-01  8.00000000E-01  8.50000000E-01
  8.50000000E-01  8.50000000E-01  8.00000000E-01  8.50000000E-01  8.50000000E-01
  8.50000000E-01  8.00000000E-01  8.50000000E-01  8.50000000E-01  8.50000000E-01
  8.00000000E-01  8.50000000E-01  8.50000000E-01  8.50000000E-01  8.00000000E-01
  8.50000000E-01  8.50000000E-01  8.50000000E-01  8.00000000E-01  8.50000000E-01
  8.50000000E-01  8.50000000E-01  8.00000000E-01  8.50000000E-01  8.50000000E-01
  8.50000000E-01  8.00000000E-01  8.50000000E-01  8.50000000E-01  8.50000000E-01
  8.00000000E-01  8.50000000E-01  8.50000000E-01  8.50000000E-01  8.00000000E-01
  8.50000000E-01  8.50000000E-01  8.50000000E-01  8.00000000E-01  8.50000000E-01
  8.50000000E-01  8.50000000E-01  8.00000000E-01  8.50000000E-01  8.50000000E-01
  8.50000000E-01  8.00000000E-01  8.50000000E-01  8.50000000E-01  8.50000000E-01
  8.00000000E-01  8.50000000E-01  8.50000000E-01  8.50000000E-01  8.00000000E-01
  8.50000000E-01  8.50000000E-01  8.50000000E-01  8.00000000E-01  8.50000000E-01
  8.50000000E-01  8.50000000E-01  8.00000000E-01  8.50000000E-01  8.50000000E-01
  8.50000000E-01  8.00000000E-01  8.50000000E-01  8.50000000E-01  8.50000000E-01
  8.00000000E-01  8.50000000E-01  8.50000000E-01  8.50000000E-01  8.00000000E-01
  8.50000000E-01  8.50000000E-01  8.50000000E-01  8.00000000E-01  8.50000000E-01
  8.50000000E-01  8.50000000E-01  8.00000000E-01  8.50000000E-01  8.50000000E-01
  8.50000000E-01  8.00000000E-01  8.50000000E-01  8.50000000E-01  8.50000000E-01
  8.00000000E-01  8.50000000E-01  8.50000000E-01  8.50000000E-01  8.00000000E-01
  8.50000000E-01  8.50000000E-01  8.50000000E-01  8.00000000E-01  8.50000000E-01
  8.50000000E-01  8.50000000E-01  8.00000000E-01  8.50000000E-01  8.50000000E-01
  8.50000000E-01  8.00000000E-01  8.50000000E-01  8.50000000E-01  8.50000000E-01
  8.00000000E-01  8.50000000E-01  8.50000000E-01  8.50000000E-01  8.00000000E-01
  8.50000000E-01  8.50000000E-01  8.50000000E-01  8.00000000E-01  8.50000000E-01
  8.50000000E-01  8.50000000E-01  8.00000000E-01  8.50000000E-01  8.50000000E-01
  8.50000000E-01  8.00000000E-01  8.50000000E-01  8.50000000E-01  8.50000000E-01
  8.00000000E-01  8.50000000E-01  8.50000000E-01  8.50000000E-01  8.00000000E-01
  8.50000000E-01  8.50000000E-01  8.50000000E-01  8.00000000E-01  8.50000000E-01
  8.50000000E-01  8.50000000E-01  8.00000000E-01  8.50000000E-01  8.50000000E-01
  8.50000000E-01  8.00000000E-01  8.50000000E-01  8.50000000E-01  8.50000000E-01
  8.00000000E-01  8.50000000E-01  8.50000000E-01  8.50000000E-01  8.00000000E-01
  8.50000000E-01  8.50000000E-01  8.50000000E-01  8.00000000E-01  8.50000000E-01
  8.50000000E-01  8.50000000E-01  8.00000000E-01  8.50000000E-01  8.50000000E-01
  8.50000000E-01  8.00000000E-01  8.50000000E-01  8.50000000E-01  8.50000000E-01
  8.00000000E-01  8.50000000E-01  8.50000000E-01  8.50000000E-01  8.00000000E-01
  8.50000000E-01  8.50000000E-01  8.50000000E-01  8.00000000E-01  8.50000000E-01
  8.50000000E-01  8.50000000E-01  8.00000000E-01  8.50000000E-01  8.50000000E-01
  8.50000000E-01  8.00000000E-01  8.50000000E-01  8.50000000E-01  8.50000000E-01
  8.00000000E-01  8.50000000E-01  8.50000000E-01  8.50000000E-01  8.00000000E-01
  8.50000000E-01  8.50000000E-01  8.50000000E-01  8.00000000E-01  8.50000000E-01
  8.50000000E-01  8.50000000E-01  8.00000000E-01  8.50000000E-01  8.50000000E-01
  8.50000000E-01  8.00000000E-01  8.50000000E-01  8.50000000E-01  8.50000000E-01
  8.00000000E-01  8.50000000E-01  8.50000000E-01  8.50000000E-01  8.00000000E-01
  8.50000000E-01  8.50000000E-01  8.50000000E-01  8.00000000E-01  8.50000000E-01
  8.50000000E-01  8.50000000E-01  8.00000000E-01  8.50000000E-01  8.50000000E-01
  8.50000000E-01  8.00000000E-01  8.50000000E-01  8.50000000E-01  8.50000000E-01
  8.00000000E-01  8.50000000E-01  8.50000000E-01  8.50000000E-01  8.00000000E-01
  8.50000000E-01  8.50000000E-01  8.50000000E-01  8.00000000E-01  8.50000000E-01
  8.50000000E-01  8.50000000E-01  8.00000000E-01  8.50000000E-01  8.50000000E-01
  8.50000000E-01  8.00000000E-01  8.50000000E-01  8.50000000E-01  8.50000000E-01
  8.00000000E-01  8.50000000E-01  8.50000000E-01  8.50000000E-01  8.00000000E-01
  8.50000000E-01  8.50000000E-01  8.50000000E-01  8.00000000E-01  8.50000000E-01
  8.50000000E-01  8.50000000E-01  8.00000000E-01  8.50000000E-01  8.50000000E-01
  8.50000000E-01  8.00000000E-01  8.50000000E-01  8.50000000E-01  8.50000000E-01
  8.00000000E-01  8.50000000E-01  8.50000000E-01  8.50000000E-01  8.00000000E-01
  8.50000000E-01  8.50000000E-01  8.50000000E-01  8.00000000E-01  8.50000000E-01
  8.50000000E-01  8.50000000E-01  8.00000000E-01  8.50000000E-01  8.50000000E-01
  8.50000000E-01  8.00000000E-01  8.50000000E-01  8.50000000E-01  8.50000000E-01
  8.00000000E-01  8.50000000E-01  8.50000000E-01  8.50000000E-01  8.00000000E-01
  8.50000000E-01  8.50000000E-01  8.50000000E-01  8.00000000E-01  8.50000000E-01
  8.50000000E-01  8.50000000E-01  8.00000000E-01  8.50000000E-01  8.50000000E-01
  8.50000000E-01  8.00000000E-01  8.50000000E-01  8.50000000E-01  8.50000000E-01
  8.00000000E-01  8.50000000E-01  8.50000000E-01  8.50000000E-01  8.00000000E-01
  8.50000000E-01  8.50000000E-01  8.50000000E-01  8.00000000E-01  8.50000000E-01
  8.50000000E-01  8.50000000E-01  8.00000000E-01  8.50000000E-01  8.50000000E-01
  8.50000000E-01  8.00000000E-01  8.50000000E-01  8.50000000E-01  8.50000000E-01
  8.00000000E-01  8.50000000E-01  8.50000000E-01  8.50000000E-01  8.00000000E-01
  8.50000000E-01  8.50000000E-01  8.50000000E-01  8.00000000E-01  8.50000000E-01
  8.50000000E-01  8.50000000E-01  8.00000000E-01  8.50000000E-01  8.50000000E-01
  8.50000000E-01  8.00000000E-01  8.50000000E-01  8.50000000E-01  8.50000000E-01
  8.00000000E-01  8.50000000E-01  8.50000000E-01  8.50000000E-01  8.00000000E-01
  8.50000000E-01  8.50000000E-01  8.50000000E-01  8.00000000E-01  8.50000000E-01
  8.50000000E-01  8.50000000E-01  8.00000000E-01  8.50000000E-01  8.50000000E-01
  8.50000000E-01  8.00000000E-01  8.50000000E-01  8.50000000E-01  8.50000000E-01
  8.00000000E-01  8.50000000E-01  8.50000000E-01  8.50000000E-01  8.00000000E-01
  8.50000000E-01  8.50000000E-01  8.50000000E-01  8.00000000E-01  8.50000000E-01
  8.50000000E-01  8.50000000E-01  8.00000000E-01  8.50000000E-01  8.50000000E-01
  8.50000000E-01  8.00000000E-01  8.50000000E-01  8.50000000E-01  8.50000000E-01
  8.00000000E-01  8.50000000E-01  8.50000000E-01  8.50000000E-01  8.00000000E-01
  8.50000000E-01  8.50000000E-01  8.50000000E-01  8.00000000E-01  8.50000000E-01
  8.50000000E-01  8.50000000E-01  8.00000000E-01  8.50000000E-01  8.50000000E-01
  8.50000000E-01  8.00000000E-01  8.50000000E-01  8.50000000E-01  8.50000000E-01
  8.00000000E-01  8.50000000E-01  8.50000000E-01  8.50000000E-01  8.00000000E-01
  8.50000000E-01  8.50000000E-01  8.50000000E-01  8.00000000E-01  8.50000000E-01
  8.50000000E-01  8.50000000E-01  8.00000000E-01  8.50000000E-01  8.50000000E-01
  8.50000000E-01  8.00000000E-01  8.50000000E-01  8.50000000E-01  8.50000000E-01
  8.00000000E-01  8.50000000E-01  8.50000000E-01  8.50000000E-01  8.00000000E-01
  8.50000000E-01  8.50000000E-01  8.50000000E-01  8.00000000E-01  8.50000000E-01
  8.50000000E-01  8.50000000E-01  8.00000000E-01  8.50000000E-01  8.50000000E-01
  8.50000000E-01  8.00000000E-01  8.50000000E-01  8.50000000E-01  8.50000000E-01
  8.00000000E-01  8.50000000E-01  8.50000000E-01  8.50000000E-01  8.00000000E-01
  8.50000000E-01  8.50000000E-01  8.50000000E-01  8.00000000E-01  8.50000000E-01
  8.50000000E-01  8.50000000E-01  8.00000000E-01  8.50000000E-01  8.50000000E-01
  8.50000000E-01  8.00000000E-01  8.50000000E-01  8.50000000E-01  8.50000000E-01
  8.00000000E-01  8.50000000E-01  8.50000000E-01  8.50000000E-01  8.00000000E-01
  8.50000000E-01  8.50000000E-01  8.50000000E-01  8.00000000E-01  8.50000000E-01
  8.50000000E-01  8.50000000E-01  8.00000000E-01  8.50000000E-01  8.50000000E-01
  8.50000000E-01  8.00000000E-01  8.50000000E-01  8.50000000E-01  8.50000000E-01
  8.00000000E-01  8.50000000E-01  8.50000000E-01  8.50000000E-01  8.00000000E-01
  8.50000000E-01  8.50000000E-01  8.50000000E-01  8.00000000E-01  8.50000000E-01
  8.50000000E-01  8.50000000E-01  8.00000000E-01  8.50000000E-01  8.50000000E-01
  8.50000000E-01  8.00000000E-01  8.50000000E-01  8.50000000E-01  8.50000000E-01
  8.00000000E-01  8.50000000E-01  8.50000000E-01  8.50000000E-01  8.00000000E-01
  8.50000000E-01  8.50000000E-01  8.50000000E-01  8.00000000E-01  8.50000000E-01
  8.50000000E-01  8.50000000E-01  8.00000000E-01  8.50000000E-01  8.50000000E-01
  8.50000000E-01  8.00000000E-01  8.50000000E-01  8.50000000E-01  8.50000000E-01
  8.00000000E-01  8.50000000E-01  8.50000000E-01  8.50000000E-01  8.00000000E-01
  8.50000000E-01  8.50000000E-01  8.50000000E-01  8.00000000E-01  8.50000000E-01
  8.50000000E-01  8.50000000E-01  8.00000000E-01  8.50000000E-01  8.50000000E-01
  8.50000000E-01  8.00000000E-01  8.50000000E-01  8.50000000E-01  8.50000000E-01
  8.00000000E-01  8.50000000E-01  8.50000000E-01  8.50000000E-01  8.00000000E-01
  8.50000000E-01  8.50000000E-01  8.50000000E-01  8.00000000E-01  8.50000000E-01
  8.50000000E-01  8.50000000E-01  8.00000000E-01  8.50000000E-01  8.50000000E-01
  8.50000000E-01  8.00000000E-01  8.50000000E-01  8.50000000E-01  8.50000000E-01
  8.00000000E-01  8.50000000E-01  8.50000000E-01  8.50000000E-01  8.00000000E-01
  8.50000000E-01  8.50000000E-01  8.50000000E-01  8.00000000E-01  8.50000000E-01
  8.50000000E-01  8.50000000E-01  8.00000000E-01  8.50000000E-01  8.50000000E-01
  8.50000000E-01  8.00000000E-01  8.50000000E-01  8.50000000E-01  8.50000000E-01
  8.00000000E-01  8.50000000E-01  8.50000000E-01  8.50000000E-01  8.00000000E-01
  8.50000000E-01  8.50000000E-01  8.50000000E-01  8.00000000E-01  8.50000000E-01
  8.50000000E-01  8.50000000E-01  8.00000000E-01  8.50000000E-01  8.50000000E-01
  8.50000000E-01  8.00000000E-01  8.50000000E-01  8.50000000E-01  8.50000000E-01
  8.00000000E-01  8.50000000E-01  8.50000000E-01  8.50000000E-01  8.00000000E-01
  8.50000000E-01  8.50000000E-01  8.50000000E-01  8.00000000E-01  8.50000000E-01
  8.50000000E-01  8.50000000E-01  8.00000000E-01  8.50000000E-01  8.50000000E-01
  8.50000000E-01  8.00000000E-01  8.50000000E-01  8.50000000E-01  8.50000000E-01
  8.00000000E-01  8.50000000E-01  8.50000000E-01  8.50000000E-01  8.00000000E-01
  8.50000000E-01  8.50000000E-01  8.50000000E-01  8.00000000E-01  8.50000000E-01
  8.50000000E-01  8.50000000E-01  8.00000000E-01  8.50000000E-01  8.50000000E-01
  8.50000000E-01  8.00000000E-01  8.50000000E-01  8.50000000E-01  8.50000000E-01
  8.00000000E-01  8.50000000E-01  8.50000000E-01  8.50000000E-01  8.00000000E-01
  8.50000000E-01  8.50000000E-01  8.50000000E-01  8.00000000E-01  8.50000000E-01
  8.50000000E-01  8.50000000E-01  8.00000000E-01  8.50000000E-01  8.50000000E-01
  8.50000000E-01  8.00000000E-01  8.50000000E-01  8.50000000E-01  8.50000000E-01
  8.00000000E-01  8.50000000E-01  8.50000000E-01  8.50000000E-01  8.00000000E-01
  8.50000000E-01  8.50000000E-01  8.50000000E-01  8.00000000E-01  8.50000000E-01
  8.50000000E-01  8.50000000E-01  8.00000000E-01  8.50000000E-01  8.50000000E-01
  8.50000000E-01  8.00000000E-01  8.50000000E-01  8.50000000E-01  8.50000000E-01
  8.00000000E-01  8.50000000E-01  8.50000000E-01  8.50000000E-01  8.00000000E-01
  8.50000000E-01  8.50000000E-01  8.50000000E-01  8.00000000E-01  8.50000000E-01
  8.50000000E-01  8.50000000E-01  8.00000000E-01  8.50000000E-01  8.50000000E-01
  8.50000000E-01  8.00000000E-01  8.50000000E-01  8.50000000E-01  8.50000000E-01
  8.00000000E-01  8.50000000E-01  8.50000000E-01  8.50000000E-01  8.00000000E-01
  8.50000000E-01  8.50000000E-01  8.50000000E-01  8.00000000E-01  8.50000000E-01
  8.50000000E-01  8.50000000E-01  8.00000000E-01  8.50000000E-01  8.50000000E-01
  8.50000000E-01  8.00000000E-01  8.50000000E-01  8.50000000E-01  8.50000000E-01
  8.00000000E-01  8.50000000E-01  8.50000000E-01  8.50000000E-01  8.00000000E-01
  8.50000000E-01  8.50000000E-01  8.50000000E-01  8.00000000E-01  8.50000000E-01
  8.50000000E-01  8.50000000E-01  8.00000000E-01  8.50000000E-01  8.50000000E-01
  8.50000000E-01  8.00000000E-01  8.50000000E-01  8.50000000E-01  8.50000000E-01
  8.00000000E-01  8.50000000E-01  8.50000000E-01  8.50000000E-01  8.00000000E-01
  8.50000000E-01  8.50000000E-01  8.50000000E-01  8.00000000E-01  8.50000000E-01
  8.50000000E-01  8.50000000E-01  8.00000000E-01  8.50000000E-01  8.50000000E-01
  8.50000000E-01  8.00000000E-01  8.50000000E-01  8.50000000E-01  8.50000000E-01
  8.00000000E-01  8.50000000E-01  8.50000000E-01  8.50000000E-01  8.00000000E-01
  8.50000000E-01  8.50000000E-01  8.50000000E-01  8.00000000E-01  8.50000000E-01
  8.50000000E-01  8.50000000E-01  8.00000000E-01  8.50000000E-01  8.50000000E-01
  8.50000000E-01  8.00000000E-01  8.50000000E-01  8.50000000E-01  8.50000000E-01
  8.00000000E-01  8.50000000E-01  8.50000000E-01  8.50000000E-01  8.00000000E-01
  8.50000000E-01  8.50000000E-01  8.50000000E-01  8.00000000E-01  8.50000000E-01
  8.50000000E-01  8.50000000E-01  8.00000000E-01  8.50000000E-01  8.50000000E-01
  8.50000000E-01  8.00000000E-01  8.50000000E-01  8.50000000E-01  8.50000000E-01
  8.00000000E-01  8.50000000E-01  8.50000000E-01  8.50000000E-01  8.00000000E-01
  8.50000000E-01  8.50000000E-01  8.50000000E-01  8.00000000E-01  8.50000000E-01
  8.50000000E-01  8.50000000E-01  8.00000000E-01  8.50000000E-01  8.50000000E-01
  8.50000000E-01  8.00000000E-01  8.50000000E-01  8.50000000E-01  8.50000000E-01
  8.00000000E-01  8.50000000E-01  8.50000000E-01  8.50000000E-01  8.00000000E-01
  8.50000000E-01  8.50000000E-01  8.50000000E-01  8.00000000E-01  8.50000000E-01
  8.50000000E-01  8.50000000E-01  8.00000000E-01  8.50000000E-01  8.50000000E-01
  8.50000000E-01  8.00000000E-01  8.50000000E-01  8.50000000E-01  8.50000000E-01
  8.00000000E-01  8.50000000E-01  8.50000000E-01  8.50000000E-01  8.00000000E-01
  8.50000000E-01  8.50000000E-01  8.50000000E-01  8.00000000E-01  8.50000000E-01
  8.50000000E-01  8.50000000E-01  8.00000000E-01  8.50000000E-01  8.50000000E-01
  8.50000000E-01  8.00000000E-01  8.50000000E-01  8.50000000E-01  8.50000000E-01
  8.00000000E-01  8.50000000E-01  8.50000000E-01  8.50000000E-01  8.00000000E-01
  8.50000000E-01  8.50000000E-01  8.50000000E-01  8.00000000E-01  8.50000000E-01
  8.50000000E-01  8.50000000E-01  8.00000000E-01  8.50000000E-01  8.50000000E-01
  8.50000000E-01  8.00000000E-01  8.50000000E-01  8.50000000E-01  8.50000000E-01
  8.00000000E-01  8.50000000E-01  8.50000000E-01  8.50000000E-01  8.00000000E-01
  8.50000000E-01  8.50000000E-01  8.50000000E-01  8.00000000E-01  8.50000000E-01
  8.50000000E-01  8.50000000E-01  8.00000000E-01  8.50000000E-01  8.50000000E-01
  8.50000000E-01  8.00000000E-01  8.50000000E-01  8.50000000E-01  8.50000000E-01
  8.00000000E-01  8.50000000E-01  8.50000000E-01  8.50000000E-01  8.00000000E-01
  8.50000000E-01  8.50000000E-01  8.50000000E-01  8.00000000E-01  8.50000000E-01
  8.50000000E-01  8.50000000E-01  8.00000000E-01  8.50000000E-01  8.50000000E-01
  8.50000000E-01  8.00000000E-01  8.50000000E-01  8.50000000E-01  8.50000000E-01
  8.00000000E-01  8.50000000E-01  8.50000000E-01  8.50000000E-01  8.00000000E-01
  8.50000000E-01  8.50000000E-01  8.50000000E-01  8.00000000E-01  8.50000000E-01
  8.50000000E-01  8.50000000E-01  8.00000000E-01  8.50000000E-01  8.50000000E-01
  8.50000000E-01  8.00000000E-01  8.50000000E-01  8.50000000E-01  8.50000000E-01
  8.00000000E-01  8.50000000E-01  8.50000000E-01  8.50000000E-01  8.00000000E-01
  8.50000000E-01  8.50000000E-01  8.50000000E-01  8.00000000E-01  8.50000000E-01
  8.50000000E-01  8.50000000E-01  8.00000000E-01  8.50000000E-01  8.50000000E-01
  8.50000000E-01  8.00000000E-01  8.50000000E-01  8.50000000E-01  8.50000000E-01
  8.00000000E-01  8.50000000E-01  8.50000000E-01  8.50000000E-01  8.00000000E-01
  8.50000000E-01  8.50000000E-01  8.50000000E-01  8.00000000E-01  8.50000000E-01
  8.50000000E-01  8.50000000E-01  8.00000000E-01  8.50000000E-01  8.50000000E-01
  8.50000000E-01  8.00000000E-01  8.50000000E-01  8.50000000E-01  8.50000000E-01
  8.00000000E-01  8.50000000E-01  8.50000000E-01  8.50000000E-01  8.00000000E-01
  8.50000000E-01  8.50000000E-01  8.50000000E-01  8.00000000E-01  8.50000000E-01
  8.50000000E-01  8.50000000E-01  8.00000000E-01  8.50000000E-01  8.50000000E-01
  8.50000000E-01  8.00000000E-01  8.50000000E-01  8.50000000E-01  8.50000000E-01
  8.00000000E-01  8.50000000E-01  8.50000000E-01  8.50000000E-01  8.00000000E-01
  8.50000000E-01  8.50000000E-01  8.50000000E-01  8.00000000E-01  8.50000000E-01
  8.50000000E-01  8.50000000E-01  8.00000000E-01  8.50000000E-01  8.50000000E-01
  8.50000000E-01  8.00000000E-01  8.50000000E-01  8.50000000E-01  8.50000000E-01
  8.00000000E-01  8.50000000E-01  8.50000000E-01  8.50000000E-01  8.00000000E-01
  8.50000000E-01  8.50000000E-01  8.50000000E-01  8.00000000E-01  8.50000000E-01
  8.50000000E-01  8.50000000E-01  8.00000000E-01  8.50000000E-01  8.50000000E-01
  8.50000000E-01  8.00000000E-01  8.50000000E-01  8.50000000E-01  8.50000000E-01
  8.00000000E-01  8.50000000E-01  8.50000000E-01  8.50000000E-01  8.00000000E-01
  8.50000000E-01  8.50000000E-01  8.50000000E-01  8.00000000E-01  8.50000000E-01
  8.50000000E-01  8.50000000E-01  8.00000000E-01  8.50000000E-01  8.50000000E-01
  8.50000000E-01  8.00000000E-01  8.50000000E-01  8.50000000E-01  8.50000000E-01
  8.00000000E-01  8.50000000E-01  8.50000000E-01  8.50000000E-01  8.00000000E-01
  8.50000000E-01  8.50000000E-01  8.50000000E-01  8.00000000E-01  8.50000000E-01
  8.50000000E-01  8.50000000E-01  8.00000000E-01  8.50000000E-01  8.50000000E-01
  8.50000000E-01  8.00000000E-01  8.50000000E-01  8.50000000E-01  8.50000000E-01
  8.00000000E-01  8.50000000E-01  8.50000000E-01  8.50000000E-01  8.00000000E-01
  8.50000000E-01  8.50000000E-01  8.50000000E-01  8.00000000E-01  8.50000000E-01
  8.50000000E-01  8.50000000E-01  8.00000000E-01  8.50000000E-01  8.50000000E-01
  8.50000000E-01  8.00000000E-01  8.50000000E-01  8.50000000E-01  8.50000000E-01
  8.00000000E-01  8.50000000E-01  8.50000000E-01  8.50000000E-01  8.00000000E-01
  8.50000000E-01  8.50000000E-01  8.50000000E-01  8.00000000E-01  8.50000000E-01
  8.50000000E-01  8.50000000E-01  8.00000000E-01  8.50000000E-01  8.50000000E-01
  8.50000000E-01  8.00000000E-01  8.50000000E-01  8.50000000E-01  8.50000000E-01
  8.00000000E-01  8.50000000E-01  8.50000000E-01  8.50000000E-01  8.00000000E-01
  8.50000000E-01  8.50000000E-01  8.50000000E-01  8.00000000E-01  8.50000000E-01
  8.50000000E-01  8.50000000E-01  8.00000000E-01  8.50000000E-01  8.50000000E-01
  8.50000000E-01  8.00000000E-01  8.50000000E-01  8.50000000E-01  8.50000000E-01
  8.00000000E-01  8.50000000E-01  8.50000000E-01  8.50000000E-01  8.00000000E-01
  8.50000000E-01  8.50000000E-01  8.50000000E-01  8.00000000E-01  8.50000000E-01
  8.50000000E-01  8.50000000E-01  8.00000000E-01  8.50000000E-01  8.50000000E-01
  8.50000000E-01  8.00000000E-01  8.50000000E-01  8.50000000E-01  8.50000000E-01
  8.00000000E-01  8.50000000E-01  8.50000000E-01  8.50000000E-01  8.00000000E-01
  8.50000000E-01  8.50000000E-01  8.50000000E-01  8.00000000E-01  8.50000000E-01
  8.50000000E-01  8.50000000E-01  8.00000000E-01  8.50000000E-01  8.50000000E-01
  8.50000000E-01  8.00000000E-01  8.50000000E-01  8.50000000E-01  8.50000000E-01
  8.00000000E-01  8.50000000E-01  8.50000000E-01  8.50000000E-01  8.00000000E-01
  8.50000000E-01  8.50000000E-01  8.50000000E-01  8.00000000E-01  8.50000000E-01
  8.50000000E-01  8.50000000E-01  8.00000000E-01  8.50000000E-01  8.50000000E-01
  8.50000000E-01  8.00000000E-01  8.50000000E-01  8.50000000E-01  8.50000000E-01
  8.00000000E-01  8.50000000E-01  8.50000000E-01  8.50000000E-01  8.00000000E-01
  8.50000000E-01  8.50000000E-01  8.50000000E-01  8.00000000E-01  8.50000000E-01
  8.50000000E-01  8.50000000E-01  8.00000000E-01  8.50000000E-01  8.50000000E-01
  8.50000000E-01  8.00000000E-01  8.50000000E-01  8.50000000E-01  8.50000000E-01
  8.00000000E-01  8.50000000E-01  8.50000000E-01  8.50000000E-01  8.00000000E-01
  8.50000000E-01  8.50000000E-01  8.50000000E-01  8.00000000E-01  8.50000000E-01
  8.50000000E-01  8.50000000E-01  8.00000000E-01  8.50000000E-01  8.50000000E-01
  8.50000000E-01  8.00000000E-01  8.50000000E-01  8.50000000E-01  8.50000000E-01
  8.00000000E-01  8.50000000E-01  8.50000000E-01  8.50000000E-01  8.00000000E-01
  8.50000000E-01  8.50000000E-01  8.50000000E-01  8.00000000E-01  8.50000000E-01
  8.50000000E-01  8.50000000E-01  8.00000000E-01  8.50000000E-01  8.50000000E-01
  8.50000000E-01  8.00000000E-01  8.50000000E-01  8.50000000E-01  8.50000000E-01
  8.00000000E-01  8.50000000E-01  8.50000000E-01  8.50000000E-01  8.00000000E-01
  8.50000000E-01  8.50000000E-01  8.50000000E-01  8.00000000E-01  8.50000000E-01
  8.50000000E-01  8.50000000E-01  8.00000000E-01  8.50000000E-01  8.50000000E-01
  8.50000000E-01  8.00000000E-01  8.50000000E-01  8.50000000E-01  8.50000000E-01
  8.00000000E-01  8.50000000E-01  8.50000000E-01  8.50000000E-01  8.00000000E-01
  8.50000000E-01  8.50000000E-01  8.50000000E-01  8.00000000E-01  8.50000000E-01
  8.50000000E-01  8.50000000E-01  8.00000000E-01  8.50000000E-01  8.50000000E-01
  8.50000000E-01  8.00000000E-01  8.50000000E-01  8.50000000E-01  8.50000000E-01
  8.00000000E-01  8.50000000E-01  8.50000000E-01  8.50000000E-01  8.00000000E-01
  8.50000000E-01  8.50000000E-01  8.50000000E-01  8.00000000E-01  8.50000000E-01
  8.50000000E-01  8.50000000E-01  8.00000000E-01  8.50000000E-01  8.50000000E-01
  8.50000000E-01  8.00000000E-01  8.50000000E-01  8.50000000E-01  8.50000000E-01
  8.00000000E-01  8.50000000E-01  8.50000000E-01  8.50000000E-01  8.00000000E-01
  8.50000000E-01  8.50000000E-01  8.50000000E-01  8.00000000E-01  8.50000000E-01
  8.50000000E-01  8.50000000E-01  8.00000000E-01  8.50000000E-01  8.50000000E-01
  8.50000000E-01  8.00000000E-01  8.50000000E-01  8.50000000E-01  8.50000000E-01
  8.00000000E-01  8.50000000E-01  8.50000000E-01  8.50000000E-01  8.00000000E-01
  8.50000000E-01  8.50000000E-01  8.50000000E-01  8.00000000E-01  8.50000000E-01
  8.50000000E-01  8.50000000E-01  8.00000000E-01  8.50000000E-01  8.50000000E-01
  8.50000000E-01  8.00000000E-01  8.50000000E-01  8.50000000E-01  8.50000000E-01
  8.00000000E-01  8.50000000E-01  8.50000000E-01  8.50000000E-01  8.00000000E-01
  8.50000000E-01  8.50000000E-01  8.50000000E-01  8.00000000E-01  8.50000000E-01
  8.50000000E-01  8.50000000E-01  8.00000000E-01  8.50000000E-01  8.50000000E-01
  8.50000000E-01  8.00000000E-01  8.50000000E-01  8.50000000E-01  8.50000000E-01
  8.00000000E-01  8.50000000E-01  8.50000000E-01  8.50000000E-01  8.00000000E-01
  8.50000000E-01  8.50000000E-01  8.50000000E-01  8.00000000E-01  8.50000000E-01
  8.50000000E-01  8.50000000E-01  8.00000000E-01  8.50000000E-01  8.50000000E-01
  8.50000000E-01  8.00000000E-01  8.50000000E-01  8.50000000E-01  8.50000000E-01
  8.00000000E-01  8.50000000E-01  8.50000000E-01  8.50000000E-01  8.00000000E-01
  8.50000000E-01  8.50000000E-01  8.50000000E-01  8.00000000E-01  8.50000000E-01
  8.50000000E-01  8.50000000E-01  8.00000000E-01  8.50000000E-01  8.50000000E-01
  8.50000000E-01  8.00000000E-01  8.50000000E-01  8.50000000E-01  8.50000000E-01
  8.00000000E-01  8.50000000E-01  8.50000000E-01  8.50000000E-01  8.00000000E-01
  8.50000000E-01  8.50000000E-01  8.50000000E-01  8.00000000E-01  8.50000000E-01
  8.50000000E-01  8.50000000E-01  8.00000000E-01  8.50000000E-01  8.50000000E-01
  8.50000000E-01  8.00000000E-01  8.50000000E-01  8.50000000E-01  8.50000000E-01
  8.00000000E-01  8.50000000E-01  8.50000000E-01  8.50000000E-01  8.00000000E-01
  8.50000000E-01  8.50000000E-01  8.50000000E-01  8.00000000E-01  8.50000000E-01
  8.50000000E-01  8.50000000E-01  8.00000000E-01  8.50000000E-01  8.50000000E-01
  8.50000000E-01  8.00000000E-01  8.50000000E-01  8.50000000E-01  8.50000000E-01
  8.00000000E-01  8.50000000E-01  8.50000000E-01  8.50000000E-01  8.00000000E-01
  8.50000000E-01  8.50000000E-01  8.50000000E-01  8.00000000E-01  8.50000000E-01
  8.50000000E-01  8.50000000E-01  8.00000000E-01  8.50000000E-01  8.50000000E-01
  8.50000000E-01  8.00000000E-01  8.50000000E-01  8.50000000E-01  8.50000000E-01
  8.00000000E-01  8.50000000E-01  8.50000000E-01  8.50000000E-01  8.00000000E-01
  8.50000000E-01  8.50000000E-01  8.50000000E-01  8.00000000E-01  8.50000000E-01
  8.50000000E-01  8.50000000E-01  8.00000000E-01  8.50000000E-01  8.50000000E-01
  8.50000000E-01  8.00000000E-01  8.50000000E-01  8.50000000E-01  8.50000000E-01
  8.00000000E-01  8.50000000E-01  8.50000000E-01  8.50000000E-01  8.00000000E-01
  8.50000000E-01  8.50000000E-01  8.50000000E-01  8.00000000E-01  8.50000000E-01
  8.50000000E-01  8.50000000E-01  8.00000000E-01  8.50000000E-01  8.50000000E-01
  8.50000000E-01  8.00000000E-01  8.50000000E-01  8.50000000E-01  8.50000000E-01
  8.00000000E-01  8.50000000E-01  8.50000000E-01  8.50000000E-01  8.00000000E-01
  8.50000000E-01  8.50000000E-01  8.50000000E-01  8.00000000E-01  8.50000000E-01
  8.50000000E-01  8.50000000E-01  8.00000000E-01  8.50000000E-01  8.50000000E-01
  8.50000000E-01  8.00000000E-01  8.50000000E-01  8.50000000E-01  8.50000000E-01
  8.00000000E-01  8.50000000E-01  8.50000000E-01  8.50000000E-01  8.00000000E-01
  8.50000000E-01  8.50000000E-01  8.50000000E-01  8.00000000E-01  8.50000000E-01
  8.50000000E-01  8.50000000E-01  8.00000000E-01  8.50000000E-01  8.50000000E-01
  8.50000000E-01  8.00000000E-01  8.50000000E-01  8.50000000E-01  8.50000000E-01
  8.00000000E-01  8.50000000E-01  8.50000000E-01  8.50000000E-01  8.00000000E-01
  8.50000000E-01  8.50000000E-01  8.50000000E-01  8.00000000E-01  8.50000000E-01
  8.50000000E-01  8.50000000E-01  8.00000000E-01  8.50000000E-01  8.50000000E-01
  8.50000000E-01  8.00000000E-01  8.50000000E-01  8.50000000E-01  8.50000000E-01
  8.00000000E-01  8.50000000E-01  8.50000000E-01  8.50000000E-01  8.00000000E-01
  8.50000000E-01  8.50000000E-01  8.50000000E-01  8.00000000E-01  8.50000000E-01
  8.50000000E-01  8.50000000E-01  8.00000000E-01  8.50000000E-01  8.50000000E-01
  8.50000000E-01  8.00000000E-01  8.50000000E-01  8.50000000E-01  8.50000000E-01
  8.00000000E-01  8.50000000E-01  8.50000000E-01  8.50000000E-01  8.00000000E-01
  8.50000000E-01  8.50000000E-01  8.50000000E-01  8.00000000E-01  8.50000000E-01
  8.50000000E-01  8.50000000E-01  8.00000000E-01  8.50000000E-01  8.50000000E-01
  8.50000000E-01  8.00000000E-01  8.50000000E-01  8.50000000E-01  8.50000000E-01
  8.00000000E-01  8.50000000E-01  8.50000000E-01  8.50000000E-01  8.00000000E-01
  8.50000000E-01  8.50000000E-01  8.50000000E-01  8.00000000E-01  8.50000000E-01
  8.50000000E-01  8.50000000E-01  8.00000000E-01  8.50000000E-01  8.50000000E-01
  8.50000000E-01  8.00000000E-01  8.50000000E-01  8.50000000E-01  8.50000000E-01
  8.00000000E-01  8.50000000E-01  8.50000000E-01  8.50000000E-01  8.00000000E-01
  8.50000000E-01  8.50000000E-01  8.50000000E-01  8.00000000E-01  8.50000000E-01
  8.50000000E-01  8.50000000E-01  8.00000000E-01  8.50000000E-01  8.50000000E-01
  8.50000000E-01  8.00000000E-01  8.50000000E-01  8.50000000E-01  8.50000000E-01
  8.00000000E-01  8.50000000E-01  8.50000000E-01  8.50000000E-01  8.00000000E-01
  8.50000000E-01  8.50000000E-01  8.50000000E-01  8.00000000E-01  8.50000000E-01
  8.50000000E-01  8.50000000E-01  8.00000000E-01  8.50000000E-01  8.50000000E-01
  8.50000000E-01  8.00000000E-01  8.50000000E-01  8.50000000E-01  8.50000000E-01
  8.00000000E-01  8.50000000E-01  8.50000000E-01  8.50000000E-01  8.00000000E-01
  8.50000000E-01  8.50000000E-01  8.50000000E-01  8.00000000E-01  8.50000000E-01
  8.50000000E-01  8.50000000E-01  8.00000000E-01  8.50000000E-01  8.50000000E-01
  8.50000000E-01  8.00000000E-01  8.50000000E-01  8.50000000E-01  8.50000000E-01
  8.00000000E-01  8.50000000E-01  8.50000000E-01  8.50000000E-01  8.00000000E-01
  8.50000000E-01  8.50000000E-01  8.50000000E-01  8.00000000E-01  8.50000000E-01
  8.50000000E-01  8.50000000E-01  8.00000000E-01  8.50000000E-01  8.50000000E-01
  8.50000000E-01  8.00000000E-01  8.50000000E-01  8.50000000E-01  8.50000000E-01
  8.00000000E-01  8.50000000E-01  8.50000000E-01  8.50000000E-01  8.00000000E-01
  8.50000000E-01  8.50000000E-01  8.50000000E-01  8.00000000E-01  8.50000000E-01
  8.50000000E-01  8.50000000E-01  8.00000000E-01  8.50000000E-01  8.50000000E-01
  8.50000000E-01  8.00000000E-01  8.50000000E-01  8.50000000E-01  8.50000000E-01
  8.00000000E-01  8.50000000E-01  8.50000000E-01  8.50000000E-01  8.00000000E-01
  8.50000000E-01  8.50000000E-01  8.50000000E-01  8.00000000E-01  8.50000000E-01
  8.50000000E-01  8.50000000E-01  8.00000000E-01  8.50000000E-01  8.50000000E-01
  8.50000000E-01  8.00000000E-01  8.50000000E-01  8.50000000E-01  8.50000000E-01
  8.00000000E-01  8.50000000E-01  8.50000000E-01  8.50000000E-01  8.00000000E-01
  8.50000000E-01  8.50000000E-01  8.50000000E-01  8.00000000E-01  8.50000000E-01
  8.50000000E-01  8.50000000E-01  8.00000000E-01  8.50000000E-01  8.50000000E-01
  8.50000000E-01  8.00000000E-01  8.50000000E-01  8.50000000E-01  8.50000000E-01
  8.00000000E-01  8.50000000E-01  8.50000000E-01  8.50000000E-01  8.00000000E-01
  8.50000000E-01  8.50000000E-01  8.50000000E-01  8.00000000E-01  8.50000000E-01
  8.50000000E-01  8.50000000E-01  8.00000000E-01  8.50000000E-01  8.50000000E-01
  8.50000000E-01  8.00000000E-01  8.50000000E-01  8.50000000E-01  8.50000000E-01
  8.00000000E-01  8.50000000E-01  8.50000000E-01  8.50000000E-01  8.00000000E-01
  8.50000000E-01  8.50000000E-01  8.50000000E-01  8.00000000E-01  8.50000000E-01
  8.50000000E-01  8.50000000E-01  8.00000000E-01  8.50000000E-01  8.50000000E-01
  8.50000000E-01  8.00000000E-01  8.50000000E-01  8.50000000E-01  8.50000000E-01
  8.00000000E-01  8.50000000E-01  8.50000000E-01  8.50000000E-01  8.00000000E-01
  8.50000000E-01  8.50000000E-01  8.50000000E-01  8.00000000E-01  8.50000000E-01
  8.50000000E-01  8.50000000E-01  8.00000000E-01  8.50000000E-01  8.50000000E-01
  8.50000000E-01  8.00000000E-01  8.50000000E-01  8.50000000E-01  8.50000000E-01
  8.00000000E-01  8.50000000E-01  8.50000000E-01  8.50000000E-01  8.00000000E-01
  8.50000000E-01  8.50000000E-01  8.50000000E-01  8.00000000E-01  8.50000000E-01
  8.50000000E-01  8.50000000E-01  8.00000000E-01  8.50000000E-01  8.50000000E-01
  8.50000000E-01  8.00000000E-01  8.50000000E-01  8.50000000E-01  8.50000000E-01
  8.00000000E-01  8.50000000E-01  8.50000000E-01  8.50000000E-01  8.00000000E-01
  8.50000000E-01  8.50000000E-01  8.50000000E-01  8.00000000E-01  8.50000000E-01
  8.50000000E-01  8.50000000E-01  8.00000000E-01  8.50000000E-01  8.50000000E-01
  8.50000000E-01  8.00000000E-01  8.50000000E-01  8.50000000E-01  8.50000000E-01
  8.00000000E-01  8.50000000E-01  8.50000000E-01  8.50000000E-01  8.00000000E-01
  8.50000000E-01  8.50000000E-01  8.50000000E-01  8.00000000E-01  8.50000000E-01
  8.50000000E-01  8.50000000E-01  8.00000000E-01  8.50000000E-01  8.50000000E-01
  8.50000000E-01  8.00000000E-01  8.50000000E-01  8.50000000E-01  8.50000000E-01
  8.00000000E-01  8.50000000E-01  8.50000000E-01  8.50000000E-01  8.00000000E-01
  8.50000000E-01  8.50000000E-01  8.50000000E-01  8.00000000E-01  8.50000000E-01
  8.50000000E-01  8.50000000E-01  8.00000000E-01  8.50000000E-01  8.50000000E-01
  8.50000000E-01  8.00000000E-01  8.50000000E-01  8.50000000E-01  8.50000000E-01
  8.00000000E-01  8.50000000E-01  8.50000000E-01  8.50000000E-01  8.00000000E-01
  8.50000000E-01  8.50000000E-01  8.50000000E-01  8.00000000E-01  8.50000000E-01
  8.50000000E-01  8.50000000E-01  8.00000000E-01  8.50000000E-01  8.50000000E-01
  8.50000000E-01  8.00000000E-01  8.50000000E-01  8.50000000E-01  8.50000000E-01
  8.00000000E-01  8.50000000E-01  8.50000000E-01  8.50000000E-01  8.00000000E-01
  8.50000000E-01  8.50000000E-01  8.50000000E-01  8.00000000E-01  8.50000000E-01
  8.50000000E-01  8.50000000E-01  8.00000000E-01  8.50000000E-01  8.50000000E-01
  8.50000000E-01  8.00000000E-01  8.50000000E-01  8.50000000E-01  8.50000000E-01
  8.00000000E-01  8.50000000E-01  8.50000000E-01  8.50000000E-01  8.00000000E-01
  8.50000000E-01  8.50000000E-01  8.50000000E-01  8.00000000E-01  8.50000000E-01
  8.50000000E-01  8.50000000E-01  8.00000000E-01  8.50000000E-01  8.50000000E-01
  8.50000000E-01  8.00000000E-01  8.50000000E-01  8.50000000E-01  8.50000000E-01
  8.00000000E-01  8.50000000E-01  8.50000000E-01  8.50000000E-01  8.00000000E-01
  8.50000000E-01  8.50000000E-01  8.50000000E-01  8.00000000E-01  8.50000000E-01
  8.50000000E-01  8.50000000E-01  8.00000000E-01  8.50000000E-01  8.50000000E-01
  8.50000000E-01  8.00000000E-01  8.50000000E-01  8.50000000E-01  8.50000000E-01
  8.00000000E-01  8.50000000E-01  8.50000000E-01  8.50000000E-01  8.00000000E-01
  8.50000000E-01  8.50000000E-01  8.50000000E-01  8.00000000E-01  8.50000000E-01
  8.50000000E-01  8.50000000E-01  8.00000000E-01  8.50000000E-01  8.50000000E-01
  8.50000000E-01  8.00000000E-01  8.50000000E-01  8.50000000E-01  8.50000000E-01
  8.00000000E-01  8.50000000E-01  8.50000000E-01  8.50000000E-01  8.00000000E-01
  8.50000000E-01  8.50000000E-01  8.50000000E-01  8.00000000E-01  8.50000000E-01
  8.50000000E-01  8.50000000E-01  8.00000000E-01  8.50000000E-01  8.50000000E-01
  8.50000000E-01  8.00000000E-01  8.50000000E-01  8.50000000E-01  8.50000000E-01
  8.00000000E-01  8.50000000E-01  8.50000000E-01  8.50000000E-01  8.00000000E-01
  8.50000000E-01  8.50000000E-01  8.50000000E-01  8.00000000E-01  8.50000000E-01
  8.50000000E-01  8.50000000E-01  8.00000000E-01  8.50000000E-01  8.50000000E-01
  8.50000000E-01  8.00000000E-01  8.50000000E-01  8.50000000E-01  8.50000000E-01
  8.00000000E-01  8.50000000E-01  8.50000000E-01  8.50000000E-01  8.00000000E-01
  8.50000000E-01  8.50000000E-01  8.50000000E-01  8.00000000E-01  8.50000000E-01
  8.50000000E-01  8.50000000E-01  8.00000000E-01  8.50000000E-01  8.50000000E-01
  8.50000000E-01  8.00000000E-01  8.50000000E-01  8.50000000E-01  8.50000000E-01
  8.00000000E-01  8.50000000E-01  8.50000000E-01  8.50000000E-01  8.00000000E-01
  8.50000000E-01  8.50000000E-01  8.50000000E-01  8.00000000E-01  8.50000000E-01
  8.50000000E-01  8.50000000E-01  8.00000000E-01  8.50000000E-01  8.50000000E-01
  8.50000000E-01  8.00000000E-01  8.50000000E-01  8.50000000E-01  8.50000000E-01
  8.00000000E-01  8.50000000E-01  8.50000000E-01  8.50000000E-01  8.00000000E-01
  8.50000000E-01  8.50000000E-01  8.50000000E-01  8.00000000E-01  8.50000000E-01
  8.50000000E-01  8.50000000E-01  8.00000000E-01  8.50000000E-01  8.50000000E-01
  8.50000000E-01  8.00000000E-01  8.50000000E-01  8.50000000E-01  8.50000000E-01
  8.00000000E-01  8.50000000E-01  8.50000000E-01  8.50000000E-01  8.00000000E-01
  8.50000000E-01  8.50000000E-01  8.50000000E-01  8.00000000E-01  8.50000000E-01
  8.50000000E-01  8.50000000E-01  8.00000000E-01  8.50000000E-01  8.50000000E-01
  8.50000000E-01  8.00000000E-01  8.50000000E-01  8.50000000E-01  8.50000000E-01
  8.00000000E-01  8.50000000E-01  8.50000000E-01  8.50000000E-01  8.00000000E-01
  8.50000000E-01  8.50000000E-01  8.50000000E-01  8.00000000E-01  8.50000000E-01
  8.50000000E-01  8.50000000E-01  8.00000000E-01  8.50000000E-01  8.50000000E-01
  8.50000000E-01  8.00000000E-01  8.50000000E-01  8.50000000E-01  8.50000000E-01
  8.00000000E-01  8.50000000E-01  8.50000000E-01  8.50000000E-01  8.00000000E-01
  8.50000000E-01  8.50000000E-01  8.50000000E-01  8.00000000E-01  8.50000000E-01
  8.50000000E-01  8.50000000E-01  8.00000000E-01  8.50000000E-01  8.50000000E-01
  8.50000000E-01  8.00000000E-01  8.50000000E-01  8.50000000E-01  8.50000000E-01
  8.00000000E-01  8.50000000E-01  8.50000000E-01  8.50000000E-01  8.00000000E-01
  8.50000000E-01  8.50000000E-01  8.50000000E-01  8.00000000E-01  8.50000000E-01
  8.50000000E-01  8.50000000E-01  8.00000000E-01  8.50000000E-01  8.50000000E-01
  8.50000000E-01  8.00000000E-01  8.50000000E-01  8.50000000E-01  8.50000000E-01
  8.00000000E-01  8.50000000E-01  8.50000000E-01  8.50000000E-01  8.00000000E-01
  8.50000000E-01  8.50000000E-01  8.50000000E-01  8.00000000E-01  8.50000000E-01
  8.50000000E-01  8.50000000E-01  8.00000000E-01  8.50000000E-01  8.50000000E-01
  8.50000000E-01  8.00000000E-01  8.50000000E-01  8.50000000E-01  8.50000000E-01
  8.00000000E-01  8.50000000E-01  8.50000000E-01  8.50000000E-01  8.00000000E-01
  8.50000000E-01  8.50000000E-01  8.50000000E-01  8.00000000E-01  8.50000000E-01
  8.50000000E-01  8.50000000E-01  8.00000000E-01  8.50000000E-01  8.50000000E-01
  8.50000000E-01  8.00000000E-01  8.50000000E-01  8.50000000E-01  8.50000000E-01
  8.00000000E-01  8.50000000E-01  8.50000000E-01  8.50000000E-01  8.00000000E-01
  8.50000000E-01  8.50000000E-01  8.50000000E-01  8.00000000E-01  8.50000000E-01
  8.50000000E-01  8.50000000E-01  8.00000000E-01  8.50000000E-01  8.50000000E-01
  8.50000000E-01  8.00000000E-01  8.50000000E-01  8.50000000E-01  8.50000000E-01
  8.00000000E-01  8.50000000E-01  8.50000000E-01  8.50000000E-01  8.00000000E-01
  8.50000000E-01  8.50000000E-01  8.50000000E-01  8.00000000E-01  8.50000000E-01
  8.50000000E-01  8.50000000E-01  8.00000000E-01  8.50000000E-01  8.50000000E-01
  8.50000000E-01  8.00000000E-01  8.50000000E-01  8.50000000E-01  8.50000000E-01
  8.00000000E-01  8.50000000E-01  8.50000000E-01  8.50000000E-01  8.00000000E-01
  8.50000000E-01  8.50000000E-01  8.50000000E-01  8.00000000E-01  8.50000000E-01
  8.50000000E-01  8.50000000E-01  8.00000000E-01  8.50000000E-01  8.50000000E-01
  8.50000000E-01  8.00000000E-01  8.50000000E-01  8.50000000E-01  8.50000000E-01
  8.00000000E-01  8.50000000E-01  8.50000000E-01  8.50000000E-01  8.00000000E-01
  8.50000000E-01  8.50000000E-01  8.50000000E-01  8.00000000E-01  8.50000000E-01
  8.50000000E-01  8.50000000E-01  8.00000000E-01  8.50000000E-01  8.50000000E-01
  8.50000000E-01  8.00000000E-01  8.50000000E-01  8.50000000E-01  8.50000000E-01
  8.00000000E-01  8.50000000E-01  8.50000000E-01  8.50000000E-01  8.00000000E-01
  8.50000000E-01  8.50000000E-01  8.50000000E-01  8.00000000E-01  8.50000000E-01
  8.50000000E-01  8.50000000E-01  8.00000000E-01  8.50000000E-01  8.50000000E-01
  8.50000000E-01  8.00000000E-01  8.50000000E-01  8.50000000E-01  8.50000000E-01
  8.00000000E-01  8.50000000E-01  8.50000000E-01  8.50000000E-01  8.00000000E-01
  8.50000000E-01  8.50000000E-01  8.50000000E-01  8.00000000E-01  8.50000000E-01
  8.50000000E-01  8.50000000E-01  8.00000000E-01  8.50000000E-01  8.50000000E-01
  8.50000000E-01  8.00000000E-01  8.50000000E-01  8.50000000E-01  8.50000000E-01
  8.00000000E-01  8.50000000E-01  8.50000000E-01  8.50000000E-01  8.00000000E-01
  8.50000000E-01  8.50000000E-01  8.50000000E-01  8.00000000E-01  8.50000000E-01
  8.50000000E-01  8.50000000E-01  8.00000000E-01  8.50000000E-01  8.50000000E-01
  8.50000000E-01  8.00000000E-01  8.50000000E-01  8.50000000E-01  8.50000000E-01
  8.00000000E-01  8.50000000E-01  8.50000000E-01  8.50000000E-01  8.00000000E-01
  8.50000000E-01  8.50000000E-01  8.50000000E-01  8.00000000E-01  8.50000000E-01
  8.50000000E-01  8.50000000E-01  8.00000000E-01  8.50000000E-01  8.50000000E-01
  8.50000000E-01  8.00000000E-01  8.50000000E-01  8.50000000E-01  8.50000000E-01
  8.00000000E-01  8.50000000E-01  8.50000000E-01  8.50000000E-01  8.00000000E-01
  8.50000000E-01  8.50000000E-01  8.50000000E-01  8.00000000E-01  8.50000000E-01
  8.50000000E-01  8.50000000E-01  8.00000000E-01  8.50000000E-01  8.50000000E-01
  8.50000000E-01  8.00000000E-01  8.50000000E-01  8.50000000E-01  8.50000000E-01
  8.00000000E-01  8.50000000E-01  8.50000000E-01  8.50000000E-01  8.00000000E-01
  8.50000000E-01  8.50000000E-01  8.50000000E-01  8.00000000E-01  8.50000000E-01
  8.50000000E-01  8.50000000E-01  8.00000000E-01  8.50000000E-01  8.50000000E-01
  8.50000000E-01  8.00000000E-01  8.50000000E-01  8.50000000E-01  8.50000000E-01
  8.00000000E-01  8.50000000E-01  8.50000000E-01  8.50000000E-01  8.00000000E-01
  8.50000000E-01  8.50000000E-01  8.50000000E-01  8.00000000E-01  8.50000000E-01
  8.50000000E-01  8.50000000E-01  8.00000000E-01  8.50000000E-01  8.50000000E-01
  8.50000000E-01  8.00000000E-01  8.50000000E-01  8.50000000E-01  8.50000000E-01
  8.00000000E-01  8.50000000E-01  8.50000000E-01  8.50000000E-01  8.00000000E-01
  8.50000000E-01  8.50000000E-01  8.50000000E-01  8.00000000E-01  8.50000000E-01
  8.50000000E-01  8.50000000E-01  8.00000000E-01  8.50000000E-01  8.50000000E-01
  8.50000000E-01  8.00000000E-01  8.50000000E-01  8.50000000E-01  8.50000000E-01
  8.00000000E-01  8.50000000E-01  8.50000000E-01  8.50000000E-01  8.00000000E-01
  8.50000000E-01  8.50000000E-01  8.50000000E-01  8.00000000E-01  8.50000000E-01
  8.50000000E-01  8.50000000E-01  8.00000000E-01  8.50000000E-01  8.50000000E-01
  8.50000000E-01  8.00000000E-01  8.50000000E-01  8.50000000E-01  8.50000000E-01
  8.00000000E-01  8.50000000E-01  8.50000000E-01  8.50000000E-01  8.00000000E-01
  8.50000000E-01  8.50000000E-01  8.50000000E-01  8.00000000E-01  8.50000000E-01
  8.50000000E-01  8.50000000E-01  8.00000000E-01  8.50000000E-01  8.50000000E-01
  8.50000000E-01  8.00000000E-01  8.50000000E-01  8.50000000E-01  8.50000000E-01
  8.00000000E-01  8.50000000E-01  8.50000000E-01  8.50000000E-01  8.00000000E-01
  8.50000000E-01  8.50000000E-01  8.50000000E-01  8.00000000E-01  8.50000000E-01
  8.50000000E-01  8.50000000E-01  8.00000000E-01  8.50000000E-01  8.50000000E-01
  8.50000000E-01  8.00000000E-01  8.50000000E-01  8.50000000E-01  8.50000000E-01
  8.00000000E-01  8.50000000E-01  8.50000000E-01  8.50000000E-01  8.00000000E-01
  8.50000000E-01  8.50000000E-01  8.50000000E-01  8.00000000E-01  8.50000000E-01
  8.50000000E-01  8.50000000E-01  8.00000000E-01  8.50000000E-01  8.50000000E-01
  8.50000000E-01  8.00000000E-01  8.50000000E-01  8.50000000E-01  8.50000000E-01
  8.00000000E-01  8.50000000E-01  8.50000000E-01  8.50000000E-01  8.00000000E-01
  8.50000000E-01  8.50000000E-01  8.50000000E-01  8.00000000E-01  8.50000000E-01
  8.50000000E-01  8.50000000E-01  8.00000000E-01  8.50000000E-01  8.50000000E-01
  8.50000000E-01  8.00000000E-01  8.50000000E-01  8.50000000E-01  8.50000000E-01
  8.00000000E-01  8.50000000E-01  8.50000000E-01  8.50000000E-01  8.00000000E-01
  8.50000000E-01  8.50000000E-01  8.50000000E-01  8.00000000E-01  8.50000000E-01
  8.50000000E-01  8.50000000E-01  8.00000000E-01  8.50000000E-01  8.50000000E-01
  8.50000000E-01  8.00000000E-01  8.50000000E-01  8.50000000E-01  8.50000000E-01
  8.00000000E-01  8.50000000E-01  8.50000000E-01  8.50000000E-01  8.00000000E-01
  8.50000000E-01  8.50000000E-01  8.50000000E-01  8.00000000E-01  8.50000000E-01
  8.50000000E-01  8.50000000E-01  8.00000000E-01  8.50000000E-01  8.50000000E-01
  8.50000000E-01  8.00000000E-01  8.50000000E-01  8.50000000E-01  8.50000000E-01
  8.00000000E-01  8.50000000E-01  8.50000000E-01  8.50000000E-01  8.00000000E-01
  8.50000000E-01  8.50000000E-01  8.50000000E-01  8.00000000E-01  8.50000000E-01
  8.50000000E-01  8.50000000E-01  8.00000000E-01  8.50000000E-01  8.50000000E-01
  8.50000000E-01  8.00000000E-01  8.50000000E-01  8.50000000E-01  8.50000000E-01
  8.00000000E-01  8.50000000E-01  8.50000000E-01  8.50000000E-01  8.00000000E-01
  8.50000000E-01  8.50000000E-01  8.50000000E-01  8.00000000E-01  8.50000000E-01
  8.50000000E-01  8.50000000E-01  8.00000000E-01  8.50000000E-01  8.50000000E-01
  8.50000000E-01  8.00000000E-01  8.50000000E-01  8.50000000E-01  8.50000000E-01
  8.00000000E-01  8.50000000E-01  8.50000000E-01  8.50000000E-01  8.00000000E-01
  8.50000000E-01  8.50000000E-01  8.50000000E-01  8.00000000E-01  8.50000000E-01
  8.50000000E-01  8.50000000E-01  8.00000000E-01  8.50000000E-01  8.50000000E-01
  8.50000000E-01  8.00000000E-01  8.50000000E-01  8.50000000E-01  8.50000000E-01
  8.00000000E-01  8.50000000E-01  8.50000000E-01  8.50000000E-01  8.00000000E-01
  8.50000000E-01  8.50000000E-01  8.50000000E-01  8.00000000E-01  8.50000000E-01
  8.50000000E-01  8.50000000E-01  8.00000000E-01  8.50000000E-01  8.50000000E-01
  8.50000000E-01  8.00000000E-01  8.50000000E-01  8.50000000E-01  8.50000000E-01
  8.00000000E-01  8.50000000E-01  8.50000000E-01  8.50000000E-01  8.00000000E-01
  8.50000000E-01  8.50000000E-01  8.50000000E-01  8.00000000E-01  8.50000000E-01
  8.50000000E-01  8.50000000E-01  8.00000000E-01  8.50000000E-01  8.50000000E-01
  8.50000000E-01  8.00000000E-01  8.50000000E-01  8.50000000E-01  8.50000000E-01
  8.00000000E-01  8.50000000E-01  8.50000000E-01  8.50000000E-01  8.00000000E-01
  8.50000000E-01  8.50000000E-01  8.50000000E-01  8.00000000E-01  8.50000000E-01
  8.50000000E-01  8.50000000E-01  8.00000000E-01  8.50000000E-01  8.50000000E-01
  8.50000000E-01  8.00000000E-01  8.50000000E-01  8.50000000E-01  8.50000000E-01
  8.00000000E-01  8.50000000E-01  8.50000000E-01  8.50000000E-01  8.00000000E-01
  8.50000000E-01  8.50000000E-01  8.50000000E-01  8.00000000E-01  8.50000000E-01
  8.50000000E-01  8.50000000E-01  8.00000000E-01  8.50000000E-01  8.50000000E-01
  8.50000000E-01  8.00000000E-01  8.50000000E-01  8.50000000E-01  8.50000000E-01
  8.00000000E-01  8.50000000E-01  8.50000000E-01  8.50000000E-01  8.00000000E-01
  8.50000000E-01  8.50000000E-01  8.50000000E-01  8.00000000E-01  8.50000000E-01
  8.50000000E-01  8.50000000E-01  8.00000000E-01  8.50000000E-01  8.50000000E-01
  8.50000000E-01  8.00000000E-01  8.50000000E-01  8.50000000E-01  8.50000000E-01
  8.00000000E-01  8.50000000E-01  8.50000000E-01  8.50000000E-01  8.00000000E-01
  8.50000000E-01  8.50000000E-01  8.50000000E-01  8.00000000E-01  8.50000000E-01
  8.50000000E-01  8.50000000E-01  8.00000000E-01  8.50000000E-01  8.50000000E-01
  8.50000000E-01  8.00000000E-01  8.50000000E-01  8.50000000E-01  8.50000000E-01
  8.00000000E-01  8.50000000E-01  8.50000000E-01  8.50000000E-01  8.00000000E-01
  8.50000000E-01  8.50000000E-01  8.50000000E-01  8.00000000E-01  8.50000000E-01
  8.50000000E-01  8.50000000E-01  8.00000000E-01  8.50000000E-01  8.50000000E-01
  8.50000000E-01  8.00000000E-01  8.50000000E-01  8.50000000E-01  8.50000000E-01
  8.00000000E-01  8.50000000E-01  8.50000000E-01  8.50000000E-01  8.00000000E-01
  8.50000000E-01  8.50000000E-01  8.50000000E-01  8.00000000E-01  8.50000000E-01
  8.50000000E-01  8.50000000E-01  8.00000000E-01  8.50000000E-01  8.50000000E-01
  8.50000000E-01  8.00000000E-01  8.50000000E-01  8.50000000E-01  8.50000000E-01
  8.00000000E-01  8.50000000E-01  8.50000000E-01  8.50000000E-01  8.00000000E-01
  8.50000000E-01  8.50000000E-01  8.50000000E-01  8.00000000E-01  8.50000000E-01
  8.50000000E-01  8.50000000E-01  8.00000000E-01  8.50000000E-01  8.50000000E-01
  8.50000000E-01  8.00000000E-01  8.50000000E-01  8.50000000E-01  8.50000000E-01
  8.00000000E-01  8.50000000E-01  8.50000000E-01  8.50000000E-01  8.00000000E-01
  8.50000000E-01  8.50000000E-01  8.50000000E-01  8.00000000E-01  8.50000000E-01
  8.50000000E-01  8.50000000E-01  8.00000000E-01  8.50000000E-01  8.50000000E-01
  8.50000000E-01  8.00000000E-01  8.50000000E-01  8.50000000E-01  8.50000000E-01
  8.00000000E-01  8.50000000E-01  8.50000000E-01  8.50000000E-01  8.00000000E-01
  8.50000000E-01  8.50000000E-01  8.50000000E-01  8.00000000E-01  8.50000000E-01
  8.50000000E-01  8.50000000E-01  8.00000000E-01  8.50000000E-01  8.50000000E-01
  8.50000000E-01  8.00000000E-01  8.50000000E-01  8.50000000E-01  8.50000000E-01
  8.00000000E-01  8.50000000E-01  8.50000000E-01  8.50000000E-01  8.00000000E-01
  8.50000000E-01  8.50000000E-01  8.50000000E-01  8.00000000E-01  8.50000000E-01
  8.50000000E-01  8.50000000E-01  8.00000000E-01  8.50000000E-01  8.50000000E-01
  8.50000000E-01  8.00000000E-01  8.50000000E-01  8.50000000E-01  8.50000000E-01
  8.00000000E-01  8.50000000E-01  8.50000000E-01  8.50000000E-01  8.00000000E-01
  8.50000000E-01  8.50000000E-01  8.50000000E-01  8.00000000E-01  8.50000000E-01
  8.50000000E-01  8.50000000E-01  8.00000000E-01  8.50000000E-01  8.50000000E-01
  8.50000000E-01  8.00000000E-01  8.50000000E-01  8.50000000E-01  8.50000000E-01
  8.00000000E-01  8.50000000E-01  8.50000000E-01  8.50000000E-01  8.00000000E-01
  8.50000000E-01  8.50000000E-01  8.50000000E-01  8.00000000E-01  8.50000000E-01
  8.50000000E-01  8.50000000E-01  8.00000000E-01  8.50000000E-01  8.50000000E-01
  8.50000000E-01  8.00000000E-01  8.50000000E-01  8.50000000E-01  8.50000000E-01
  8.00000000E-01  8.50000000E-01  8.50000000E-01  8.50000000E-01  8.00000000E-01
  8.50000000E-01  8.50000000E-01  8.50000000E-01  8.00000000E-01  8.50000000E-01
  8.50000000E-01  8.50000000E-01  8.00000000E-01  8.50000000E-01  8.50000000E-01
  8.50000000E-01  8.00000000E-01  8.50000000E-01  8.50000000E-01  8.50000000E-01
  8.00000000E-01  8.50000000E-01  8.50000000E-01  8.50000000E-01  8.00000000E-01
  8.50000000E-01  8.50000000E-01  8.50000000E-01  8.00000000E-01  8.50000000E-01
  8.50000000E-01  8.50000000E-01  8.00000000E-01  8.50000000E-01  8.50000000E-01
  8.50000000E-01  8.00000000E-01  8.50000000E-01  8.50000000E-01  8.50000000E-01
  8.00000000E-01  8.50000000E-01  8.50000000E-01  8.50000000E-01  8.00000000E-01
  8.50000000E-01  8.50000000E-01  8.50000000E-01  8.00000000E-01  8.50000000E-01
  8.50000000E-01  8.50000000E-01  8.00000000E-01  8.50000000E-01  8.50000000E-01
  8.50000000E-01  8.00000000E-01  8.50000000E-01  8.50000000E-01  8.50000000E-01
  8.00000000E-01  8.50000000E-01  8.50000000E-01  8.50000000E-01  8.00000000E-01
  8.50000000E-01  8.50000000E-01  8.50000000E-01  8.00000000E-01  8.50000000E-01
  8.50000000E-01  8.50000000E-01  8.00000000E-01  8.50000000E-01  8.50000000E-01
  8.50000000E-01  8.00000000E-01  8.50000000E-01  8.50000000E-01  8.50000000E-01
  8.00000000E-01  8.50000000E-01  8.50000000E-01  8.50000000E-01  8.00000000E-01
  8.50000000E-01  8.50000000E-01  8.50000000E-01  8.00000000E-01  8.50000000E-01
  8.50000000E-01  8.50000000E-01  8.00000000E-01  8.50000000E-01  8.50000000E-01
  8.50000000E-01  8.00000000E-01  8.50000000E-01  8.50000000E-01  8.50000000E-01
  8.00000000E-01  8.50000000E-01  8.50000000E-01  8.50000000E-01  8.00000000E-01
  8.50000000E-01  8.50000000E-01  8.50000000E-01  8.00000000E-01  8.50000000E-01
  8.50000000E-01  8.50000000E-01  8.00000000E-01  8.50000000E-01  8.50000000E-01
  8.50000000E-01  8.00000000E-01  8.50000000E-01  8.50000000E-01  8.50000000E-01
  8.00000000E-01  8.50000000E-01  8.50000000E-01  8.50000000E-01  8.00000000E-01
  8.50000000E-01  8.50000000E-01  8.50000000E-01  8.00000000E-01  8.50000000E-01
  8.50000000E-01  8.50000000E-01  8.00000000E-01  8.50000000E-01  8.50000000E-01
  8.50000000E-01  8.00000000E-01  8.50000000E-01  8.50000000E-01  8.50000000E-01
  8.00000000E-01  8.50000000E-01  8.50000000E-01  8.50000000E-01  8.00000000E-01
  8.50000000E-01  8.50000000E-01  8.50000000E-01  8.00000000E-01  8.50000000E-01
  8.50000000E-01  8.50000000E-01  8.00000000E-01  8.50000000E-01  8.50000000E-01
  8.50000000E-01  8.00000000E-01  8.50000000E-01  8.50000000E-01  8.50000000E-01
  8.00000000E-01  8.50000000E-01  8.50000000E-01  8.50000000E-01  8.00000000E-01
  8.50000000E-01  8.50000000E-01  8.50000000E-01  8.00000000E-01  8.50000000E-01
  8.50000000E-01  8.50000000E-01  8.00000000E-01  8.50000000E-01  8.50000000E-01
  8.50000000E-01  8.00000000E-01  8.50000000E-01  8.50000000E-01  8.50000000E-01
  8.00000000E-01  8.50000000E-01  8.50000000E-01  8.50000000E-01  8.00000000E-01
  8.50000000E-01  8.50000000E-01  8.50000000E-01  8.00000000E-01  8.50000000E-01
  8.50000000E-01  8.50000000E-01  8.00000000E-01  8.50000000E-01  8.50000000E-01
  8.50000000E-01  8.00000000E-01  8.50000000E-01  8.50000000E-01  8.50000000E-01
  8.00000000E-01  8.50000000E-01  8.50000000E-01  8.50000000E-01  8.00000000E-01
  8.50000000E-01  8.50000000E-01  8.50000000E-01  8.00000000E-01  8.50000000E-01
  8.50000000E-01  8.50000000E-01  8.00000000E-01  8.50000000E-01  8.50000000E-01
  8.50000000E-01  8.00000000E-01  8.50000000E-01  8.50000000E-01  8.50000000E-01
  8.00000000E-01  8.50000000E-01  8.50000000E-01  8.50000000E-01  8.00000000E-01
  8.50000000E-01  8.50000000E-01  8.50000000E-01  8.00000000E-01  8.50000000E-01
  8.50000000E-01  8.50000000E-01  8.00000000E-01  8.50000000E-01  8.50000000E-01
  8.50000000E-01  8.00000000E-01  8.50000000E-01  8.50000000E-01  8.50000000E-01
  8.00000000E-01  8.50000000E-01  8.50000000E-01  8.50000000E-01  8.00000000E-01
  8.50000000E-01  8.50000000E-01  8.50000000E-01  8.00000000E-01  8.50000000E-01
  8.50000000E-01  8.50000000E-01  8.00000000E-01  8.50000000E-01  8.50000000E-01
  8.50000000E-01  8.00000000E-01  8.50000000E-01  8.50000000E-01  8.50000000E-01
  8.00000000E-01  8.50000000E-01  8.50000000E-01  8.50000000E-01  8.00000000E-01
  8.50000000E-01  8.50000000E-01  8.50000000E-01  8.00000000E-01  8.50000000E-01
  8.50000000E-01  8.50000000E-01  8.00000000E-01  8.50000000E-01  8.50000000E-01
  8.50000000E-01  8.00000000E-01  8.50000000E-01  8.50000000E-01  8.50000000E-01
  8.00000000E-01  8.50000000E-01  8.50000000E-01  8.50000000E-01  8.00000000E-01
  8.50000000E-01  8.50000000E-01  8.50000000E-01  8.00000000E-01  8.50000000E-01
  8.50000000E-01  8.50000000E-01  8.00000000E-01  8.50000000E-01  8.50000000E-01
  8.50000000E-01  8.00000000E-01  8.50000000E-01  8.50000000E-01  8.50000000E-01
  8.00000000E-01  8.50000000E-01  8.50000000E-01  8.50000000E-01  8.00000000E-01
  8.50000000E-01  8.50000000E-01  8.50000000E-01  8.00000000E-01  8.50000000E-01
  8.50000000E-01  8.50000000E-01  8.00000000E-01  8.50000000E-01  8.50000000E-01
  8.50000000E-01  8.00000000E-01  8.50000000E-01  8.50000000E-01  8.50000000E-01
  8.00000000E-01  8.50000000E-01  8.50000000E-01  8.50000000E-01  8.00000000E-01
  8.50000000E-01  8.50000000E-01  8.50000000E-01  8.00000000E-01  8.50000000E-01
  8.50000000E-01  8.50000000E-01  8.00000000E-01  8.50000000E-01  8.50000000E-01
  8.50000000E-01  8.00000000E-01  8.50000000E-01  8.50000000E-01  8.50000000E-01
  8.00000000E-01  8.50000000E-01  8.50000000E-01  8.50000000E-01  8.00000000E-01
  8.50000000E-01  8.50000000E-01  8.50000000E-01  8.00000000E-01  8.50000000E-01
  8.50000000E-01  8.50000000E-01  8.00000000E-01  8.50000000E-01  8.50000000E-01
  8.50000000E-01  8.00000000E-01  8.50000000E-01  8.50000000E-01  8.50000000E-01
  8.00000000E-01  8.50000000E-01  8.50000000E-01  8.50000000E-01  8.00000000E-01
  8.50000000E-01  8.50000000E-01  8.50000000E-01  8.00000000E-01  8.50000000E-01
  8.50000000E-01  8.50000000E-01  8.00000000E-01  8.50000000E-01  8.50000000E-01
  8.50000000E-01  8.00000000E-01  8.50000000E-01  8.50000000E-01  8.50000000E-01
  8.00000000E-01  8.50000000E-01  8.50000000E-01  8.50000000E-01  8.00000000E-01
  8.50000000E-01  8.50000000E-01  8.50000000E-01  8.00000000E-01  8.50000000E-01
  8.50000000E-01  8.50000000E-01  8.00000000E-01  8.50000000E-01  8.50000000E-01
  8.50000000E-01  8.00000000E-01  8.50000000E-01  8.50000000E-01  8.50000000E-01
  8.00000000E-01  8.50000000E-01  8.50000000E-01  8.50000000E-01  8.00000000E-01
  8.50000000E-01  8.50000000E-01  8.50000000E-01  8.00000000E-01  8.50000000E-01
  8.50000000E-01  8.50000000E-01  8.00000000E-01  8.50000000E-01  8.50000000E-01
  8.50000000E-01  8.00000000E-01  8.50000000E-01  8.50000000E-01  8.50000000E-01
  8.00000000E-01  8.50000000E-01  8.50000000E-01  8.50000000E-01  8.00000000E-01
  8.50000000E-01  8.50000000E-01  8.50000000E-01  8.00000000E-01  8.50000000E-01
  8.50000000E-01  8.50000000E-01  8.00000000E-01  8.50000000E-01  8.50000000E-01
  8.50000000E-01  8.00000000E-01  8.50000000E-01  8.50000000E-01  8.50000000E-01
  8.00000000E-01  8.50000000E-01  8.50000000E-01  8.50000000E-01  8.00000000E-01
  8.50000000E-01  8.50000000E-01  8.50000000E-01  8.00000000E-01  8.50000000E-01
  8.50000000E-01  8.50000000E-01  8.00000000E-01  8.50000000E-01  8.50000000E-01
  8.50000000E-01  8.00000000E-01  8.50000000E-01  8.50000000E-01  8.50000000E-01
  8.00000000E-01  8.50000000E-01  8.50000000E-01  8.50000000E-01  8.00000000E-01
  8.50000000E-01  8.50000000E-01  8.50000000E-01  8.00000000E-01  8.50000000E-01
  8.50000000E-01  8.50000000E-01  8.00000000E-01  8.50000000E-01  8.50000000E-01
  8.50000000E-01  8.00000000E-01  8.50000000E-01  8.50000000E-01  8.50000000E-01
  8.00000000E-01  8.50000000E-01  8.50000000E-01  8.50000000E-01  8.00000000E-01
  8.50000000E-01  8.50000000E-01  8.50000000E-01  8.00000000E-01  8.50000000E-01
  8.50000000E-01  8.50000000E-01  8.00000000E-01  8.50000000E-01  8.50000000E-01
  8.50000000E-01  8.00000000E-01  8.50000000E-01  8.50000000E-01  8.50000000E-01
  8.00000000E-01  8.50000000E-01  8.50000000E-01  8.50000000E-01  8.00000000E-01
  8.50000000E-01  8.50000000E-01  8.50000000E-01  8.00000000E-01  8.50000000E-01
  8.50000000E-01  8.50000000E-01  8.00000000E-01  8.50000000E-01  8.50000000E-01
  8.50000000E-01  8.00000000E-01  8.50000000E-01  8.50000000E-01  8.50000000E-01
  8.00000000E-01  8.50000000E-01  8.50000000E-01  8.50000000E-01  8.00000000E-01
  8.50000000E-01  8.50000000E-01  8.50000000E-01  8.00000000E-01  8.50000000E-01
  8.50000000E-01  8.50000000E-01  8.00000000E-01  8.50000000E-01  8.50000000E-01
  8.50000000E-01  8.00000000E-01  8.50000000E-01  8.50000000E-01  8.50000000E-01
  8.00000000E-01  8.50000000E-01  8.50000000E-01  8.50000000E-01  8.00000000E-01
  8.50000000E-01  8.50000000E-01  8.50000000E-01  8.00000000E-01  8.50000000E-01
  8.50000000E-01  8.50000000E-01  8.00000000E-01  8.50000000E-01  8.50000000E-01
  8.50000000E-01  8.00000000E-01  8.50000000E-01  8.50000000E-01  8.50000000E-01
  8.00000000E-01  8.50000000E-01  8.50000000E-01  8.50000000E-01  8.00000000E-01
  8.50000000E-01  8.50000000E-01  8.50000000E-01  8.00000000E-01  8.50000000E-01
  8.50000000E-01  8.50000000E-01  8.00000000E-01  8.50000000E-01  8.50000000E-01
  8.50000000E-01  8.00000000E-01  8.50000000E-01  8.50000000E-01  8.50000000E-01
  8.00000000E-01  8.50000000E-01  8.50000000E-01  8.50000000E-01  8.00000000E-01
  8.50000000E-01  8.50000000E-01  8.50000000E-01  8.00000000E-01  8.50000000E-01
  8.50000000E-01  8.50000000E-01  8.00000000E-01  8.50000000E-01  8.50000000E-01
  8.50000000E-01  8.00000000E-01  8.50000000E-01  8.50000000E-01  8.50000000E-01
  8.00000000E-01  8.50000000E-01  8.50000000E-01  8.50000000E-01  8.00000000E-01
  8.50000000E-01  8.50000000E-01  8.50000000E-01  8.00000000E-01  8.50000000E-01
  8.50000000E-01  8.50000000E-01  8.00000000E-01  8.50000000E-01  8.50000000E-01
  8.50000000E-01  8.00000000E-01  8.50000000E-01  8.50000000E-01  8.50000000E-01
  8.00000000E-01  8.50000000E-01  8.50000000E-01  8.50000000E-01  8.00000000E-01
  8.50000000E-01  8.50000000E-01  8.50000000E-01  8.00000000E-01  8.50000000E-01
  8.50000000E-01  8.50000000E-01  8.00000000E-01  8.50000000E-01  8.50000000E-01
  8.50000000E-01  8.00000000E-01  8.50000000E-01  8.50000000E-01  8.50000000E-01
  8.00000000E-01  8.50000000E-01  8.50000000E-01  8.50000000E-01  8.00000000E-01
  8.50000000E-01  8.50000000E-01  8.50000000E-01  8.00000000E-01  8.50000000E-01
  8.50000000E-01  8.50000000E-01  8.00000000E-01  8.50000000E-01  8.50000000E-01
  8.50000000E-01  8.00000000E-01  8.50000000E-01  8.50000000E-01  8.50000000E-01
  8.00000000E-01  8.50000000E-01  8.50000000E-01  8.50000000E-01  8.00000000E-01
  8.50000000E-01  8.50000000E-01  8.50000000E-01  8.00000000E-01  8.50000000E-01
  8.50000000E-01  8.50000000E-01  8.00000000E-01  8.50000000E-01  8.50000000E-01
  8.50000000E-01  8.00000000E-01  8.50000000E-01  8.50000000E-01  8.50000000E-01
  8.00000000E-01  8.50000000E-01  8.50000000E-01  8.50000000E-01  8.00000000E-01
  8.50000000E-01  8.50000000E-01  8.50000000E-01  8.00000000E-01  8.50000000E-01
  8.50000000E-01  8.50000000E-01  8.00000000E-01  8.50000000E-01  8.50000000E-01
  8.50000000E-01  8.00000000E-01  8.50000000E-01  8.50000000E-01  8.50000000E-01
  8.00000000E-01  8.50000000E-01  8.50000000E-01  8.50000000E-01  8.00000000E-01
  8.50000000E-01  8.50000000E-01  8.50000000E-01  8.00000000E-01  8.50000000E-01
  8.50000000E-01  8.50000000E-01  8.00000000E-01  8.50000000E-01  8.50000000E-01
  8.50000000E-01  8.00000000E-01  8.50000000E-01  8.50000000E-01  8.50000000E-01
  8.00000000E-01  8.50000000E-01  8.50000000E-01  8.50000000E-01  8.00000000E-01
  8.50000000E-01  8.50000000E-01  8.50000000E-01  8.00000000E-01  8.50000000E-01
  8.50000000E-01  8.50000000E-01  8.00000000E-01  8.50000000E-01  8.50000000E-01
  8.50000000E-01  8.00000000E-01  8.50000000E-01  8.50000000E-01  8.50000000E-01
  8.00000000E-01  8.50000000E-01  8.50000000E-01  8.50000000E-01  8.00000000E-01
  8.50000000E-01  8.50000000E-01  8.50000000E-01  8.00000000E-01  8.50000000E-01
  8.50000000E-01  8.50000000E-01  8.00000000E-01  8.50000000E-01  8.50000000E-01
  8.50000000E-01  8.00000000E-01  8.50000000E-01  8.50000000E-01  8.50000000E-01
  8.00000000E-01  8.50000000E-01  8.50000000E-01  8.50000000E-01  8.00000000E-01
  8.50000000E-01  8.50000000E-01  8.50000000E-01  8.00000000E-01  8.50000000E-01
  8.50000000E-01  8.50000000E-01  8.00000000E-01  8.50000000E-01  8.50000000E-01
  8.50000000E-01  8.00000000E-01  8.50000000E-01  8.50000000E-01  8.50000000E-01
  8.00000000E-01  8.50000000E-01  8.50000000E-01  8.50000000E-01  8.00000000E-01
  8.50000000E-01  8.50000000E-01  8.50000000E-01  8.00000000E-01  8.50000000E-01
  8.50000000E-01  8.50000000E-01  8.00000000E-01  8.50000000E-01  8.50000000E-01
  8.50000000E-01  8.00000000E-01  8.50000000E-01  8.50000000E-01  8.50000000E-01
  8.00000000E-01  8.50000000E-01  8.50000000E-01  8.50000000E-01  8.00000000E-01
  8.50000000E-01  8.50000000E-01  8.50000000E-01  8.00000000E-01  8.50000000E-01
  8.50000000E-01  8.50000000E-01  8.00000000E-01  8.50000000E-01  8.50000000E-01
  8.50000000E-01  8.00000000E-01  8.50000000E-01  8.50000000E-01  8.50000000E-01
  8.00000000E-01  8.50000000E-01  8.50000000E-01  8.50000000E-01  8.00000000E-01
  8.50000000E-01  8.50000000E-01  8.50000000E-01  8.00000000E-01  8.50000000E-01
  8.50000000E-01  8.50000000E-01  8.00000000E-01  8.50000000E-01  8.50000000E-01
  8.50000000E-01  8.00000000E-01  8.50000000E-01  8.50000000E-01  8.50000000E-01
  8.00000000E-01  8.50000000E-01  8.50000000E-01  8.50000000E-01  8.00000000E-01
  8.50000000E-01  8.50000000E-01  8.50000000E-01  8.00000000E-01  8.50000000E-01
  8.50000000E-01  8.50000000E-01  8.00000000E-01  8.50000000E-01  8.50000000E-01
  8.50000000E-01  8.00000000E-01  8.50000000E-01  8.50000000E-01  8.50000000E-01
  8.00000000E-01  8.50000000E-01  8.50000000E-01  8.50000000E-01  8.00000000E-01
  8.50000000E-01  8.50000000E-01  8.50000000E-01  8.00000000E-01  8.50000000E-01
  8.50000000E-01  8.50000000E-01  8.00000000E-01  8.50000000E-01  8.50000000E-01
  8.50000000E-01  8.00000000E-01  8.50000000E-01  8.50000000E-01  8.50000000E-01
  8.00000000E-01  8.50000000E-01  8.50000000E-01  8.50000000E-01  8.00000000E-01
  8.50000000E-01  8.50000000E-01  8.50000000E-01  8.00000000E-01  8.50000000E-01
  8.50000000E-01  8.50000000E-01  8.00000000E-01  8.50000000E-01  8.50000000E-01
  8.50000000E-01  8.00000000E-01  8.50000000E-01  8.50000000E-01  8.50000000E-01
  8.00000000E-01  8.50000000E-01  8.50000000E-01  8.50000000E-01  8.00000000E-01
  8.50000000E-01  8.50000000E-01  8.50000000E-01  8.00000000E-01  8.50000000E-01
  8.50000000E-01  8.50000000E-01  8.00000000E-01  8.50000000E-01  8.50000000E-01
  8.50000000E-01  8.00000000E-01  8.50000000E-01  8.50000000E-01  8.50000000E-01
  8.00000000E-01  8.50000000E-01  8.50000000E-01  8.50000000E-01  8.00000000E-01
  8.50000000E-01  8.50000000E-01  8.50000000E-01  8.00000000E-01  8.50000000E-01
  8.50000000E-01  8.50000000E-01  8.00000000E-01  8.50000000E-01  8.50000000E-01
  8.50000000E-01  8.00000000E-01  8.50000000E-01  8.50000000E-01  8.50000000E-01
  8.00000000E-01  8.50000000E-01  8.50000000E-01  8.50000000E-01  8.00000000E-01
  8.50000000E-01  8.50000000E-01  8.50000000E-01  8.00000000E-01  8.50000000E-01
  8.50000000E-01  8.50000000E-01  8.00000000E-01  8.50000000E-01  8.50000000E-01
  8.50000000E-01  8.00000000E-01  8.50000000E-01  8.50000000E-01  8.50000000E-01
  8.00000000E-01  8.50000000E-01  8.50000000E-01  8.50000000E-01  8.00000000E-01
  8.50000000E-01  8.50000000E-01  8.50000000E-01  8.00000000E-01  8.50000000E-01
  8.50000000E-01  8.50000000E-01  8.00000000E-01  8.50000000E-01  8.50000000E-01
  8.50000000E-01  8.00000000E-01  8.50000000E-01  8.50000000E-01  8.50000000E-01
  8.00000000E-01  8.50000000E-01  8.50000000E-01  8.50000000E-01  8.00000000E-01
  8.50000000E-01  8.50000000E-01  8.50000000E-01  8.00000000E-01  8.50000000E-01
  8.50000000E-01  8.50000000E-01  8.00000000E-01  8.50000000E-01  8.50000000E-01
  8.50000000E-01  8.00000000E-01  8.50000000E-01  8.50000000E-01  8.50000000E-01
  8.00000000E-01  8.50000000E-01  8.50000000E-01  8.50000000E-01  8.00000000E-01
  8.50000000E-01  8.50000000E-01  8.50000000E-01  8.00000000E-01  8.50000000E-01
  8.50000000E-01  8.50000000E-01  8.00000000E-01  8.50000000E-01  8.50000000E-01
  8.50000000E-01  8.00000000E-01  8.50000000E-01  8.50000000E-01  8.50000000E-01
  8.00000000E-01  8.50000000E-01  8.50000000E-01  8.50000000E-01  8.00000000E-01
  8.50000000E-01  8.50000000E-01  8.50000000E-01  8.00000000E-01  8.50000000E-01
  8.50000000E-01  8.50000000E-01  8.00000000E-01  8.50000000E-01  8.50000000E-01
  8.50000000E-01  8.00000000E-01  8.50000000E-01  8.50000000E-01  8.50000000E-01
  8.00000000E-01  8.50000000E-01  8.50000000E-01  8.50000000E-01  8.00000000E-01
  8.50000000E-01  8.50000000E-01  8.50000000E-01  8.00000000E-01  8.50000000E-01
  8.50000000E-01  8.50000000E-01  8.00000000E-01  8.50000000E-01  8.50000000E-01
  8.50000000E-01  8.00000000E-01  8.50000000E-01  8.50000000E-01  8.50000000E-01
  8.00000000E-01  8.50000000E-01  8.50000000E-01  8.50000000E-01  8.00000000E-01
  8.50000000E-01  8.50000000E-01  8.50000000E-01  8.00000000E-01  8.50000000E-01
  8.50000000E-01  8.50000000E-01  8.00000000E-01  8.50000000E-01  8.50000000E-01
  8.50000000E-01  8.00000000E-01  8.50000000E-01  8.50000000E-01  8.50000000E-01
  8.00000000E-01  8.50000000E-01  8.50000000E-01  8.50000000E-01  8.00000000E-01
  8.50000000E-01  8.50000000E-01  8.50000000E-01  8.00000000E-01  8.50000000E-01
  8.50000000E-01  8.50000000E-01  8.00000000E-01  8.50000000E-01  8.50000000E-01
  8.50000000E-01  8.00000000E-01  8.50000000E-01  8.50000000E-01  8.50000000E-01
  8.00000000E-01  8.50000000E-01  8.50000000E-01  8.50000000E-01  8.00000000E-01
  8.50000000E-01  8.50000000E-01  8.50000000E-01  8.00000000E-01  8.50000000E-01
  8.50000000E-01  8.50000000E-01  8.00000000E-01  8.50000000E-01  8.50000000E-01
  8.50000000E-01  8.00000000E-01  8.50000000E-01  8.50000000E-01  8.50000000E-01
  8.00000000E-01  8.50000000E-01  8.50000000E-01  8.50000000E-01  8.00000000E-01
  8.50000000E-01  8.50000000E-01  8.50000000E-01  8.00000000E-01  8.50000000E-01
  8.50000000E-01  8.50000000E-01  8.00000000E-01  8.50000000E-01  8.50000000E-01
  8.50000000E-01  8.00000000E-01  8.50000000E-01  8.50000000E-01  8.50000000E-01
  8.00000000E-01  8.50000000E-01  8.50000000E-01  8.50000000E-01  8.00000000E-01
  8.50000000E-01  8.50000000E-01  8.50000000E-01  8.00000000E-01  8.50000000E-01
  8.50000000E-01  8.50000000E-01  8.00000000E-01  8.50000000E-01  8.50000000E-01
  8.50000000E-01  8.00000000E-01  8.50000000E-01  8.50000000E-01  8.50000000E-01
  8.00000000E-01  8.50000000E-01  8.50000000E-01  8.50000000E-01  8.00000000E-01
  8.50000000E-01  8.50000000E-01  8.50000000E-01  8.00000000E-01  8.50000000E-01
  8.50000000E-01  8.50000000E-01  8.00000000E-01  8.50000000E-01  8.50000000E-01
  8.50000000E-01  8.00000000E-01  8.50000000E-01  8.50000000E-01  8.50000000E-01
  8.00000000E-01  8.50000000E-01  8.50000000E-01  8.50000000E-01  8.00000000E-01
  8.50000000E-01  8.50000000E-01  8.50000000E-01  8.00000000E-01  8.50000000E-01
  8.50000000E-01  8.50000000E-01  8.00000000E-01  8.50000000E-01  8.50000000E-01
  8.50000000E-01  8.00000000E-01  8.50000000E-01  8.50000000E-01  8.50000000E-01
  8.00000000E-01  8.50000000E-01  8.50000000E-01  8.50000000E-01  8.00000000E-01
  8.50000000E-01  8.50000000E-01  8.50000000E-01  8.00000000E-01  8.50000000E-01
  8.50000000E-01  8.50000000E-01  8.00000000E-01  8.50000000E-01  8.50000000E-01
  8.50000000E-01  8.00000000E-01  8.50000000E-01  8.50000000E-01  8.50000000E-01
  8.00000000E-01  8.50000000E-01  8.50000000E-01  8.50000000E-01  8.00000000E-01
  8.50000000E-01  8.50000000E-01  8.50000000E-01  8.00000000E-01  8.50000000E-01
  8.50000000E-01  8.50000000E-01  8.00000000E-01  8.50000000E-01  8.50000000E-01
  8.50000000E-01  8.00000000E-01  8.50000000E-01  8.50000000E-01  8.50000000E-01
  8.00000000E-01  8.50000000E-01  8.50000000E-01  8.50000000E-01  8.00000000E-01
  8.50000000E-01  8.50000000E-01  8.50000000E-01  8.00000000E-01  8.50000000E-01
  8.50000000E-01  8.50000000E-01  8.00000000E-01  8.50000000E-01  8.50000000E-01
  8.50000000E-01  8.00000000E-01  8.50000000E-01  8.50000000E-01  8.50000000E-01
  8.00000000E-01  8.50000000E-01  8.50000000E-01  8.50000000E-01  8.00000000E-01
  8.50000000E-01  8.50000000E-01  8.50000000E-01  8.00000000E-01  8.50000000E-01
  8.50000000E-01  8.50000000E-01  8.00000000E-01  8.50000000E-01  8.50000000E-01
  8.50000000E-01  8.00000000E-01  8.50000000E-01  8.50000000E-01  8.50000000E-01
  8.00000000E-01  8.50000000E-01  8.50000000E-01  8.50000000E-01  8.00000000E-01
  8.50000000E-01  8.50000000E-01  8.50000000E-01  8.00000000E-01  8.50000000E-01
  8.50000000E-01  8.50000000E-01  8.00000000E-01  8.50000000E-01  8.50000000E-01
  8.50000000E-01  8.00000000E-01  8.50000000E-01  8.50000000E-01  8.50000000E-01
  8.00000000E-01  8.50000000E-01  8.50000000E-01  8.50000000E-01  8.00000000E-01
  8.50000000E-01  8.50000000E-01  8.50000000E-01  8.00000000E-01  8.50000000E-01
  8.50000000E-01  8.50000000E-01  8.00000000E-01  8.50000000E-01  8.50000000E-01
  8.50000000E-01  8.00000000E-01  8.50000000E-01  8.50000000E-01  8.50000000E-01
  8.00000000E-01  8.50000000E-01  8.50000000E-01  8.50000000E-01  8.00000000E-01
  8.50000000E-01  8.50000000E-01  8.50000000E-01  8.00000000E-01  8.50000000E-01
  8.50000000E-01  8.50000000E-01  8.00000000E-01  8.50000000E-01  8.50000000E-01
  8.50000000E-01  8.00000000E-01  8.50000000E-01  8.50000000E-01  8.50000000E-01
  8.00000000E-01  8.50000000E-01  8.50000000E-01  8.50000000E-01  8.00000000E-01
  8.50000000E-01  8.50000000E-01  8.50000000E-01  8.00000000E-01  8.50000000E-01
  8.50000000E-01  8.50000000E-01  8.00000000E-01  8.50000000E-01  8.50000000E-01
  8.50000000E-01  8.00000000E-01  8.50000000E-01  8.50000000E-01  8.50000000E-01
  8.00000000E-01  8.50000000E-01  8.50000000E-01  8.50000000E-01  8.00000000E-01
  8.50000000E-01  8.50000000E-01  8.50000000E-01  8.00000000E-01  8.50000000E-01
  8.50000000E-01  8.50000000E-01  8.00000000E-01  8.50000000E-01  8.50000000E-01
  8.50000000E-01  8.00000000E-01  8.50000000E-01  8.50000000E-01  8.50000000E-01
  8.00000000E-01  8.50000000E-01  8.50000000E-01  8.50000000E-01  8.00000000E-01
  8.50000000E-01  8.50000000E-01  8.50000000E-01  8.00000000E-01  8.50000000E-01
  8.50000000E-01  8.50000000E-01  8.00000000E-01  8.50000000E-01  8.50000000E-01
  8.50000000E-01  8.00000000E-01  8.50000000E-01  8.50000000E-01  8.50000000E-01
  8.00000000E-01  8.50000000E-01  8.50000000E-01  8.50000000E-01  8.00000000E-01
  8.50000000E-01  8.50000000E-01  8.50000000E-01  8.00000000E-01  8.50000000E-01
  8.50000000E-01  8.50000000E-01  8.00000000E-01  8.50000000E-01  8.50000000E-01
  8.50000000E-01  8.00000000E-01  8.50000000E-01  8.50000000E-01  8.50000000E-01
  8.00000000E-01  8.50000000E-01  8.50000000E-01  8.50000000E-01  8.00000000E-01
  8.50000000E-01  8.50000000E-01  8.50000000E-01  8.00000000E-01  8.50000000E-01
  8.50000000E-01  8.50000000E-01  8.00000000E-01  8.50000000E-01  8.50000000E-01
  8.50000000E-01  8.00000000E-01  8.50000000E-01  8.50000000E-01  8.50000000E-01
  8.00000000E-01  8.50000000E-01  8.50000000E-01  8.50000000E-01  8.00000000E-01
  8.50000000E-01  8.50000000E-01  8.50000000E-01  8.00000000E-01  8.50000000E-01
  8.50000000E-01  8.50000000E-01  8.00000000E-01  8.50000000E-01  8.50000000E-01
  8.50000000E-01  8.00000000E-01  8.50000000E-01  8.50000000E-01  8.50000000E-01
  8.00000000E-01  8.50000000E-01  8.50000000E-01  8.50000000E-01  8.00000000E-01
  8.50000000E-01  8.50000000E-01  8.50000000E-01  8.00000000E-01  8.50000000E-01
  8.50000000E-01  8.50000000E-01  8.00000000E-01  8.50000000E-01  8.50000000E-01
  8.50000000E-01  8.00000000E-01  8.50000000E-01  8.50000000E-01  8.50000000E-01
  8.00000000E-01  8.50000000E-01  8.50000000E-01  8.50000000E-01  8.00000000E-01
  8.50000000E-01  8.50000000E-01  8.50000000E-01  8.00000000E-01  8.50000000E-01
  8.50000000E-01  8.50000000E-01  8.00000000E-01  8.50000000E-01  8.50000000E-01
  8.50000000E-01  8.00000000E-01  8.50000000E-01  8.50000000E-01  8.50000000E-01
  8.00000000E-01  8.50000000E-01  8.50000000E-01  8.50000000E-01  8.00000000E-01
  8.50000000E-01  8.50000000E-01  8.50000000E-01  8.00000000E-01  8.50000000E-01
  8.50000000E-01  8.50000000E-01  8.00000000E-01  8.50000000E-01  8.50000000E-01
  8.50000000E-01  8.00000000E-01  8.50000000E-01  8.50000000E-01  8.50000000E-01
  8.00000000E-01  8.50000000E-01  8.50000000E-01  8.50000000E-01  8.00000000E-01
  8.50000000E-01  8.50000000E-01  8.50000000E-01  8.00000000E-01  8.50000000E-01
  8.50000000E-01  8.50000000E-01  8.00000000E-01  8.50000000E-01  8.50000000E-01
  8.50000000E-01  8.00000000E-01  8.50000000E-01  8.50000000E-01  8.50000000E-01
  8.00000000E-01  8.50000000E-01  8.50000000E-01  8.50000000E-01  8.00000000E-01
  8.50000000E-01  8.50000000E-01  8.50000000E-01  8.00000000E-01  8.50000000E-01
  8.50000000E-01  8.50000000E-01  8.00000000E-01  8.50000000E-01  8.50000000E-01
  8.50000000E-01  8.00000000E-01  8.50000000E-01  8.50000000E-01  8.50000000E-01
  8.00000000E-01  8.50000000E-01  8.50000000E-01  8.50000000E-01  8.00000000E-01
  8.50000000E-01  8.50000000E-01  8.50000000E-01  8.00000000E-01  8.50000000E-01
  8.50000000E-01  8.50000000E-01  8.00000000E-01  8.50000000E-01  8.50000000E-01
  8.50000000E-01  8.00000000E-01  8.50000000E-01  8.50000000E-01  8.50000000E-01
  8.00000000E-01  8.50000000E-01  8.50000000E-01  8.50000000E-01  8.00000000E-01
  8.50000000E-01  8.50000000E-01  8.50000000E-01  8.00000000E-01  8.50000000E-01
  8.50000000E-01  8.50000000E-01  8.00000000E-01  8.50000000E-01  8.50000000E-01
  8.50000000E-01  8.00000000E-01  8.50000000E-01  8.50000000E-01  8.50000000E-01
  8.00000000E-01  8.50000000E-01  8.50000000E-01  8.50000000E-01  8.00000000E-01
  8.50000000E-01  8.50000000E-01  8.50000000E-01  8.00000000E-01  8.50000000E-01
  8.50000000E-01  8.50000000E-01  8.00000000E-01  8.50000000E-01  8.50000000E-01
  8.50000000E-01  8.00000000E-01  8.50000000E-01  8.50000000E-01  8.50000000E-01
  8.00000000E-01  8.50000000E-01  8.50000000E-01  8.50000000E-01  8.00000000E-01
  8.50000000E-01  8.50000000E-01  8.50000000E-01  8.00000000E-01  8.50000000E-01
  8.50000000E-01  8.50000000E-01  8.00000000E-01  8.50000000E-01  8.50000000E-01
  8.50000000E-01  8.00000000E-01  8.50000000E-01  8.50000000E-01  8.50000000E-01
  8.00000000E-01  8.50000000E-01  8.50000000E-01  8.50000000E-01  8.00000000E-01
  8.50000000E-01  8.50000000E-01  8.50000000E-01  8.00000000E-01  8.50000000E-01
  8.50000000E-01  8.50000000E-01  8.00000000E-01  8.50000000E-01  8.50000000E-01
  8.50000000E-01  8.00000000E-01  8.50000000E-01  8.50000000E-01  8.50000000E-01
  8.00000000E-01  8.50000000E-01  8.50000000E-01  8.50000000E-01  8.00000000E-01
  8.50000000E-01  8.50000000E-01  8.50000000E-01  8.00000000E-01  8.50000000E-01
  8.50000000E-01  8.50000000E-01  8.00000000E-01  8.50000000E-01  8.50000000E-01
  8.50000000E-01  8.00000000E-01  8.50000000E-01  8.50000000E-01  8.50000000E-01
  8.00000000E-01  8.50000000E-01  8.50000000E-01  8.50000000E-01  8.00000000E-01
  8.50000000E-01  8.50000000E-01  8.50000000E-01  8.00000000E-01  8.50000000E-01
  8.50000000E-01  8.50000000E-01  8.00000000E-01  8.50000000E-01  8.50000000E-01
  8.50000000E-01  8.00000000E-01  8.50000000E-01  8.50000000E-01  8.50000000E-01
  8.00000000E-01  8.50000000E-01  8.50000000E-01  8.50000000E-01  8.00000000E-01
  8.50000000E-01  8.50000000E-01  8.50000000E-01  8.00000000E-01  8.50000000E-01
  8.50000000E-01  8.50000000E-01  8.00000000E-01  8.50000000E-01  8.50000000E-01
  8.50000000E-01  8.00000000E-01  8.50000000E-01  8.50000000E-01  8.50000000E-01
  8.00000000E-01  8.50000000E-01  8.50000000E-01  8.50000000E-01  8.00000000E-01
  8.50000000E-01  8.50000000E-01  8.50000000E-01  8.00000000E-01  8.50000000E-01
  8.50000000E-01  8.50000000E-01  8.00000000E-01  8.50000000E-01  8.50000000E-01
  8.50000000E-01  8.00000000E-01  8.50000000E-01  8.50000000E-01  8.50000000E-01
  8.00000000E-01  8.50000000E-01  8.50000000E-01  8.50000000E-01  8.00000000E-01
  8.50000000E-01  8.50000000E-01  8.50000000E-01  8.00000000E-01  8.50000000E-01
  8.50000000E-01  8.50000000E-01  8.00000000E-01  8.50000000E-01  8.50000000E-01
  8.50000000E-01  8.00000000E-01  8.50000000E-01  8.50000000E-01  8.50000000E-01
  8.00000000E-01  8.50000000E-01  8.50000000E-01  8.50000000E-01  8.00000000E-01
  8.50000000E-01  8.50000000E-01  8.50000000E-01  8.00000000E-01  8.50000000E-01
  8.50000000E-01  8.50000000E-01  8.00000000E-01  8.50000000E-01  8.50000000E-01
  8.50000000E-01  8.00000000E-01  8.50000000E-01  8.50000000E-01  8.50000000E-01
  8.00000000E-01  8.50000000E-01  8.50000000E-01  8.50000000E-01  8.00000000E-01
  8.50000000E-01  8.50000000E-01  8.50000000E-01  8.00000000E-01  8.50000000E-01
  8.50000000E-01  8.50000000E-01  8.00000000E-01  8.50000000E-01  8.50000000E-01
  8.50000000E-01  8.00000000E-01  8.50000000E-01  8.50000000E-01  8.50000000E-01
  8.00000000E-01  8.50000000E-01  8.50000000E-01  8.50000000E-01  8.00000000E-01
  8.50000000E-01  8.50000000E-01  8.50000000E-01  8.00000000E-01  8.50000000E-01
  8.50000000E-01  8.50000000E-01  8.00000000E-01  8.50000000E-01  8.50000000E-01
  8.50000000E-01  8.00000000E-01  8.50000000E-01  8.50000000E-01  8.50000000E-01
  8.00000000E-01  8.50000000E-01  8.50000000E-01  8.50000000E-01  8.00000000E-01
  8.50000000E-01  8.50000000E-01  8.50000000E-01  8.00000000E-01  8.50000000E-01
  8.50000000E-01  8.50000000E-01  8.00000000E-01  8.50000000E-01  8.50000000E-01
  8.50000000E-01  8.00000000E-01  8.50000000E-01  8.50000000E-01  8.50000000E-01
  8.00000000E-01  8.50000000E-01  8.50000000E-01  8.50000000E-01  8.00000000E-01
  8.50000000E-01  8.50000000E-01  8.50000000E-01  8.00000000E-01  8.50000000E-01
  8.50000000E-01  8.50000000E-01  8.00000000E-01  8.50000000E-01  8.50000000E-01
  8.50000000E-01  8.00000000E-01  8.50000000E-01  8.50000000E-01  8.50000000E-01
  8.00000000E-01  8.50000000E-01  8.50000000E-01  8.50000000E-01  8.00000000E-01
  8.50000000E-01  8.50000000E-01  8.50000000E-01  8.00000000E-01  8.50000000E-01
  8.50000000E-01  8.50000000E-01  8.00000000E-01  8.50000000E-01  8.50000000E-01
  8.50000000E-01  8.00000000E-01  8.50000000E-01  8.50000000E-01  8.50000000E-01
  8.00000000E-01  8.50000000E-01  8.50000000E-01  8.50000000E-01  8.00000000E-01
  8.50000000E-01  8.50000000E-01  8.50000000E-01  8.00000000E-01  8.50000000E-01
  8.50000000E-01  8.50000000E-01  8.00000000E-01  8.50000000E-01  8.50000000E-01
  8.50000000E-01  8.00000000E-01  8.50000000E-01  8.50000000E-01  8.50000000E-01
  8.00000000E-01  8.50000000E-01  8.50000000E-01  8.50000000E-01  8.00000000E-01
  8.50000000E-01  8.50000000E-01  8.50000000E-01  8.00000000E-01  8.50000000E-01
  8.50000000E-01  8.50000000E-01  8.00000000E-01  8.50000000E-01  8.50000000E-01
  8.50000000E-01  8.00000000E-01  8.50000000E-01  8.50000000E-01  8.50000000E-01
  8.00000000E-01  8.50000000E-01  8.50000000E-01  8.50000000E-01  8.00000000E-01
  8.50000000E-01  8.50000000E-01  8.50000000E-01  8.00000000E-01  8.50000000E-01
  8.50000000E-01  8.50000000E-01  8.00000000E-01  8.50000000E-01  8.50000000E-01
  8.50000000E-01  8.00000000E-01  8.50000000E-01  8.50000000E-01  8.50000000E-01
  8.00000000E-01  8.50000000E-01  8.50000000E-01  8.50000000E-01  8.00000000E-01
  8.50000000E-01  8.50000000E-01  8.50000000E-01  8.00000000E-01  8.50000000E-01
  8.50000000E-01  8.50000000E-01  8.00000000E-01  8.50000000E-01  8.50000000E-01
  8.50000000E-01  8.00000000E-01  8.50000000E-01  8.50000000E-01  8.50000000E-01
  8.00000000E-01  8.50000000E-01  8.50000000E-01  8.50000000E-01  8.00000000E-01
  8.50000000E-01  8.50000000E-01  8.50000000E-01  8.00000000E-01  8.50000000E-01
  8.50000000E-01  8.50000000E-01  8.00000000E-01  8.50000000E-01  8.50000000E-01
  8.50000000E-01  8.00000000E-01  8.50000000E-01  8.50000000E-01  8.50000000E-01
  8.00000000E-01  8.50000000E-01  8.50000000E-01  8.50000000E-01  8.00000000E-01
  8.50000000E-01  8.50000000E-01  8.50000000E-01  8.00000000E-01  8.50000000E-01
  8.50000000E-01  8.50000000E-01  8.00000000E-01  8.50000000E-01  8.50000000E-01
  8.50000000E-01  8.00000000E-01  8.50000000E-01  8.50000000E-01  8.50000000E-01
  8.00000000E-01  8.50000000E-01  8.50000000E-01  8.50000000E-01  8.00000000E-01
  8.50000000E-01  8.50000000E-01  8.50000000E-01  8.00000000E-01  8.50000000E-01
  8.50000000E-01  8.50000000E-01  8.00000000E-01  8.50000000E-01  8.50000000E-01
  8.50000000E-01  8.00000000E-01  8.50000000E-01  8.50000000E-01  8.50000000E-01
  8.00000000E-01  8.50000000E-01  8.50000000E-01  8.50000000E-01  8.00000000E-01
  8.50000000E-01  8.50000000E-01  8.50000000E-01  8.00000000E-01  8.50000000E-01
  8.50000000E-01  8.50000000E-01  8.00000000E-01  8.50000000E-01  8.50000000E-01
  8.50000000E-01  8.00000000E-01  8.50000000E-01  8.50000000E-01  8.50000000E-01
  8.00000000E-01  8.50000000E-01  8.50000000E-01  8.50000000E-01  8.00000000E-01
  8.50000000E-01  8.50000000E-01  8.50000000E-01  8.00000000E-01  8.50000000E-01
  8.50000000E-01  8.50000000E-01  8.00000000E-01  8.50000000E-01  8.50000000E-01
  8.50000000E-01  8.00000000E-01  8.50000000E-01  8.50000000E-01  8.50000000E-01
  8.00000000E-01  8.50000000E-01  8.50000000E-01  8.50000000E-01  8.00000000E-01
  8.50000000E-01  8.50000000E-01  8.50000000E-01  8.00000000E-01  8.50000000E-01
  8.50000000E-01  8.50000000E-01  8.00000000E-01  8.50000000E-01  8.50000000E-01
  8.50000000E-01  8.00000000E-01  8.50000000E-01  8.50000000E-01  8.50000000E-01
  8.00000000E-01  8.50000000E-01  8.50000000E-01  8.50000000E-01  8.00000000E-01
  8.50000000E-01  8.50000000E-01  8.50000000E-01  8.00000000E-01  8.50000000E-01
  8.50000000E-01  8.50000000E-01  8.00000000E-01  8.50000000E-01  8.50000000E-01
  8.50000000E-01  8.00000000E-01  8.50000000E-01  8.50000000E-01  8.50000000E-01
  8.00000000E-01  8.50000000E-01  8.50000000E-01  8.50000000E-01  8.00000000E-01
  8.50000000E-01  8.50000000E-01  8.50000000E-01  8.00000000E-01  8.50000000E-01
  8.50000000E-01  8.50000000E-01  8.00000000E-01  8.50000000E-01  8.50000000E-01
  8.50000000E-01  8.00000000E-01  8.50000000E-01  8.50000000E-01  8.50000000E-01
  8.00000000E-01  8.50000000E-01  8.50000000E-01  8.50000000E-01  8.00000000E-01
  8.50000000E-01  8.50000000E-01  8.50000000E-01  8.00000000E-01  8.50000000E-01
  8.50000000E-01  8.50000000E-01  8.00000000E-01  8.50000000E-01  8.50000000E-01
  8.50000000E-01  8.00000000E-01  8.50000000E-01  8.50000000E-01  8.50000000E-01
  8.00000000E-01  8.50000000E-01  8.50000000E-01  8.50000000E-01  8.00000000E-01
  8.50000000E-01  8.50000000E-01  8.50000000E-01  8.00000000E-01  8.50000000E-01
  8.50000000E-01  8.50000000E-01  8.00000000E-01  8.50000000E-01  8.50000000E-01
  8.50000000E-01  8.00000000E-01  8.50000000E-01  8.50000000E-01  8.50000000E-01
  8.00000000E-01  8.50000000E-01  8.50000000E-01  8.50000000E-01  8.00000000E-01
  8.50000000E-01  8.50000000E-01  8.50000000E-01  8.00000000E-01  8.50000000E-01
  8.50000000E-01  8.50000000E-01  8.00000000E-01  8.50000000E-01  8.50000000E-01
  8.50000000E-01  8.00000000E-01  8.50000000E-01  8.50000000E-01  8.50000000E-01
  8.00000000E-01  8.50000000E-01  8.50000000E-01  8.50000000E-01  8.00000000E-01
  8.50000000E-01  8.50000000E-01  8.50000000E-01  8.00000000E-01  8.50000000E-01
  8.50000000E-01  8.50000000E-01  8.00000000E-01  8.50000000E-01  8.50000000E-01
  8.50000000E-01  8.00000000E-01  8.50000000E-01  8.50000000E-01  8.50000000E-01
  8.00000000E-01  8.50000000E-01  8.50000000E-01  8.50000000E-01  8.00000000E-01
  8.50000000E-01  8.50000000E-01  8.50000000E-01  8.00000000E-01  8.50000000E-01
  8.50000000E-01  8.50000000E-01  8.00000000E-01  8.50000000E-01  8.50000000E-01
  8.50000000E-01  8.00000000E-01  8.50000000E-01  8.50000000E-01  8.50000000E-01
  8.00000000E-01  8.50000000E-01  8.50000000E-01  8.50000000E-01  8.00000000E-01
  8.50000000E-01  8.50000000E-01  8.50000000E-01  8.00000000E-01  8.50000000E-01
  8.50000000E-01  8.50000000E-01  8.00000000E-01  8.50000000E-01  8.50000000E-01
  8.50000000E-01  8.00000000E-01  8.50000000E-01  8.50000000E-01  8.50000000E-01
  8.00000000E-01  8.50000000E-01  8.50000000E-01  8.50000000E-01  8.00000000E-01
  8.50000000E-01  8.50000000E-01  8.50000000E-01  8.00000000E-01  8.50000000E-01
  8.50000000E-01  8.50000000E-01  8.00000000E-01  8.50000000E-01  8.50000000E-01
  8.50000000E-01  8.00000000E-01  8.50000000E-01  8.50000000E-01  8.50000000E-01
  8.00000000E-01  8.50000000E-01  8.50000000E-01  8.50000000E-01  8.00000000E-01
  8.50000000E-01  8.50000000E-01  8.50000000E-01  8.00000000E-01  8.50000000E-01
  8.50000000E-01  8.50000000E-01  8.00000000E-01  8.50000000E-01  8.50000000E-01
  8.50000000E-01  8.00000000E-01  8.50000000E-01  8.50000000E-01  8.50000000E-01
  8.00000000E-01  8.50000000E-01  8.50000000E-01  8.50000000E-01  8.00000000E-01
  8.50000000E-01  8.50000000E-01  8.50000000E-01  8.00000000E-01  8.50000000E-01
  8.50000000E-01  8.50000000E-01  8.00000000E-01  8.50000000E-01  8.50000000E-01
  8.50000000E-01  8.00000000E-01  8.50000000E-01  8.50000000E-01  8.50000000E-01
  8.00000000E-01  8.50000000E-01  8.50000000E-01  8.50000000E-01  8.00000000E-01
  8.50000000E-01  8.50000000E-01  8.50000000E-01  8.00000000E-01  8.50000000E-01
  8.50000000E-01  8.50000000E-01  8.00000000E-01  8.50000000E-01  8.50000000E-01
  8.50000000E-01  8.00000000E-01  8.50000000E-01  8.50000000E-01  8.50000000E-01
  8.00000000E-01  8.50000000E-01  8.50000000E-01  8.50000000E-01  8.00000000E-01
  8.50000000E-01  8.50000000E-01  8.50000000E-01  8.00000000E-01  8.50000000E-01
  8.50000000E-01  8.50000000E-01  8.00000000E-01  8.50000000E-01  8.50000000E-01
  8.50000000E-01  8.00000000E-01  8.50000000E-01  8.50000000E-01  8.50000000E-01
  8.00000000E-01  8.50000000E-01  8.50000000E-01  8.50000000E-01  8.00000000E-01
  8.50000000E-01  8.50000000E-01  8.50000000E-01  8.00000000E-01  8.50000000E-01
  8.50000000E-01  8.50000000E-01  8.00000000E-01  8.50000000E-01  8.50000000E-01
  8.50000000E-01  8.00000000E-01  8.50000000E-01  8.50000000E-01  8.50000000E-01
  8.00000000E-01  8.50000000E-01  8.50000000E-01  8.50000000E-01  8.00000000E-01
  8.50000000E-01  8.50000000E-01  8.50000000E-01  8.00000000E-01  8.50000000E-01
  8.50000000E-01  8.50000000E-01  8.00000000E-01  8.50000000E-01  8.50000000E-01
  8.50000000E-01  8.00000000E-01  8.50000000E-01  8.50000000E-01  8.50000000E-01
  8.00000000E-01  8.50000000E-01  8.50000000E-01  8.50000000E-01  8.00000000E-01
  8.50000000E-01  8.50000000E-01  8.50000000E-01  8.00000000E-01  8.50000000E-01
  8.50000000E-01  8.50000000E-01  8.00000000E-01  8.50000000E-01  8.50000000E-01
  8.50000000E-01  8.00000000E-01  8.50000000E-01  8.50000000E-01  8.50000000E-01
  8.00000000E-01  8.50000000E-01  8.50000000E-01  8.50000000E-01  8.00000000E-01
  8.50000000E-01  8.50000000E-01  8.50000000E-01  8.00000000E-01  8.50000000E-01
  8.50000000E-01  8.50000000E-01  8.00000000E-01  8.50000000E-01  8.50000000E-01
  8.50000000E-01  8.00000000E-01  8.50000000E-01  8.50000000E-01  8.50000000E-01
  8.00000000E-01  8.50000000E-01  8.50000000E-01  8.50000000E-01  8.00000000E-01
  8.50000000E-01  8.50000000E-01  8.50000000E-01  8.00000000E-01  8.50000000E-01
  8.50000000E-01  8.50000000E-01  8.00000000E-01  8.50000000E-01  8.50000000E-01
  8.50000000E-01  8.00000000E-01  8.50000000E-01  8.50000000E-01  8.50000000E-01
  8.00000000E-01  8.50000000E-01  8.50000000E-01  8.50000000E-01  8.00000000E-01
  8.50000000E-01  8.50000000E-01  8.50000000E-01  8.00000000E-01  8.50000000E-01
  8.50000000E-01  8.50000000E-01  8.00000000E-01  8.50000000E-01  8.50000000E-01
  8.50000000E-01  8.00000000E-01  8.50000000E-01  8.50000000E-01  8.50000000E-01
  8.00000000E-01  8.50000000E-01  8.50000000E-01  8.50000000E-01  8.00000000E-01
  8.50000000E-01  8.50000000E-01  8.50000000E-01  8.00000000E-01  8.50000000E-01
  8.50000000E-01  8.50000000E-01  8.00000000E-01  8.50000000E-01  8.50000000E-01
  8.50000000E-01  8.00000000E-01  8.50000000E-01  8.50000000E-01  8.50000000E-01
  8.00000000E-01  8.50000000E-01  8.50000000E-01  8.50000000E-01  8.00000000E-01
  8.50000000E-01  8.50000000E-01  8.50000000E-01  8.00000000E-01  8.50000000E-01
  8.50000000E-01  8.50000000E-01  8.00000000E-01  8.50000000E-01  8.50000000E-01
  8.50000000E-01  8.00000000E-01  8.50000000E-01  8.50000000E-01  8.50000000E-01
  8.00000000E-01  8.50000000E-01  8.50000000E-01  8.50000000E-01  8.00000000E-01
  8.50000000E-01  8.50000000E-01  8.50000000E-01  8.00000000E-01  8.50000000E-01
  8.50000000E-01  8.50000000E-01  8.00000000E-01  8.50000000E-01  8.50000000E-01
  8.50000000E-01  8.00000000E-01  8.50000000E-01  8.50000000E-01  8.50000000E-01
  8.00000000E-01  8.50000000E-01  8.50000000E-01  8.50000000E-01  8.00000000E-01
  8.50000000E-01  8.50000000E-01  8.50000000E-01  8.00000000E-01  8.50000000E-01
  8.50000000E-01  8.50000000E-01  8.00000000E-01  8.50000000E-01  8.50000000E-01
  8.50000000E-01  8.00000000E-01  8.50000000E-01  8.50000000E-01  8.50000000E-01
  8.00000000E-01  8.50000000E-01  8.50000000E-01  8.50000000E-01  8.00000000E-01
  8.50000000E-01  8.50000000E-01  8.50000000E-01  8.00000000E-01  8.50000000E-01
  8.50000000E-01  8.50000000E-01  8.00000000E-01  8.50000000E-01  8.50000000E-01
  8.50000000E-01  8.00000000E-01  8.50000000E-01  8.50000000E-01  8.50000000E-01
  8.00000000E-01  8.50000000E-01  8.50000000E-01  8.50000000E-01  8.00000000E-01
  8.50000000E-01  8.50000000E-01  8.50000000E-01  8.00000000E-01  8.50000000E-01
  8.50000000E-01  8.50000000E-01  8.00000000E-01  8.50000000E-01  8.50000000E-01
  8.50000000E-01  8.00000000E-01  8.50000000E-01  8.50000000E-01  8.50000000E-01
  8.00000000E-01  8.50000000E-01  8.50000000E-01  8.50000000E-01  8.00000000E-01
  8.50000000E-01  8.50000000E-01  8.50000000E-01  8.00000000E-01  8.50000000E-01
  8.50000000E-01  8.50000000E-01  8.00000000E-01  8.50000000E-01  8.50000000E-01
  8.50000000E-01  8.00000000E-01  8.50000000E-01  8.50000000E-01  8.50000000E-01
  8.00000000E-01  8.50000000E-01  8.50000000E-01  8.50000000E-01  8.00000000E-01
  8.50000000E-01  8.50000000E-01  8.50000000E-01  8.00000000E-01  8.50000000E-01
  8.50000000E-01  8.50000000E-01  8.00000000E-01  8.50000000E-01  8.50000000E-01
  8.50000000E-01  8.00000000E-01  8.50000000E-01  8.50000000E-01  8.50000000E-01
  8.00000000E-01  8.50000000E-01  8.50000000E-01  8.50000000E-01  8.00000000E-01
  8.50000000E-01  8.50000000E-01  8.50000000E-01  8.00000000E-01  8.50000000E-01
  8.50000000E-01  8.50000000E-01  8.00000000E-01  8.50000000E-01  8.50000000E-01
  8.50000000E-01  8.00000000E-01  8.50000000E-01  8.50000000E-01  8.50000000E-01
  8.00000000E-01  8.50000000E-01  8.50000000E-01  8.50000000E-01  8.00000000E-01
  8.50000000E-01  8.50000000E-01  8.50000000E-01  8.00000000E-01  8.50000000E-01
  8.50000000E-01  8.50000000E-01  8.00000000E-01  8.50000000E-01  8.50000000E-01
  8.50000000E-01  8.00000000E-01  8.50000000E-01  8.50000000E-01  8.50000000E-01
  8.00000000E-01  8.50000000E-01  8.50000000E-01  8.50000000E-01  8.00000000E-01
  8.50000000E-01  8.50000000E-01  8.50000000E-01  8.00000000E-01  8.50000000E-01
  8.50000000E-01  8.50000000E-01  8.00000000E-01  8.50000000E-01  8.50000000E-01
  8.50000000E-01  8.00000000E-01  8.50000000E-01  8.50000000E-01  8.50000000E-01
  8.00000000E-01  8.50000000E-01  8.50000000E-01  8.50000000E-01  8.00000000E-01
  8.50000000E-01  8.50000000E-01  8.50000000E-01  8.00000000E-01  8.50000000E-01
  8.50000000E-01  8.50000000E-01  8.00000000E-01  8.50000000E-01  8.50000000E-01
  8.50000000E-01  8.00000000E-01  8.50000000E-01  8.50000000E-01  8.50000000E-01
  8.00000000E-01  8.50000000E-01  8.50000000E-01  8.50000000E-01  8.00000000E-01
  8.50000000E-01  8.50000000E-01  8.50000000E-01  8.00000000E-01  8.50000000E-01
  8.50000000E-01  8.50000000E-01  8.00000000E-01  8.50000000E-01  8.50000000E-01
  8.50000000E-01  8.00000000E-01  8.50000000E-01  8.50000000E-01  8.50000000E-01
  8.00000000E-01  8.50000000E-01  8.50000000E-01  8.50000000E-01  8.00000000E-01
  8.50000000E-01  8.50000000E-01  8.50000000E-01  8.00000000E-01  8.50000000E-01
  8.50000000E-01  8.50000000E-01  8.00000000E-01  8.50000000E-01  8.50000000E-01
  8.50000000E-01  8.00000000E-01  8.50000000E-01  8.50000000E-01  8.50000000E-01
  8.00000000E-01  8.50000000E-01  8.50000000E-01  8.50000000E-01  8.00000000E-01
  8.50000000E-01  8.50000000E-01  8.50000000E-01  8.00000000E-01  8.50000000E-01
  8.50000000E-01  8.50000000E-01  8.00000000E-01  8.50000000E-01  8.50000000E-01
  8.50000000E-01  8.00000000E-01  8.50000000E-01  8.50000000E-01  8.50000000E-01
  8.00000000E-01  8.50000000E-01  8.50000000E-01  8.50000000E-01  8.00000000E-01
  8.50000000E-01  8.50000000E-01  8.50000000E-01  8.00000000E-01  8.50000000E-01
  8.50000000E-01  8.50000000E-01  8.00000000E-01  8.50000000E-01  8.50000000E-01
  8.50000000E-01  8.00000000E-01  8.50000000E-01  8.50000000E-01  8.50000000E-01
  8.00000000E-01  8.50000000E-01  8.50000000E-01  8.50000000E-01  8.00000000E-01
  8.50000000E-01  8.50000000E-01  8.50000000E-01  8.00000000E-01  8.50000000E-01
  8.50000000E-01  8.50000000E-01  8.00000000E-01  8.50000000E-01  8.50000000E-01
  8.50000000E-01  8.00000000E-01  8.50000000E-01  8.50000000E-01  8.50000000E-01
  8.00000000E-01  8.50000000E-01  8.50000000E-01  8.50000000E-01  8.00000000E-01
  8.50000000E-01  8.50000000E-01  8.50000000E-01  8.00000000E-01  8.50000000E-01
  8.50000000E-01  8.50000000E-01  8.00000000E-01  8.50000000E-01  8.50000000E-01
  8.50000000E-01  8.00000000E-01  8.50000000E-01  8.50000000E-01  8.50000000E-01
  8.00000000E-01  8.50000000E-01  8.50000000E-01  8.50000000E-01  8.00000000E-01
  8.50000000E-01  8.50000000E-01  8.50000000E-01  8.00000000E-01  8.50000000E-01
  8.50000000E-01  8.50000000E-01  8.00000000E-01  8.50000000E-01  8.50000000E-01
  8.50000000E-01  8.00000000E-01  8.50000000E-01  8.50000000E-01  8.50000000E-01
  8.00000000E-01  8.50000000E-01  8.50000000E-01  8.50000000E-01  8.00000000E-01
  8.50000000E-01  8.50000000E-01  8.50000000E-01  8.00000000E-01  8.50000000E-01
  8.50000000E-01  8.50000000E-01  8.00000000E-01  8.50000000E-01  8.50000000E-01
  8.50000000E-01  8.00000000E-01  8.50000000E-01  8.50000000E-01  8.50000000E-01
  8.00000000E-01  8.50000000E-01  8.50000000E-01  8.50000000E-01  8.00000000E-01
  8.50000000E-01  8.50000000E-01  8.50000000E-01  8.00000000E-01  8.50000000E-01
  8.50000000E-01  8.50000000E-01  8.00000000E-01  8.50000000E-01  8.50000000E-01
  8.50000000E-01  8.00000000E-01  8.50000000E-01  8.50000000E-01  8.50000000E-01
  8.00000000E-01  8.50000000E-01  8.50000000E-01  8.50000000E-01  8.00000000E-01
  8.50000000E-01  8.50000000E-01  8.50000000E-01  8.00000000E-01  8.50000000E-01
  8.50000000E-01  8.50000000E-01  8.00000000E-01  8.50000000E-01  8.50000000E-01
  8.50000000E-01  8.00000000E-01  8.50000000E-01  8.50000000E-01  8.50000000E-01
  8.00000000E-01  8.50000000E-01  8.50000000E-01  8.50000000E-01  8.00000000E-01
  8.50000000E-01  8.50000000E-01  8.50000000E-01  8.00000000E-01  8.50000000E-01
  8.50000000E-01  8.50000000E-01  8.00000000E-01  8.50000000E-01  8.50000000E-01
  8.50000000E-01  8.00000000E-01  8.50000000E-01  8.50000000E-01  8.50000000E-01
  8.00000000E-01  8.50000000E-01  8.50000000E-01  8.50000000E-01  8.00000000E-01
  8.50000000E-01  8.50000000E-01  8.50000000E-01  8.00000000E-01  8.50000000E-01
  8.50000000E-01  8.50000000E-01  8.00000000E-01  8.50000000E-01  8.50000000E-01
  8.50000000E-01  8.00000000E-01  8.50000000E-01  8.50000000E-01  8.50000000E-01
  8.00000000E-01  8.50000000E-01  8.50000000E-01  8.50000000E-01  8.00000000E-01
  8.50000000E-01  8.50000000E-01  8.50000000E-01  8.00000000E-01  8.50000000E-01
  8.50000000E-01  8.50000000E-01  8.00000000E-01  8.50000000E-01  8.50000000E-01
  8.50000000E-01  8.00000000E-01  8.50000000E-01  8.50000000E-01  8.50000000E-01
  8.00000000E-01  8.50000000E-01  8.50000000E-01  8.50000000E-01  8.00000000E-01
  8.50000000E-01  8.50000000E-01  8.50000000E-01  8.00000000E-01  8.50000000E-01
  8.50000000E-01  8.50000000E-01  8.00000000E-01  8.50000000E-01  8.50000000E-01
  8.50000000E-01  8.00000000E-01  8.50000000E-01  8.50000000E-01  8.50000000E-01
  8.00000000E-01  8.50000000E-01  8.50000000E-01  8.50000000E-01  8.00000000E-01
  8.50000000E-01  8.50000000E-01  8.50000000E-01  8.00000000E-01  8.50000000E-01
  8.50000000E-01  8.50000000E-01  8.00000000E-01  8.50000000E-01  8.50000000E-01
  8.50000000E-01  8.00000000E-01  8.50000000E-01  8.50000000E-01  8.50000000E-01
  8.00000000E-01  8.50000000E-01  8.50000000E-01  8.50000000E-01  8.00000000E-01
  8.50000000E-01  8.50000000E-01  8.50000000E-01  8.00000000E-01  8.50000000E-01
  8.50000000E-01  8.50000000E-01  8.00000000E-01  8.50000000E-01  8.50000000E-01
  8.50000000E-01  8.00000000E-01  8.50000000E-01  8.50000000E-01  8.50000000E-01
  8.00000000E-01  8.50000000E-01  8.50000000E-01  8.50000000E-01  8.00000000E-01
  8.50000000E-01  8.50000000E-01  8.50000000E-01  8.00000000E-01  8.50000000E-01
  8.50000000E-01  8.50000000E-01  8.00000000E-01  8.50000000E-01  8.50000000E-01
  8.50000000E-01  8.00000000E-01  8.50000000E-01  8.50000000E-01  8.50000000E-01
  8.00000000E-01  8.50000000E-01  8.50000000E-01  8.50000000E-01  8.00000000E-01
  8.50000000E-01  8.50000000E-01  8.50000000E-01  8.00000000E-01  8.50000000E-01
  8.50000000E-01  8.50000000E-01  8.00000000E-01  8.50000000E-01  8.50000000E-01
  8.50000000E-01  8.00000000E-01  8.50000000E-01  8.50000000E-01  8.50000000E-01
  8.00000000E-01  8.50000000E-01  8.50000000E-01  8.50000000E-01  8.00000000E-01
  8.50000000E-01  8.50000000E-01  8.50000000E-01  8.00000000E-01  8.50000000E-01
  8.50000000E-01  8.50000000E-01  8.00000000E-01  8.50000000E-01  8.50000000E-01
  8.50000000E-01  8.00000000E-01  8.50000000E-01  8.50000000E-01  8.50000000E-01
  8.00000000E-01  8.50000000E-01  8.50000000E-01  8.50000000E-01  8.00000000E-01
  8.50000000E-01  8.50000000E-01  8.50000000E-01  8.00000000E-01  8.50000000E-01
  8.50000000E-01  8.50000000E-01  8.00000000E-01  8.50000000E-01  8.50000000E-01
  8.50000000E-01  8.00000000E-01  8.50000000E-01  8.50000000E-01  8.50000000E-01
  8.00000000E-01  8.50000000E-01  8.50000000E-01  8.50000000E-01  8.00000000E-01
  8.50000000E-01  8.50000000E-01  8.50000000E-01  8.00000000E-01  8.50000000E-01
  8.50000000E-01  8.50000000E-01  8.00000000E-01  8.50000000E-01  8.50000000E-01
  8.50000000E-01  8.00000000E-01  8.50000000E-01  8.50000000E-01  8.50000000E-01
  8.00000000E-01  8.50000000E-01  8.50000000E-01  8.50000000E-01  8.00000000E-01
  8.50000000E-01  8.50000000E-01  8.50000000E-01  8.00000000E-01  8.50000000E-01
  8.50000000E-01  8.50000000E-01  8.00000000E-01  8.50000000E-01  8.50000000E-01
  8.50000000E-01  8.00000000E-01  8.50000000E-01  8.50000000E-01  8.50000000E-01
  8.00000000E-01  8.50000000E-01  8.50000000E-01  8.50000000E-01  8.00000000E-01
  8.50000000E-01  8.50000000E-01  8.50000000E-01  8.00000000E-01  8.50000000E-01
  8.50000000E-01  8.50000000E-01  8.00000000E-01  8.50000000E-01  8.50000000E-01
  8.50000000E-01  8.00000000E-01  8.50000000E-01  8.50000000E-01  8.50000000E-01
  8.00000000E-01  8.50000000E-01  8.50000000E-01  8.50000000E-01  8.00000000E-01
  8.50000000E-01  8.50000000E-01  8.50000000E-01  8.00000000E-01  8.50000000E-01
  8.50000000E-01  8.50000000E-01  8.00000000E-01  8.50000000E-01  8.50000000E-01
  8.50000000E-01  8.00000000E-01  8.50000000E-01  8.50000000E-01  8.50000000E-01
  8.00000000E-01  8.50000000E-01  8.50000000E-01  8.50000000E-01  8.00000000E-01
  8.50000000E-01  8.50000000E-01  8.50000000E-01  8.00000000E-01  8.50000000E-01
  8.50000000E-01  8.50000000E-01  8.00000000E-01  8.50000000E-01  8.50000000E-01
  8.50000000E-01  8.00000000E-01  8.50000000E-01  8.50000000E-01  8.50000000E-01
  8.00000000E-01  8.50000000E-01  8.50000000E-01  8.50000000E-01  8.00000000E-01
  8.50000000E-01  8.50000000E-01  8.50000000E-01  8.00000000E-01  8.50000000E-01
  8.50000000E-01  8.50000000E-01  8.00000000E-01  8.50000000E-01  8.50000000E-01
  8.50000000E-01  8.00000000E-01  8.50000000E-01  8.50000000E-01  8.50000000E-01
  8.00000000E-01  8.50000000E-01  8.50000000E-01  8.50000000E-01  8.00000000E-01
  8.50000000E-01  8.50000000E-01  8.50000000E-01  8.00000000E-01  8.50000000E-01
  8.50000000E-01  8.50000000E-01  8.00000000E-01  8.50000000E-01  8.50000000E-01
  8.50000000E-01  8.00000000E-01  8.50000000E-01  8.50000000E-01  8.50000000E-01
  8.00000000E-01  8.50000000E-01  8.50000000E-01  8.50000000E-01  8.00000000E-01
  8.50000000E-01  8.50000000E-01  8.50000000E-01  8.00000000E-01  8.50000000E-01
  8.50000000E-01  8.50000000E-01  8.00000000E-01  8.50000000E-01  8.50000000E-01
  8.50000000E-01  8.00000000E-01  8.50000000E-01  8.50000000E-01  8.50000000E-01
  8.00000000E-01  8.50000000E-01  8.50000000E-01  8.50000000E-01  8.00000000E-01
  8.50000000E-01  8.50000000E-01  8.50000000E-01  8.00000000E-01  8.50000000E-01
  8.50000000E-01  8.50000000E-01  8.00000000E-01  8.50000000E-01  8.50000000E-01
  8.50000000E-01  8.00000000E-01  8.50000000E-01  8.50000000E-01  8.50000000E-01
  8.00000000E-01  8.50000000E-01  8.50000000E-01  8.50000000E-01  8.00000000E-01
  8.50000000E-01  8.50000000E-01  8.50000000E-01  8.00000000E-01  8.50000000E-01
  8.50000000E-01  8.50000000E-01  8.00000000E-01  8.50000000E-01  8.50000000E-01
  8.50000000E-01  8.00000000E-01  8.50000000E-01  8.50000000E-01  8.50000000E-01
  8.00000000E-01  8.50000000E-01  8.50000000E-01  8.50000000E-01  8.00000000E-01
  8.50000000E-01  8.50000000E-01  8.50000000E-01  8.00000000E-01  8.50000000E-01
  8.50000000E-01  8.50000000E-01  8.00000000E-01  8.50000000E-01  8.50000000E-01
  8.50000000E-01  8.00000000E-01  8.50000000E-01  8.50000000E-01  8.50000000E-01
  8.00000000E-01  8.50000000E-01  8.50000000E-01  8.50000000E-01  8.00000000E-01
  8.50000000E-01  8.50000000E-01  8.50000000E-01  8.00000000E-01  8.50000000E-01
  8.50000000E-01  8.50000000E-01  8.00000000E-01  8.50000000E-01  8.50000000E-01
  8.50000000E-01  8.00000000E-01  8.50000000E-01  8.50000000E-01  8.50000000E-01
  8.00000000E-01  8.50000000E-01  8.50000000E-01  8.50000000E-01  8.00000000E-01
  8.50000000E-01  8.50000000E-01  8.50000000E-01  8.00000000E-01  8.50000000E-01
  8.50000000E-01  8.50000000E-01  8.00000000E-01  8.50000000E-01  8.50000000E-01
  8.50000000E-01  8.00000000E-01  8.50000000E-01  8.50000000E-01  8.50000000E-01
  8.00000000E-01  8.50000000E-01  8.50000000E-01  8.50000000E-01  8.00000000E-01
  8.50000000E-01  8.50000000E-01  8.50000000E-01  8.00000000E-01  8.50000000E-01
  8.50000000E-01  8.50000000E-01  8.00000000E-01  8.50000000E-01  8.50000000E-01
  8.50000000E-01  8.00000000E-01  8.50000000E-01  8.50000000E-01  8.50000000E-01
  8.00000000E-01  8.50000000E-01  8.50000000E-01  8.50000000E-01  8.00000000E-01
  8.50000000E-01  8.50000000E-01  8.50000000E-01  8.00000000E-01  8.50000000E-01
  8.50000000E-01  8.50000000E-01  8.00000000E-01  8.50000000E-01  8.50000000E-01
  8.50000000E-01  8.00000000E-01  8.50000000E-01  8.50000000E-01  8.50000000E-01
  8.00000000E-01  8.50000000E-01  8.50000000E-01  8.50000000E-01  8.00000000E-01
  8.50000000E-01  8.50000000E-01  8.50000000E-01  8.00000000E-01  8.50000000E-01
  8.50000000E-01  8.50000000E-01  8.00000000E-01  8.50000000E-01  8.50000000E-01
  8.50000000E-01  8.00000000E-01  8.50000000E-01  8.50000000E-01  8.50000000E-01
  8.00000000E-01  8.50000000E-01  8.50000000E-01  8.50000000E-01  8.00000000E-01
  8.50000000E-01  8.50000000E-01  8.50000000E-01  8.00000000E-01  8.50000000E-01
  8.50000000E-01  8.50000000E-01  8.00000000E-01  8.50000000E-01  8.50000000E-01
  8.50000000E-01  8.00000000E-01  8.50000000E-01  8.50000000E-01  8.50000000E-01
  8.00000000E-01  8.50000000E-01  8.50000000E-01  8.50000000E-01  8.00000000E-01
  8.50000000E-01  8.50000000E-01  8.50000000E-01  8.00000000E-01  8.50000000E-01
  8.50000000E-01  8.50000000E-01  8.00000000E-01  8.50000000E-01  8.50000000E-01
  8.50000000E-01  8.00000000E-01  8.50000000E-01  8.50000000E-01  8.50000000E-01
  8.00000000E-01  8.50000000E-01  8.50000000E-01  8.50000000E-01  8.00000000E-01
  8.50000000E-01  8.50000000E-01  8.50000000E-01  8.00000000E-01  8.50000000E-01
  8.50000000E-01  8.50000000E-01  8.00000000E-01  8.50000000E-01  8.50000000E-01
  8.50000000E-01  8.00000000E-01  8.50000000E-01  8.50000000E-01  8.50000000E-01
  8.00000000E-01  8.50000000E-01  8.50000000E-01  8.50000000E-01  8.00000000E-01
  8.50000000E-01  8.50000000E-01  8.50000000E-01  8.00000000E-01  8.50000000E-01
  8.50000000E-01  8.50000000E-01  8.00000000E-01  8.50000000E-01  8.50000000E-01
  8.50000000E-01  8.00000000E-01  8.50000000E-01  8.50000000E-01  8.50000000E-01
  8.00000000E-01  8.50000000E-01  8.50000000E-01  8.50000000E-01  8.00000000E-01
  8.50000000E-01  8.50000000E-01  8.50000000E-01  8.00000000E-01  8.50000000E-01
  8.50000000E-01  8.50000000E-01  8.00000000E-01  8.50000000E-01  8.50000000E-01
  8.50000000E-01  8.00000000E-01  8.50000000E-01  8.50000000E-01  8.50000000E-01
  8.00000000E-01  8.50000000E-01  8.50000000E-01  8.50000000E-01  8.00000000E-01
  8.50000000E-01  8.50000000E-01  8.50000000E-01  8.00000000E-01  8.50000000E-01
  8.50000000E-01  8.50000000E-01  8.00000000E-01  8.50000000E-01  8.50000000E-01
  8.50000000E-01  8.00000000E-01  8.50000000E-01  8.50000000E-01  8.50000000E-01
  8.00000000E-01  8.50000000E-01  8.50000000E-01  8.50000000E-01  8.00000000E-01
  8.50000000E-01  8.50000000E-01  8.50000000E-01  8.00000000E-01  8.50000000E-01
  8.50000000E-01  8.50000000E-01  8.00000000E-01  8.50000000E-01  8.50000000E-01
  8.50000000E-01  8.00000000E-01  8.50000000E-01  8.50000000E-01  8.50000000E-01
  8.00000000E-01  8.50000000E-01  8.50000000E-01  8.50000000E-01  8.00000000E-01
  8.50000000E-01  8.50000000E-01  8.50000000E-01  8.00000000E-01  8.50000000E-01
  8.50000000E-01  8.50000000E-01  8.00000000E-01  8.50000000E-01  8.50000000E-01
  8.50000000E-01  8.00000000E-01  8.50000000E-01  8.50000000E-01  8.50000000E-01
  8.00000000E-01  8.50000000E-01  8.50000000E-01  8.50000000E-01  8.00000000E-01
  8.50000000E-01  8.50000000E-01  8.50000000E-01  8.00000000E-01  8.50000000E-01
  8.50000000E-01  8.50000000E-01  8.00000000E-01  8.50000000E-01  8.50000000E-01
  8.50000000E-01  8.00000000E-01  8.50000000E-01  8.50000000E-01  8.50000000E-01
  8.00000000E-01  8.50000000E-01  8.50000000E-01  8.50000000E-01  8.00000000E-01
  8.50000000E-01  8.50000000E-01  8.50000000E-01  8.00000000E-01  8.50000000E-01
  8.50000000E-01  8.50000000E-01  8.00000000E-01  8.50000000E-01  8.50000000E-01
  8.50000000E-01  8.00000000E-01  8.50000000E-01  8.50000000E-01  8.50000000E-01
  8.00000000E-01  8.50000000E-01  8.50000000E-01  8.50000000E-01  8.00000000E-01
  8.50000000E-01  8.50000000E-01  8.50000000E-01  8.00000000E-01  8.50000000E-01
  8.50000000E-01  8.50000000E-01  8.00000000E-01  8.50000000E-01  8.50000000E-01
  8.50000000E-01  8.00000000E-01  8.50000000E-01  8.50000000E-01  8.50000000E-01
  8.00000000E-01  8.50000000E-01  8.50000000E-01  8.50000000E-01  8.00000000E-01
  8.50000000E-01  8.50000000E-01  8.50000000E-01  8.00000000E-01  8.50000000E-01
  8.50000000E-01  8.50000000E-01  8.00000000E-01  8.50000000E-01  8.50000000E-01
  8.50000000E-01  8.00000000E-01  8.50000000E-01  8.50000000E-01  8.50000000E-01
  8.00000000E-01  8.50000000E-01  8.50000000E-01  8.50000000E-01  8.00000000E-01
  8.50000000E-01  8.50000000E-01  8.50000000E-01  8.00000000E-01  8.50000000E-01
  8.50000000E-01  8.50000000E-01  8.00000000E-01  8.50000000E-01  8.50000000E-01
  8.50000000E-01  8.00000000E-01  8.50000000E-01  8.50000000E-01  8.50000000E-01
  8.00000000E-01  8.50000000E-01  8.50000000E-01  8.50000000E-01  8.00000000E-01
  8.50000000E-01  8.50000000E-01  8.50000000E-01  8.00000000E-01  8.50000000E-01
  8.50000000E-01  8.50000000E-01  8.00000000E-01  8.50000000E-01  8.50000000E-01
  8.50000000E-01  8.00000000E-01  8.50000000E-01  8.50000000E-01  8.50000000E-01
  8.00000000E-01  8.50000000E-01  8.50000000E-01  8.50000000E-01  8.00000000E-01
  8.50000000E-01  8.50000000E-01  8.50000000E-01  8.00000000E-01  8.50000000E-01
  8.50000000E-01  8.50000000E-01  8.00000000E-01  8.50000000E-01  8.50000000E-01
  8.50000000E-01  8.00000000E-01  8.50000000E-01  8.50000000E-01  8.50000000E-01
  8.00000000E-01  8.50000000E-01  8.50000000E-01  8.50000000E-01  8.00000000E-01
  8.50000000E-01  8.50000000E-01  8.50000000E-01  8.00000000E-01  8.50000000E-01
  8.50000000E-01  8.50000000E-01  8.00000000E-01  8.50000000E-01  8.50000000E-01
  8.50000000E-01  8.00000000E-01  8.50000000E-01  8.50000000E-01  8.50000000E-01
  8.00000000E-01  8.50000000E-01  8.50000000E-01  8.50000000E-01  8.00000000E-01
  8.50000000E-01  8.50000000E-01  8.50000000E-01  8.00000000E-01  8.50000000E-01
  8.50000000E-01  8.50000000E-01  8.00000000E-01  8.50000000E-01  8.50000000E-01
  8.50000000E-01  8.00000000E-01  8.50000000E-01  8.50000000E-01  8.50000000E-01
  8.00000000E-01  8.50000000E-01  8.50000000E-01  8.50000000E-01  8.00000000E-01
  8.50000000E-01  8.50000000E-01  8.50000000E-01  8.00000000E-01  8.50000000E-01
  8.50000000E-01  8.50000000E-01  8.00000000E-01  8.50000000E-01  8.50000000E-01
  8.50000000E-01  8.00000000E-01  8.50000000E-01  8.50000000E-01  8.50000000E-01
  8.00000000E-01  8.50000000E-01  8.50000000E-01  8.50000000E-01  8.00000000E-01
  8.50000000E-01  8.50000000E-01  8.50000000E-01  8.00000000E-01  8.50000000E-01
  8.50000000E-01  8.50000000E-01  8.00000000E-01  8.50000000E-01  8.50000000E-01
  8.50000000E-01  8.00000000E-01  8.50000000E-01  8.50000000E-01  8.50000000E-01
  8.00000000E-01  8.50000000E-01  8.50000000E-01  8.50000000E-01  8.00000000E-01
  8.50000000E-01  8.50000000E-01  8.50000000E-01  8.00000000E-01  8.50000000E-01
  8.50000000E-01  8.50000000E-01  8.00000000E-01  8.50000000E-01  8.50000000E-01
  8.50000000E-01  8.00000000E-01  8.50000000E-01  8.50000000E-01  8.50000000E-01
  8.00000000E-01  8.50000000E-01  8.50000000E-01  8.50000000E-01  8.00000000E-01
  8.50000000E-01  8.50000000E-01  8.50000000E-01  8.00000000E-01  8.50000000E-01
  8.50000000E-01  8.50000000E-01  8.00000000E-01  8.50000000E-01  8.50000000E-01
  8.50000000E-01  8.00000000E-01  8.50000000E-01  8.50000000E-01  8.50000000E-01
  8.00000000E-01  8.50000000E-01  8.50000000E-01  8.50000000E-01  8.00000000E-01
  8.50000000E-01  8.50000000E-01  8.50000000E-01  8.00000000E-01  8.50000000E-01
  8.50000000E-01  8.50000000E-01  8.00000000E-01  8.50000000E-01  8.50000000E-01
  8.50000000E-01  8.00000000E-01  8.50000000E-01  8.50000000E-01  8.50000000E-01
  8.00000000E-01  8.50000000E-01  8.50000000E-01  8.50000000E-01  8.00000000E-01
  8.50000000E-01  8.50000000E-01  8.50000000E-01  8.00000000E-01  8.50000000E-01
  8.50000000E-01  8.50000000E-01  8.00000000E-01  8.50000000E-01  8.50000000E-01
  8.50000000E-01  8.00000000E-01  8.50000000E-01  8.50000000E-01  8.50000000E-01
  8.00000000E-01  8.50000000E-01  8.50000000E-01  8.50000000E-01  8.00000000E-01
  8.50000000E-01  8.50000000E-01  8.50000000E-01  8.00000000E-01  8.50000000E-01
  8.50000000E-01  8.50000000E-01  8.00000000E-01  8.50000000E-01  8.50000000E-01
  8.50000000E-01  8.00000000E-01  8.50000000E-01  8.50000000E-01  8.50000000E-01
  8.00000000E-01  8.50000000E-01  8.50000000E-01  8.50000000E-01  8.00000000E-01
  8.50000000E-01  8.50000000E-01  8.50000000E-01  8.00000000E-01  8.50000000E-01
  8.50000000E-01  8.50000000E-01  8.00000000E-01  8.50000000E-01  8.50000000E-01
  8.50000000E-01  8.00000000E-01  8.50000000E-01  8.50000000E-01  8.50000000E-01
  8.00000000E-01  8.50000000E-01  8.50000000E-01  8.50000000E-01  8.00000000E-01
  8.50000000E-01  8.50000000E-01  8.50000000E-01  8.00000000E-01  8.50000000E-01
  8.50000000E-01  8.50000000E-01  8.00000000E-01  8.50000000E-01  8.50000000E-01
  8.50000000E-01  8.00000000E-01  8.50000000E-01  8.50000000E-01  8.50000000E-01
  8.00000000E-01  8.50000000E-01  8.50000000E-01  8.50000000E-01  8.00000000E-01
  8.50000000E-01  8.50000000E-01  8.50000000E-01  8.00000000E-01  8.50000000E-01
  8.50000000E-01  8.50000000E-01  8.00000000E-01  8.50000000E-01  8.50000000E-01
  8.50000000E-01  8.00000000E-01  8.50000000E-01  8.50000000E-01  8.50000000E-01
  8.00000000E-01  8.50000000E-01  8.50000000E-01  8.50000000E-01  8.00000000E-01
  8.50000000E-01  8.50000000E-01  8.50000000E-01  8.00000000E-01  8.50000000E-01
  8.50000000E-01  8.50000000E-01  8.00000000E-01  8.50000000E-01  8.50000000E-01
  8.50000000E-01  8.00000000E-01  8.50000000E-01  8.50000000E-01  8.50000000E-01
  8.00000000E-01  8.50000000E-01  8.50000000E-01  8.50000000E-01  8.00000000E-01
  8.50000000E-01  8.50000000E-01  8.50000000E-01  8.00000000E-01  8.50000000E-01
  8.50000000E-01  8.50000000E-01  8.00000000E-01  8.50000000E-01  8.50000000E-01
  8.50000000E-01  8.00000000E-01  8.50000000E-01  8.50000000E-01  8.50000000E-01
  8.00000000E-01  8.50000000E-01  8.50000000E-01  8.50000000E-01  8.00000000E-01
  8.50000000E-01  8.50000000E-01  8.50000000E-01  8.00000000E-01  8.50000000E-01
  8.50000000E-01  8.50000000E-01  8.00000000E-01  8.50000000E-01  8.50000000E-01
  8.50000000E-01  8.00000000E-01  8.50000000E-01  8.50000000E-01  8.50000000E-01
  8.00000000E-01  8.50000000E-01  8.50000000E-01  8.50000000E-01  8.00000000E-01
  8.50000000E-01  8.50000000E-01  8.50000000E-01  8.00000000E-01  8.50000000E-01
  8.50000000E-01  8.50000000E-01  8.00000000E-01  8.50000000E-01  8.50000000E-01
  8.50000000E-01  8.00000000E-01  8.50000000E-01  8.50000000E-01  8.50000000E-01
  8.00000000E-01  8.50000000E-01  8.50000000E-01  8.50000000E-01  8.00000000E-01
  8.50000000E-01  8.50000000E-01  8.50000000E-01  8.00000000E-01  8.50000000E-01
  8.50000000E-01  8.50000000E-01  8.00000000E-01  8.50000000E-01  8.50000000E-01
  8.50000000E-01  8.00000000E-01  8.50000000E-01  8.50000000E-01  8.50000000E-01
  8.00000000E-01  8.50000000E-01  8.50000000E-01  8.50000000E-01  8.00000000E-01
  8.50000000E-01  8.50000000E-01  8.50000000E-01  8.00000000E-01  8.50000000E-01
  8.50000000E-01  8.50000000E-01  8.00000000E-01  8.50000000E-01  8.50000000E-01
  8.50000000E-01  8.00000000E-01  8.50000000E-01  8.50000000E-01  8.50000000E-01
  8.00000000E-01  8.50000000E-01  8.50000000E-01  8.50000000E-01  8.00000000E-01
  8.50000000E-01  8.50000000E-01  8.50000000E-01  8.00000000E-01  8.50000000E-01
  8.50000000E-01  8.50000000E-01  8.00000000E-01  8.50000000E-01  8.50000000E-01
  8.50000000E-01  8.00000000E-01  8.50000000E-01  8.50000000E-01  8.50000000E-01
  8.00000000E-01  8.50000000E-01  8.50000000E-01  8.50000000E-01  8.00000000E-01
  8.50000000E-01  8.50000000E-01  8.50000000E-01  8.00000000E-01  8.50000000E-01
  8.50000000E-01  8.50000000E-01  8.00000000E-01  8.50000000E-01  8.50000000E-01
  8.50000000E-01  8.00000000E-01  8.50000000E-01  8.50000000E-01  8.50000000E-01
  8.00000000E-01  8.50000000E-01  8.50000000E-01  8.50000000E-01  8.00000000E-01
  8.50000000E-01  8.50000000E-01  8.50000000E-01  8.00000000E-01  8.50000000E-01
  8.50000000E-01  8.50000000E-01  8.00000000E-01  8.50000000E-01  8.50000000E-01
  8.50000000E-01  8.00000000E-01  8.50000000E-01  8.50000000E-01  8.50000000E-01
  8.00000000E-01  8.50000000E-01  8.50000000E-01  8.50000000E-01  8.00000000E-01
  8.50000000E-01  8.50000000E-01  8.50000000E-01  8.00000000E-01  8.50000000E-01
  8.50000000E-01  8.50000000E-01  8.00000000E-01  8.50000000E-01  8.50000000E-01
  8.50000000E-01  8.00000000E-01  8.50000000E-01  8.50000000E-01  8.50000000E-01
  8.00000000E-01  8.50000000E-01  8.50000000E-01  8.50000000E-01  8.00000000E-01
  8.50000000E-01  8.50000000E-01  8.50000000E-01  8.00000000E-01  8.50000000E-01
  8.50000000E-01  8.50000000E-01  8.00000000E-01  8.50000000E-01  8.50000000E-01
  8.50000000E-01  8.00000000E-01  8.50000000E-01  8.50000000E-01  8.50000000E-01
  8.00000000E-01  8.50000000E-01  8.50000000E-01  8.50000000E-01  8.00000000E-01
  8.50000000E-01  8.50000000E-01  8.50000000E-01  8.00000000E-01  8.50000000E-01
  8.50000000E-01  8.50000000E-01  8.00000000E-01  8.50000000E-01  8.50000000E-01
  8.50000000E-01  8.00000000E-01  8.50000000E-01  8.50000000E-01  8.50000000E-01
  8.00000000E-01  8.50000000E-01  8.50000000E-01  8.50000000E-01  8.00000000E-01
  8.50000000E-01  8.50000000E-01  8.50000000E-01  8.00000000E-01  8.50000000E-01
  8.50000000E-01  8.50000000E-01  8.00000000E-01  8.50000000E-01  8.50000000E-01
  8.50000000E-01  8.00000000E-01  8.50000000E-01  8.50000000E-01  8.50000000E-01
  8.00000000E-01  8.50000000E-01  8.50000000E-01  8.50000000E-01  8.00000000E-01
  8.50000000E-01  8.50000000E-01  8.50000000E-01  8.00000000E-01  8.50000000E-01
  8.50000000E-01  8.50000000E-01  8.00000000E-01  8.50000000E-01  8.50000000E-01
  8.50000000E-01  8.00000000E-01  8.50000000E-01  8.50000000E-01  8.50000000E-01
  8.00000000E-01  8.50000000E-01  8.50000000E-01  8.50000000E-01  8.00000000E-01
  8.50000000E-01  8.50000000E-01  8.50000000E-01  8.00000000E-01  8.50000000E-01
  8.50000000E-01  8.50000000E-01  8.00000000E-01  8.50000000E-01  8.50000000E-01
  8.50000000E-01  8.00000000E-01  8.50000000E-01  8.50000000E-01  8.50000000E-01
  8.00000000E-01  8.50000000E-01  8.50000000E-01  8.50000000E-01  8.00000000E-01
  8.50000000E-01  8.50000000E-01  8.50000000E-01  8.00000000E-01  8.50000000E-01
  8.50000000E-01  8.50000000E-01  8.00000000E-01  8.50000000E-01  8.50000000E-01
  8.50000000E-01  8.00000000E-01  8.50000000E-01  8.50000000E-01  8.50000000E-01
  8.00000000E-01  8.50000000E-01  8.50000000E-01  8.50000000E-01  8.00000000E-01
  8.50000000E-01  8.50000000E-01  8.50000000E-01  8.00000000E-01  8.50000000E-01
  8.50000000E-01  8.50000000E-01  8.00000000E-01  8.50000000E-01  8.50000000E-01
  8.50000000E-01  8.00000000E-01  8.50000000E-01  8.50000000E-01  8.50000000E-01
  8.00000000E-01  8.50000000E-01  8.50000000E-01  8.50000000E-01  8.00000000E-01
  8.50000000E-01  8.50000000E-01  8.50000000E-01  8.00000000E-01  8.50000000E-01
  8.50000000E-01  8.50000000E-01  8.00000000E-01  8.50000000E-01  8.50000000E-01
  8.50000000E-01  8.00000000E-01  8.50000000E-01  8.50000000E-01  8.50000000E-01
  8.00000000E-01  8.50000000E-01  8.50000000E-01  8.50000000E-01  8.00000000E-01
  8.50000000E-01  8.50000000E-01  8.50000000E-01  8.00000000E-01  8.50000000E-01
  8.50000000E-01  8.50000000E-01  8.00000000E-01  8.50000000E-01  8.50000000E-01
  8.50000000E-01  8.00000000E-01  8.50000000E-01  8.50000000E-01  8.50000000E-01
  8.00000000E-01  8.50000000E-01  8.50000000E-01  8.50000000E-01  8.00000000E-01
  8.50000000E-01  8.50000000E-01  8.50000000E-01  8.00000000E-01  8.50000000E-01
  8.50000000E-01  8.50000000E-01  8.00000000E-01  8.50000000E-01  8.50000000E-01
  8.50000000E-01  8.00000000E-01  8.50000000E-01  8.50000000E-01  8.50000000E-01
  8.00000000E-01  8.50000000E-01  8.50000000E-01  8.50000000E-01  8.00000000E-01
  8.50000000E-01  8.50000000E-01  8.50000000E-01  8.00000000E-01  8.50000000E-01
  8.50000000E-01  8.50000000E-01  8.00000000E-01  8.50000000E-01  8.50000000E-01
  8.50000000E-01  8.00000000E-01  8.50000000E-01  8.50000000E-01  8.50000000E-01
  8.00000000E-01  8.50000000E-01  8.50000000E-01  8.50000000E-01  8.00000000E-01
  8.50000000E-01  8.50000000E-01  8.50000000E-01  8.00000000E-01  8.50000000E-01
  8.50000000E-01  8.50000000E-01  8.00000000E-01  8.50000000E-01  8.50000000E-01
  8.50000000E-01  8.00000000E-01  8.50000000E-01  8.50000000E-01  8.50000000E-01
  8.00000000E-01  8.50000000E-01  8.50000000E-01  8.50000000E-01  8.00000000E-01
  8.50000000E-01  8.50000000E-01  8.50000000E-01  8.00000000E-01  8.50000000E-01
  8.50000000E-01  8.50000000E-01  8.00000000E-01  8.50000000E-01  8.50000000E-01
  8.50000000E-01  8.00000000E-01  8.50000000E-01  8.50000000E-01  8.50000000E-01
  8.00000000E-01  8.50000000E-01  8.50000000E-01  8.50000000E-01  8.00000000E-01
  8.50000000E-01  8.50000000E-01  8.50000000E-01  8.00000000E-01  8.50000000E-01
  8.50000000E-01  8.50000000E-01  8.00000000E-01  8.50000000E-01  8.50000000E-01
  8.50000000E-01  8.00000000E-01  8.50000000E-01  8.50000000E-01  8.50000000E-01
  8.00000000E-01  8.50000000E-01  8.50000000E-01  8.50000000E-01  8.00000000E-01
  8.50000000E-01  8.50000000E-01  8.50000000E-01  8.00000000E-01  8.50000000E-01
  8.50000000E-01  8.50000000E-01  8.00000000E-01  8.50000000E-01  8.50000000E-01
  8.50000000E-01  8.00000000E-01  8.50000000E-01  8.50000000E-01  8.50000000E-01
  8.00000000E-01  8.50000000E-01  8.50000000E-01  8.50000000E-01  8.00000000E-01
  8.50000000E-01  8.50000000E-01  8.50000000E-01  8.00000000E-01  8.50000000E-01
  8.50000000E-01  8.50000000E-01  8.00000000E-01  8.50000000E-01  8.50000000E-01
  8.50000000E-01  8.00000000E-01  8.50000000E-01  8.50000000E-01  8.50000000E-01
  8.00000000E-01  8.50000000E-01  8.50000000E-01  8.50000000E-01  8.00000000E-01
  8.50000000E-01  8.50000000E-01  8.50000000E-01  8.00000000E-01  8.50000000E-01
  8.50000000E-01  8.50000000E-01  8.00000000E-01  8.50000000E-01  8.50000000E-01
  8.50000000E-01  8.00000000E-01  8.50000000E-01  8.50000000E-01  8.50000000E-01
  8.00000000E-01  8.50000000E-01  8.50000000E-01  8.50000000E-01  8.00000000E-01
  8.50000000E-01  8.50000000E-01  8.50000000E-01  8.00000000E-01  8.50000000E-01
  8.50000000E-01  8.50000000E-01  8.00000000E-01  8.50000000E-01  8.50000000E-01
  8.50000000E-01  8.00000000E-01  8.50000000E-01  8.50000000E-01  8.50000000E-01
  8.00000000E-01  8.50000000E-01  8.50000000E-01  8.50000000E-01  8.00000000E-01
  8.50000000E-01  8.50000000E-01  8.50000000E-01  8.00000000E-01  8.50000000E-01
  8.50000000E-01  8.50000000E-01  8.00000000E-01  8.50000000E-01  8.50000000E-01
  8.50000000E-01  8.00000000E-01  8.50000000E-01  8.50000000E-01  8.50000000E-01
  8.00000000E-01  8.50000000E-01  8.50000000E-01  8.50000000E-01  8.00000000E-01
  8.50000000E-01  8.50000000E-01  8.50000000E-01  8.00000000E-01  8.50000000E-01
  8.50000000E-01  8.50000000E-01  8.00000000E-01  8.50000000E-01  8.50000000E-01
  8.50000000E-01  8.00000000E-01  8.50000000E-01  8.50000000E-01  8.50000000E-01
  8.00000000E-01  8.50000000E-01  8.50000000E-01  8.50000000E-01  8.00000000E-01
  8.50000000E-01  8.50000000E-01  8.50000000E-01  8.00000000E-01  8.50000000E-01
  8.50000000E-01  8.50000000E-01  8.00000000E-01  8.50000000E-01  8.50000000E-01
  8.50000000E-01  8.00000000E-01  8.50000000E-01  8.50000000E-01  8.50000000E-01
  8.00000000E-01  8.50000000E-01  8.50000000E-01  8.50000000E-01  8.00000000E-01
  8.50000000E-01  8.50000000E-01  8.50000000E-01  8.00000000E-01  8.50000000E-01
  8.50000000E-01  8.50000000E-01  8.00000000E-01  8.50000000E-01  8.50000000E-01
  8.50000000E-01  8.00000000E-01  8.50000000E-01  8.50000000E-01  8.50000000E-01
  8.00000000E-01  8.50000000E-01  8.50000000E-01  8.50000000E-01  8.00000000E-01
  8.50000000E-01  8.50000000E-01  8.50000000E-01  8.00000000E-01  8.50000000E-01
  8.50000000E-01  8.50000000E-01  8.00000000E-01  8.50000000E-01  8.50000000E-01
  8.50000000E-01  8.00000000E-01  8.50000000E-01  8.50000000E-01  8.50000000E-01
  8.00000000E-01  8.50000000E-01  8.50000000E-01  8.50000000E-01  8.00000000E-01
  8.50000000E-01  8.50000000E-01  8.50000000E-01  8.00000000E-01  8.50000000E-01
  8.50000000E-01  8.50000000E-01  8.00000000E-01  8.50000000E-01  8.50000000E-01
  8.50000000E-01  8.00000000E-01  8.50000000E-01  8.50000000E-01  8.50000000E-01
  8.00000000E-01  8.50000000E-01  8.50000000E-01  8.50000000E-01  8.00000000E-01
  8.50000000E-01  8.50000000E-01  8.50000000E-01  8.00000000E-01  8.50000000E-01
  8.50000000E-01  8.50000000E-01  8.00000000E-01  8.50000000E-01  8.50000000E-01
  8.50000000E-01  8.00000000E-01  8.50000000E-01  8.50000000E-01  8.50000000E-01
  8.00000000E-01  8.50000000E-01  8.50000000E-01  8.50000000E-01  8.00000000E-01
  8.50000000E-01  8.50000000E-01  8.50000000E-01  8.00000000E-01  8.50000000E-01
  8.50000000E-01  8.50000000E-01  8.00000000E-01  8.50000000E-01  8.50000000E-01
  8.50000000E-01  8.00000000E-01  8.50000000E-01  8.50000000E-01  8.50000000E-01
  8.00000000E-01  8.50000000E-01  8.50000000E-01  8.50000000E-01  8.00000000E-01
  8.50000000E-01  8.50000000E-01  8.50000000E-01  8.00000000E-01  8.50000000E-01
  8.50000000E-01  8.50000000E-01  8.00000000E-01  8.50000000E-01  8.50000000E-01
  8.50000000E-01  8.00000000E-01  8.50000000E-01  8.50000000E-01  8.50000000E-01
  8.00000000E-01  8.50000000E-01  8.50000000E-01  8.50000000E-01  8.00000000E-01
  8.50000000E-01  8.50000000E-01  8.50000000E-01  8.00000000E-01  8.50000000E-01
  8.50000000E-01  8.50000000E-01  8.00000000E-01  8.50000000E-01  8.50000000E-01
  8.50000000E-01  8.00000000E-01  8.50000000E-01  8.50000000E-01  8.50000000E-01
  8.00000000E-01  8.50000000E-01  8.50000000E-01  8.50000000E-01  8.00000000E-01
  8.50000000E-01  8.50000000E-01  8.50000000E-01  8.00000000E-01  8.50000000E-01
  8.50000000E-01  8.50000000E-01  8.00000000E-01  8.50000000E-01  8.50000000E-01
  8.50000000E-01  8.00000000E-01  8.50000000E-01  8.50000000E-01  8.50000000E-01
  8.00000000E-01  8.50000000E-01  8.50000000E-01  8.50000000E-01  8.00000000E-01
  8.50000000E-01  8.50000000E-01  8.50000000E-01  8.00000000E-01  8.50000000E-01
  8.50000000E-01  8.50000000E-01  8.00000000E-01  8.50000000E-01  8.50000000E-01
  8.50000000E-01  8.00000000E-01  8.50000000E-01  8.50000000E-01  8.50000000E-01
  8.00000000E-01  8.50000000E-01  8.50000000E-01  8.50000000E-01  8.00000000E-01
  8.50000000E-01  8.50000000E-01  8.50000000E-01  8.00000000E-01  8.50000000E-01
  8.50000000E-01  8.50000000E-01  8.00000000E-01  8.50000000E-01  8.50000000E-01
  8.50000000E-01  8.00000000E-01  8.50000000E-01  8.50000000E-01  8.50000000E-01
  8.00000000E-01  8.50000000E-01  8.50000000E-01  8.50000000E-01  8.00000000E-01
  8.50000000E-01  8.50000000E-01  8.50000000E-01  8.00000000E-01  8.50000000E-01
  8.50000000E-01  8.50000000E-01  8.00000000E-01  8.50000000E-01  8.50000000E-01
  8.50000000E-01  8.00000000E-01  8.50000000E-01  8.50000000E-01  8.50000000E-01
  8.00000000E-01  8.50000000E-01  8.50000000E-01  8.50000000E-01  8.00000000E-01
  8.50000000E-01  8.50000000E-01  8.50000000E-01  8.00000000E-01  8.50000000E-01
  8.50000000E-01  8.50000000E-01  8.00000000E-01  8.50000000E-01  8.50000000E-01
  8.50000000E-01  8.00000000E-01  8.50000000E-01  8.50000000E-01  8.50000000E-01
  8.00000000E-01  8.50000000E-01  8.50000000E-01  8.50000000E-01  8.00000000E-01
  8.50000000E-01  8.50000000E-01  8.50000000E-01  8.00000000E-01  8.50000000E-01
  8.50000000E-01  8.50000000E-01  8.00000000E-01  8.50000000E-01  8.50000000E-01
  8.50000000E-01  8.00000000E-01  8.50000000E-01  8.50000000E-01  8.50000000E-01
  8.00000000E-01  8.50000000E-01  8.50000000E-01  8.50000000E-01  8.00000000E-01
  8.50000000E-01  8.50000000E-01  8.50000000E-01  8.00000000E-01  8.50000000E-01
  8.50000000E-01  8.50000000E-01  8.00000000E-01  8.50000000E-01  8.50000000E-01
  8.50000000E-01  8.00000000E-01  8.50000000E-01  8.50000000E-01  8.50000000E-01
  8.00000000E-01  8.50000000E-01  8.50000000E-01  8.50000000E-01  8.00000000E-01
  8.50000000E-01  8.50000000E-01  8.50000000E-01  8.00000000E-01  8.50000000E-01
  8.50000000E-01  8.50000000E-01  8.00000000E-01  8.50000000E-01  8.50000000E-01
  8.50000000E-01  8.00000000E-01  8.50000000E-01  8.50000000E-01  8.50000000E-01
  8.00000000E-01  8.50000000E-01  8.50000000E-01  8.50000000E-01  8.00000000E-01
  8.50000000E-01  8.50000000E-01  8.50000000E-01  8.00000000E-01  8.50000000E-01
  8.50000000E-01  8.50000000E-01  8.00000000E-01  8.50000000E-01  8.50000000E-01
  8.50000000E-01  8.00000000E-01  8.50000000E-01  8.50000000E-01  8.50000000E-01
  8.00000000E-01  8.50000000E-01  8.50000000E-01  8.50000000E-01  8.00000000E-01
  8.50000000E-01  8.50000000E-01  8.50000000E-01  8.00000000E-01  8.50000000E-01
  8.50000000E-01  8.50000000E-01  8.00000000E-01  8.50000000E-01  8.50000000E-01
  8.50000000E-01  8.00000000E-01  8.50000000E-01  8.50000000E-01  8.50000000E-01
  8.00000000E-01  8.50000000E-01  8.50000000E-01  8.50000000E-01  8.00000000E-01
  8.50000000E-01  8.50000000E-01  8.50000000E-01  8.00000000E-01  8.50000000E-01
  8.50000000E-01  8.50000000E-01  8.00000000E-01  8.50000000E-01  8.50000000E-01
  8.50000000E-01  8.00000000E-01  8.50000000E-01  8.50000000E-01  8.50000000E-01
  8.00000000E-01  8.50000000E-01  8.50000000E-01  8.50000000E-01  8.00000000E-01
  8.50000000E-01  8.50000000E-01  8.50000000E-01  8.00000000E-01  8.50000000E-01
  8.50000000E-01  8.50000000E-01  8.00000000E-01  8.50000000E-01  8.50000000E-01
  8.50000000E-01  8.00000000E-01  8.50000000E-01  8.50000000E-01  8.50000000E-01
  8.00000000E-01  8.50000000E-01  8.50000000E-01  8.50000000E-01  8.00000000E-01
  8.50000000E-01  8.50000000E-01  8.50000000E-01  8.00000000E-01  8.50000000E-01
  8.50000000E-01  8.50000000E-01  8.00000000E-01  8.50000000E-01  8.50000000E-01
  8.50000000E-01  8.00000000E-01  8.50000000E-01  8.50000000E-01  8.50000000E-01
  8.00000000E-01  8.50000000E-01  8.50000000E-01  8.50000000E-01  8.00000000E-01
  8.50000000E-01  8.50000000E-01  8.50000000E-01  8.00000000E-01  8.50000000E-01
  8.50000000E-01  8.50000000E-01  8.00000000E-01  8.50000000E-01  8.50000000E-01
  8.50000000E-01  8.00000000E-01  8.50000000E-01  8.50000000E-01  8.50000000E-01
  8.00000000E-01  8.50000000E-01  8.50000000E-01  8.50000000E-01  8.00000000E-01
  8.50000000E-01  8.50000000E-01  8.50000000E-01  8.00000000E-01  8.50000000E-01
  8.50000000E-01  8.50000000E-01  8.00000000E-01  8.50000000E-01  8.50000000E-01
  8.50000000E-01  8.00000000E-01  8.50000000E-01  8.50000000E-01  8.50000000E-01
  8.00000000E-01  8.50000000E-01  8.50000000E-01  8.50000000E-01  8.00000000E-01
  8.50000000E-01  8.50000000E-01  8.50000000E-01  8.00000000E-01  8.50000000E-01
  8.50000000E-01  8.50000000E-01  8.00000000E-01  8.50000000E-01  8.50000000E-01
  8.50000000E-01  8.00000000E-01  8.50000000E-01  8.50000000E-01  8.50000000E-01
  8.00000000E-01  8.50000000E-01  8.50000000E-01  8.50000000E-01  8.00000000E-01
  8.50000000E-01  8.50000000E-01  8.50000000E-01  8.00000000E-01  8.50000000E-01
  8.50000000E-01  8.50000000E-01  8.00000000E-01  8.50000000E-01  8.50000000E-01
  8.50000000E-01  8.00000000E-01  8.50000000E-01  8.50000000E-01  8.50000000E-01
  8.00000000E-01  8.50000000E-01  8.50000000E-01  8.50000000E-01  8.00000000E-01
  8.50000000E-01  8.50000000E-01  8.50000000E-01  8.00000000E-01  8.50000000E-01
  8.50000000E-01  8.50000000E-01  8.00000000E-01  8.50000000E-01  8.50000000E-01
  8.50000000E-01  8.00000000E-01  8.50000000E-01  8.50000000E-01  8.50000000E-01
  8.00000000E-01  8.50000000E-01  8.50000000E-01  8.50000000E-01  8.00000000E-01
  8.50000000E-01  8.50000000E-01  8.50000000E-01  8.00000000E-01  8.50000000E-01
  8.50000000E-01  8.50000000E-01  8.00000000E-01  8.50000000E-01  8.50000000E-01
  8.50000000E-01  8.00000000E-01  8.50000000E-01  8.50000000E-01  8.50000000E-01
  8.00000000E-01  8.50000000E-01  8.50000000E-01  8.50000000E-01  8.00000000E-01
  8.50000000E-01  8.50000000E-01  8.50000000E-01  8.00000000E-01  8.50000000E-01
  8.50000000E-01  8.50000000E-01  8.00000000E-01  8.50000000E-01  8.50000000E-01
  8.50000000E-01  8.00000000E-01  8.50000000E-01  8.50000000E-01  8.50000000E-01
  8.00000000E-01  8.50000000E-01  8.50000000E-01  8.50000000E-01  8.00000000E-01
  8.50000000E-01  8.50000000E-01  8.50000000E-01  8.00000000E-01  8.50000000E-01
  8.50000000E-01  8.50000000E-01  8.00000000E-01  8.50000000E-01  8.50000000E-01
  8.50000000E-01  8.00000000E-01  8.50000000E-01  8.50000000E-01  8.50000000E-01
  8.00000000E-01  8.50000000E-01  8.50000000E-01  8.50000000E-01  8.00000000E-01
  8.50000000E-01  8.50000000E-01  8.50000000E-01  8.00000000E-01  8.50000000E-01
  8.50000000E-01  8.50000000E-01  8.00000000E-01  8.50000000E-01  8.50000000E-01
  8.50000000E-01  8.00000000E-01  8.50000000E-01  8.50000000E-01  8.50000000E-01
  8.00000000E-01  8.50000000E-01  8.50000000E-01  8.50000000E-01  8.00000000E-01
  8.50000000E-01  8.50000000E-01  8.50000000E-01  8.00000000E-01  8.50000000E-01
  8.50000000E-01  8.50000000E-01  8.00000000E-01  8.50000000E-01  8.50000000E-01
  8.50000000E-01  8.00000000E-01  8.50000000E-01  8.50000000E-01  8.50000000E-01
  8.00000000E-01  8.50000000E-01  8.50000000E-01  8.50000000E-01  8.00000000E-01
  8.50000000E-01  8.50000000E-01  8.50000000E-01  8.00000000E-01  8.50000000E-01
  8.50000000E-01  8.50000000E-01  8.00000000E-01  8.50000000E-01  8.50000000E-01
  8.50000000E-01  8.00000000E-01  8.50000000E-01  8.50000000E-01  8.50000000E-01
  8.00000000E-01  8.50000000E-01  8.50000000E-01  8.50000000E-01  8.00000000E-01
  8.50000000E-01  8.50000000E-01  8.50000000E-01  8.00000000E-01  8.50000000E-01
  8.50000000E-01  8.50000000E-01  8.00000000E-01  8.50000000E-01  8.50000000E-01
  8.50000000E-01  8.00000000E-01  8.50000000E-01  8.50000000E-01  8.50000000E-01
  8.00000000E-01  8.50000000E-01  8.50000000E-01  8.50000000E-01  8.00000000E-01
  8.50000000E-01  8.50000000E-01  8.50000000E-01  8.00000000E-01  8.50000000E-01
  8.50000000E-01  8.50000000E-01  8.00000000E-01  8.50000000E-01  8.50000000E-01
  8.50000000E-01  8.00000000E-01  8.50000000E-01  8.50000000E-01  8.50000000E-01
  8.00000000E-01  8.50000000E-01  8.50000000E-01  8.50000000E-01  8.00000000E-01
  8.50000000E-01  8.50000000E-01  8.50000000E-01  8.00000000E-01  8.50000000E-01
  8.50000000E-01  8.50000000E-01  8.00000000E-01  8.50000000E-01  8.50000000E-01
  8.50000000E-01  8.00000000E-01  8.50000000E-01  8.50000000E-01  8.50000000E-01
  8.00000000E-01  8.50000000E-01  8.50000000E-01  8.50000000E-01  8.00000000E-01
  8.50000000E-01  8.50000000E-01  8.50000000E-01  8.00000000E-01  8.50000000E-01
  8.50000000E-01  8.50000000E-01  8.00000000E-01  8.50000000E-01  8.50000000E-01
  8.50000000E-01  8.00000000E-01  8.50000000E-01  8.50000000E-01  8.50000000E-01
  8.00000000E-01  8.50000000E-01  8.50000000E-01  8.50000000E-01  8.00000000E-01
  8.50000000E-01  8.50000000E-01  8.50000000E-01  8.00000000E-01  8.50000000E-01
  8.50000000E-01  8.50000000E-01  8.00000000E-01  8.50000000E-01  8.50000000E-01
  8.50000000E-01  8.00000000E-01  8.50000000E-01  8.50000000E-01  8.50000000E-01
  8.00000000E-01  8.50000000E-01  8.50000000E-01  8.50000000E-01  8.00000000E-01
  8.50000000E-01  8.50000000E-01  8.50000000E-01  8.00000000E-01  8.50000000E-01
  8.50000000E-01  8.50000000E-01  8.00000000E-01  8.50000000E-01  8.50000000E-01
  8.50000000E-01  8.00000000E-01  8.50000000E-01  8.50000000E-01  8.50000000E-01
  8.00000000E-01  8.50000000E-01  8.50000000E-01  8.50000000E-01  8.00000000E-01
  8.50000000E-01  8.50000000E-01  8.50000000E-01  8.00000000E-01  8.50000000E-01
  8.50000000E-01  8.50000000E-01  8.00000000E-01  8.50000000E-01  8.50000000E-01
  8.50000000E-01  8.00000000E-01  8.50000000E-01  8.50000000E-01  8.50000000E-01
  8.00000000E-01  8.50000000E-01  8.50000000E-01  8.50000000E-01  8.00000000E-01
  8.50000000E-01  8.50000000E-01  8.50000000E-01  8.00000000E-01  8.50000000E-01
  8.50000000E-01  8.50000000E-01  8.00000000E-01  8.50000000E-01  8.50000000E-01
  8.50000000E-01  8.00000000E-01  8.50000000E-01  8.50000000E-01  8.50000000E-01
  8.00000000E-01  8.50000000E-01  8.50000000E-01  8.50000000E-01  8.00000000E-01
  8.50000000E-01  8.50000000E-01  8.50000000E-01  8.00000000E-01  8.50000000E-01
  8.50000000E-01  8.50000000E-01  8.00000000E-01  8.50000000E-01  8.50000000E-01
  8.50000000E-01  8.00000000E-01  8.50000000E-01  8.50000000E-01  8.50000000E-01
  8.00000000E-01  8.50000000E-01  8.50000000E-01  8.50000000E-01  8.00000000E-01
  8.50000000E-01  8.50000000E-01  8.50000000E-01  8.00000000E-01  8.50000000E-01
  8.50000000E-01  8.50000000E-01  8.00000000E-01  8.50000000E-01  8.50000000E-01
  8.50000000E-01  8.00000000E-01  8.50000000E-01  8.50000000E-01  8.50000000E-01
  8.00000000E-01  8.50000000E-01  8.50000000E-01  8.50000000E-01  8.00000000E-01
  8.50000000E-01  8.50000000E-01  8.50000000E-01  8.00000000E-01  8.50000000E-01
  8.50000000E-01  8.50000000E-01  8.00000000E-01  8.50000000E-01  8.50000000E-01
  8.50000000E-01  8.00000000E-01  8.50000000E-01  8.50000000E-01  8.50000000E-01
  8.00000000E-01  8.50000000E-01  8.50000000E-01  8.50000000E-01  8.00000000E-01
  8.50000000E-01  8.50000000E-01  8.50000000E-01  8.00000000E-01  8.50000000E-01
  8.50000000E-01  8.50000000E-01  8.00000000E-01  8.50000000E-01  8.50000000E-01
  8.50000000E-01  8.00000000E-01  8.50000000E-01  8.50000000E-01  8.50000000E-01
  8.00000000E-01  8.50000000E-01  8.50000000E-01  8.50000000E-01  8.00000000E-01
  8.50000000E-01  8.50000000E-01  8.50000000E-01  8.00000000E-01  8.50000000E-01
  8.50000000E-01  8.50000000E-01  8.00000000E-01  8.50000000E-01  8.50000000E-01
  8.50000000E-01  8.00000000E-01  8.50000000E-01  8.50000000E-01  8.50000000E-01
  8.00000000E-01  8.50000000E-01  8.50000000E-01  8.50000000E-01  8.00000000E-01
  8.50000000E-01  8.50000000E-01  8.50000000E-01  8.00000000E-01  8.50000000E-01
  8.50000000E-01  8.50000000E-01  8.00000000E-01  8.50000000E-01  8.50000000E-01
  8.50000000E-01  8.00000000E-01  8.50000000E-01  8.50000000E-01  8.50000000E-01
  8.00000000E-01  8.50000000E-01  8.50000000E-01  8.50000000E-01  8.00000000E-01
  8.50000000E-01  8.50000000E-01  8.50000000E-01  8.00000000E-01  8.50000000E-01
  8.50000000E-01  8.50000000E-01  8.00000000E-01  8.50000000E-01  8.50000000E-01
  8.50000000E-01  8.00000000E-01  8.50000000E-01  8.50000000E-01  8.50000000E-01
  8.00000000E-01  8.50000000E-01  8.50000000E-01  8.50000000E-01  8.00000000E-01
  8.50000000E-01  8.50000000E-01  8.50000000E-01  8.00000000E-01  8.50000000E-01
  8.50000000E-01  8.50000000E-01  8.00000000E-01  8.50000000E-01  8.50000000E-01
  8.50000000E-01  8.00000000E-01  8.50000000E-01  8.50000000E-01  8.50000000E-01
  8.00000000E-01  8.50000000E-01  8.50000000E-01  8.50000000E-01  8.00000000E-01
  8.50000000E-01  8.50000000E-01  8.50000000E-01  8.00000000E-01  8.50000000E-01
  8.50000000E-01  8.50000000E-01  8.00000000E-01  8.50000000E-01  8.50000000E-01
  8.50000000E-01  8.00000000E-01  8.50000000E-01  8.50000000E-01  8.50000000E-01
  8.00000000E-01  8.50000000E-01  8.50000000E-01  8.50000000E-01  8.00000000E-01
  8.50000000E-01  8.50000000E-01  8.50000000E-01  8.00000000E-01  8.50000000E-01
  8.50000000E-01  8.50000000E-01  8.00000000E-01  8.50000000E-01  8.50000000E-01
  8.50000000E-01  8.00000000E-01  8.50000000E-01  8.50000000E-01  8.50000000E-01
  8.00000000E-01  8.50000000E-01  8.50000000E-01  8.50000000E-01  8.00000000E-01
  8.50000000E-01  8.50000000E-01  8.50000000E-01  8.00000000E-01  8.50000000E-01
  8.50000000E-01  8.50000000E-01  8.00000000E-01  8.50000000E-01  8.50000000E-01
  8.50000000E-01  8.00000000E-01  8.50000000E-01  8.50000000E-01  8.50000000E-01
  8.00000000E-01  8.50000000E-01  8.50000000E-01  8.50000000E-01  8.00000000E-01
  8.50000000E-01  8.50000000E-01  8.50000000E-01  8.00000000E-01  8.50000000E-01
  8.50000000E-01  8.50000000E-01  8.00000000E-01  8.50000000E-01  8.50000000E-01
  8.50000000E-01  8.00000000E-01  8.50000000E-01  8.50000000E-01  8.50000000E-01
  8.00000000E-01  8.50000000E-01  8.50000000E-01  8.50000000E-01  8.00000000E-01
  8.50000000E-01  8.50000000E-01  8.50000000E-01  8.00000000E-01  8.50000000E-01
  8.50000000E-01  8.50000000E-01  8.00000000E-01  8.50000000E-01  8.50000000E-01
  8.50000000E-01  8.00000000E-01  8.50000000E-01  8.50000000E-01  8.50000000E-01
  8.00000000E-01  8.50000000E-01  8.50000000E-01  8.50000000E-01  8.00000000E-01
  8.50000000E-01  8.50000000E-01  8.50000000E-01  8.00000000E-01  8.50000000E-01
  8.50000000E-01  8.50000000E-01  8.00000000E-01  8.50000000E-01  8.50000000E-01
  8.50000000E-01  8.00000000E-01  8.50000000E-01  8.50000000E-01  8.50000000E-01
  8.00000000E-01  8.50000000E-01  8.50000000E-01  8.50000000E-01  8.00000000E-01
  8.50000000E-01  8.50000000E-01  8.50000000E-01  8.00000000E-01  8.50000000E-01
  8.50000000E-01  8.50000000E-01  8.00000000E-01  8.50000000E-01  8.50000000E-01
  8.50000000E-01  8.00000000E-01  8.50000000E-01  8.50000000E-01  8.50000000E-01
  8.00000000E-01  8.50000000E-01  8.50000000E-01  8.50000000E-01  8.00000000E-01
  8.50000000E-01  8.50000000E-01  8.50000000E-01  8.00000000E-01  8.50000000E-01
  8.50000000E-01  8.50000000E-01  8.00000000E-01  8.50000000E-01  8.50000000E-01
  8.50000000E-01  8.00000000E-01  8.50000000E-01  8.50000000E-01  8.50000000E-01
  8.00000000E-01  8.50000000E-01  8.50000000E-01  8.50000000E-01  8.00000000E-01
  8.50000000E-01  8.50000000E-01  8.50000000E-01  8.00000000E-01  8.50000000E-01
  8.50000000E-01  8.50000000E-01  8.00000000E-01  8.50000000E-01  8.50000000E-01
  8.50000000E-01  8.00000000E-01  8.50000000E-01  8.50000000E-01  8.50000000E-01
  8.00000000E-01  8.50000000E-01  8.50000000E-01  8.50000000E-01  8.00000000E-01
  8.50000000E-01  8.50000000E-01  8.50000000E-01  8.00000000E-01  8.50000000E-01
  8.50000000E-01  8.50000000E-01  8.00000000E-01  8.50000000E-01  8.50000000E-01
  8.50000000E-01  8.00000000E-01  8.50000000E-01  8.50000000E-01  8.50000000E-01
  8.00000000E-01  8.50000000E-01  8.50000000E-01  8.50000000E-01  8.00000000E-01
  8.50000000E-01  8.50000000E-01  8.50000000E-01  8.00000000E-01  8.50000000E-01
  8.50000000E-01  8.50000000E-01  8.00000000E-01  8.50000000E-01  8.50000000E-01
  8.50000000E-01  8.00000000E-01  8.50000000E-01  8.50000000E-01  8.50000000E-01
  8.00000000E-01  8.50000000E-01  8.50000000E-01  8.50000000E-01  8.00000000E-01
  8.50000000E-01  8.50000000E-01  8.50000000E-01  8.00000000E-01  8.50000000E-01
  8.50000000E-01  8.50000000E-01  8.00000000E-01  8.50000000E-01  8.50000000E-01
  8.50000000E-01  8.00000000E-01  8.50000000E-01  8.50000000E-01  8.50000000E-01
  8.00000000E-01  8.50000000E-01  8.50000000E-01  8.50000000E-01  8.00000000E-01
  8.50000000E-01  8.50000000E-01  8.50000000E-01  8.00000000E-01  8.50000000E-01
  8.50000000E-01  8.50000000E-01  8.00000000E-01  8.50000000E-01  8.50000000E-01
  8.50000000E-01  8.00000000E-01  8.50000000E-01  8.50000000E-01  8.50000000E-01
  8.00000000E-01  8.50000000E-01  8.50000000E-01  8.50000000E-01  8.00000000E-01
  8.50000000E-01  8.50000000E-01  8.50000000E-01  8.00000000E-01  8.50000000E-01
  8.50000000E-01  8.50000000E-01  8.00000000E-01  8.50000000E-01  8.50000000E-01
  8.50000000E-01  8.00000000E-01  8.50000000E-01  8.50000000E-01  8.50000000E-01
  8.00000000E-01  8.50000000E-01  8.50000000E-01  8.50000000E-01  8.00000000E-01
  8.50000000E-01  8.50000000E-01  8.50000000E-01  8.00000000E-01  8.50000000E-01
  8.50000000E-01  8.50000000E-01  8.00000000E-01  8.50000000E-01  8.50000000E-01
  8.50000000E-01  8.00000000E-01  8.50000000E-01  8.50000000E-01  8.50000000E-01
  8.00000000E-01  8.50000000E-01  8.50000000E-01  8.50000000E-01  8.00000000E-01
  8.50000000E-01  8.50000000E-01  8.50000000E-01  8.00000000E-01  8.50000000E-01
  8.50000000E-01  8.50000000E-01  8.00000000E-01  8.50000000E-01  8.50000000E-01
  8.50000000E-01  8.00000000E-01  8.50000000E-01  8.50000000E-01  8.50000000E-01
  8.00000000E-01  8.50000000E-01  8.50000000E-01  8.50000000E-01  8.00000000E-01
  8.50000000E-01  8.50000000E-01  8.50000000E-01  8.00000000E-01  8.50000000E-01
  8.50000000E-01  8.50000000E-01  8.00000000E-01  8.50000000E-01  8.50000000E-01
  8.50000000E-01  8.00000000E-01  8.50000000E-01  8.50000000E-01  8.50000000E-01
  8.00000000E-01  8.50000000E-01  8.50000000E-01  8.50000000E-01  8.00000000E-01
  8.50000000E-01  8.50000000E-01  8.50000000E-01  8.00000000E-01  8.50000000E-01
  8.50000000E-01  8.50000000E-01  8.00000000E-01  8.50000000E-01  8.50000000E-01
  8.50000000E-01  8.00000000E-01  8.50000000E-01  8.50000000E-01  8.50000000E-01
  8.00000000E-01  8.50000000E-01  8.50000000E-01  8.50000000E-01  8.00000000E-01
  8.50000000E-01  8.50000000E-01  8.50000000E-01  8.00000000E-01  8.50000000E-01
  8.50000000E-01  8.50000000E-01  8.00000000E-01  8.50000000E-01  8.50000000E-01
  8.50000000E-01  8.00000000E-01  8.50000000E-01  8.50000000E-01  8.50000000E-01
  8.00000000E-01  8.50000000E-01  8.50000000E-01  8.50000000E-01  8.00000000E-01
  8.50000000E-01  8.50000000E-01  8.50000000E-01  8.00000000E-01  8.50000000E-01
  8.50000000E-01  8.50000000E-01  8.00000000E-01  8.50000000E-01  8.50000000E-01
  8.50000000E-01  8.00000000E-01  8.50000000E-01  8.50000000E-01  8.50000000E-01
  8.00000000E-01  8.50000000E-01  8.50000000E-01  8.50000000E-01  8.00000000E-01
  8.50000000E-01  8.50000000E-01  8.50000000E-01  8.00000000E-01  8.50000000E-01
  8.50000000E-01  8.50000000E-01  8.00000000E-01  8.50000000E-01  8.50000000E-01
  8.50000000E-01  8.00000000E-01  8.50000000E-01  8.50000000E-01  8.50000000E-01
  8.00000000E-01  8.50000000E-01  8.50000000E-01  8.50000000E-01  8.00000000E-01
  8.50000000E-01  8.50000000E-01  8.50000000E-01  8.00000000E-01  8.50000000E-01
  8.50000000E-01  8.50000000E-01  8.00000000E-01  8.50000000E-01  8.50000000E-01
  8.50000000E-01  8.00000000E-01  8.50000000E-01  8.50000000E-01  8.50000000E-01
  8.00000000E-01  8.50000000E-01  8.50000000E-01  8.50000000E-01  8.00000000E-01
  8.50000000E-01  8.50000000E-01  8.50000000E-01  8.00000000E-01  8.50000000E-01
  8.50000000E-01  8.50000000E-01  8.00000000E-01  8.50000000E-01  8.50000000E-01
  8.50000000E-01  8.00000000E-01  8.50000000E-01  8.50000000E-01  8.50000000E-01
  8.00000000E-01  8.50000000E-01  8.50000000E-01  8.50000000E-01  8.00000000E-01
  8.50000000E-01  8.50000000E-01  8.50000000E-01  8.00000000E-01  8.50000000E-01
  8.50000000E-01  8.50000000E-01  8.00000000E-01  8.50000000E-01  8.50000000E-01
  8.50000000E-01  8.00000000E-01  8.50000000E-01  8.50000000E-01  8.50000000E-01
  8.00000000E-01  8.50000000E-01  8.50000000E-01  8.50000000E-01  8.00000000E-01
  8.50000000E-01  8.50000000E-01  8.50000000E-01  8.00000000E-01  8.50000000E-01
  8.50000000E-01  8.50000000E-01  8.00000000E-01  8.50000000E-01  8.50000000E-01
  8.50000000E-01  8.00000000E-01  8.50000000E-01  8.50000000E-01  8.50000000E-01
  8.00000000E-01  8.50000000E-01  8.50000000E-01  8.50000000E-01  8.00000000E-01
  8.50000000E-01  8.50000000E-01  8.50000000E-01  8.00000000E-01  8.50000000E-01
  8.50000000E-01  8.50000000E-01  8.00000000E-01  8.50000000E-01  8.50000000E-01
  8.50000000E-01  8.00000000E-01  8.50000000E-01  8.50000000E-01  8.50000000E-01
  8.00000000E-01  8.50000000E-01  8.50000000E-01  8.50000000E-01  8.00000000E-01
  8.50000000E-01  8.50000000E-01  8.50000000E-01  8.00000000E-01  8.50000000E-01
  8.50000000E-01  8.50000000E-01  8.00000000E-01  8.50000000E-01  8.50000000E-01
  8.50000000E-01  8.00000000E-01  8.50000000E-01  8.50000000E-01  8.50000000E-01
  8.00000000E-01  8.50000000E-01  8.50000000E-01  8.50000000E-01  8.00000000E-01
  8.50000000E-01  8.50000000E-01  8.50000000E-01  8.00000000E-01  8.50000000E-01
  8.50000000E-01  8.50000000E-01  8.00000000E-01  8.50000000E-01  8.50000000E-01
  8.50000000E-01  8.00000000E-01  8.50000000E-01  8.50000000E-01  8.50000000E-01
  8.00000000E-01  8.50000000E-01  8.50000000E-01  8.50000000E-01  8.00000000E-01
  8.50000000E-01  8.50000000E-01  8.50000000E-01  8.00000000E-01  8.50000000E-01
  8.50000000E-01  8.50000000E-01  8.00000000E-01  8.50000000E-01  8.50000000E-01
  8.50000000E-01  8.00000000E-01  8.50000000E-01  8.50000000E-01  8.50000000E-01
  8.00000000E-01  8.50000000E-01  8.50000000E-01  8.50000000E-01  8.00000000E-01
  8.50000000E-01  8.50000000E-01  8.50000000E-01  8.00000000E-01  8.50000000E-01
  8.50000000E-01  8.50000000E-01  8.00000000E-01  8.50000000E-01  8.50000000E-01
  8.50000000E-01  8.00000000E-01  8.50000000E-01  8.50000000E-01  8.50000000E-01
  8.00000000E-01  8.50000000E-01  8.50000000E-01  8.50000000E-01  8.00000000E-01
  8.50000000E-01  8.50000000E-01  8.50000000E-01  8.00000000E-01  8.50000000E-01
  8.50000000E-01  8.50000000E-01  8.00000000E-01  8.50000000E-01  8.50000000E-01
  8.50000000E-01  8.00000000E-01  8.50000000E-01  8.50000000E-01  8.50000000E-01
  8.00000000E-01  8.50000000E-01  8.50000000E-01  8.50000000E-01  8.00000000E-01
  8.50000000E-01  8.50000000E-01  8.50000000E-01  8.00000000E-01  8.50000000E-01
  8.50000000E-01  8.50000000E-01  8.00000000E-01  8.50000000E-01  8.50000000E-01
  8.50000000E-01  8.00000000E-01  8.50000000E-01  8.50000000E-01  8.50000000E-01
  8.00000000E-01  8.50000000E-01  8.50000000E-01  8.50000000E-01  8.00000000E-01
  8.50000000E-01  8.50000000E-01  8.50000000E-01  8.00000000E-01  8.50000000E-01
  8.50000000E-01  8.50000000E-01  8.00000000E-01  8.50000000E-01  8.50000000E-01
  8.50000000E-01  8.00000000E-01  8.50000000E-01  8.50000000E-01  8.50000000E-01
  8.00000000E-01  8.50000000E-01  8.50000000E-01  8.50000000E-01  8.00000000E-01
  8.50000000E-01  8.50000000E-01  8.50000000E-01  8.00000000E-01  8.50000000E-01
  8.50000000E-01  8.50000000E-01  8.00000000E-01  8.50000000E-01  8.50000000E-01
  8.50000000E-01  8.00000000E-01  8.50000000E-01  8.50000000E-01  8.50000000E-01
  8.00000000E-01  8.50000000E-01  8.50000000E-01  8.50000000E-01  8.00000000E-01
  8.50000000E-01  8.50000000E-01  8.50000000E-01  8.00000000E-01  8.50000000E-01
  8.50000000E-01  8.50000000E-01  8.00000000E-01  8.50000000E-01  8.50000000E-01
  8.50000000E-01  8.00000000E-01  8.50000000E-01  8.50000000E-01  8.50000000E-01
  8.00000000E-01  8.50000000E-01  8.50000000E-01  8.50000000E-01  8.00000000E-01
  8.50000000E-01  8.50000000E-01  8.50000000E-01  8.00000000E-01  8.50000000E-01
  8.50000000E-01  8.50000000E-01  8.00000000E-01  8.50000000E-01  8.50000000E-01
  8.50000000E-01  8.00000000E-01  8.50000000E-01  8.50000000E-01  8.50000000E-01
  8.00000000E-01  8.50000000E-01  8.50000000E-01  8.50000000E-01  8.00000000E-01
  8.50000000E-01  8.50000000E-01  8.50000000E-01  8.00000000E-01  8.50000000E-01
  8.50000000E-01  8.50000000E-01  8.00000000E-01  8.50000000E-01  8.50000000E-01
  8.50000000E-01  8.00000000E-01  8.50000000E-01  8.50000000E-01  8.50000000E-01
  8.00000000E-01  8.50000000E-01  8.50000000E-01  8.50000000E-01  8.00000000E-01
  8.50000000E-01  8.50000000E-01  8.50000000E-01  8.00000000E-01  8.50000000E-01
  8.50000000E-01  8.50000000E-01  8.00000000E-01  8.50000000E-01  8.50000000E-01
  8.50000000E-01  8.00000000E-01  8.50000000E-01  8.50000000E-01  8.50000000E-01
  8.00000000E-01  8.50000000E-01  8.50000000E-01  8.50000000E-01  8.00000000E-01
  8.50000000E-01  8.50000000E-01  8.50000000E-01  8.00000000E-01  8.50000000E-01
  8.50000000E-01  8.50000000E-01  8.00000000E-01  8.50000000E-01  8.50000000E-01
  8.50000000E-01  8.00000000E-01  8.50000000E-01  8.50000000E-01  8.50000000E-01
  8.00000000E-01  8.50000000E-01  8.50000000E-01  8.50000000E-01  8.00000000E-01
  8.50000000E-01  8.50000000E-01  8.50000000E-01  8.00000000E-01  8.50000000E-01
  8.50000000E-01  8.50000000E-01  8.00000000E-01  8.50000000E-01  8.50000000E-01
  8.50000000E-01  8.00000000E-01  8.50000000E-01  8.50000000E-01  8.50000000E-01
  8.00000000E-01  8.50000000E-01  8.50000000E-01  8.50000000E-01  8.00000000E-01
  8.50000000E-01  8.50000000E-01  8.50000000E-01  8.00000000E-01  8.50000000E-01
  8.50000000E-01  8.50000000E-01  8.00000000E-01  8.50000000E-01  8.50000000E-01
  8.50000000E-01  8.00000000E-01  8.50000000E-01  8.50000000E-01  8.50000000E-01
  8.00000000E-01  8.50000000E-01  8.50000000E-01  8.50000000E-01  8.00000000E-01
  8.50000000E-01  8.50000000E-01  8.50000000E-01  8.00000000E-01  8.50000000E-01
  8.50000000E-01  8.50000000E-01  8.00000000E-01  8.50000000E-01  8.50000000E-01
  8.50000000E-01  8.00000000E-01  8.50000000E-01  8.50000000E-01  8.50000000E-01
  8.00000000E-01  8.50000000E-01  8.50000000E-01  8.50000000E-01  8.00000000E-01
  8.50000000E-01  8.50000000E-01  8.50000000E-01  8.00000000E-01  8.50000000E-01
  8.50000000E-01  8.50000000E-01  8.00000000E-01  8.50000000E-01  8.50000000E-01
  8.50000000E-01  8.00000000E-01  8.50000000E-01  8.50000000E-01  8.50000000E-01
  8.00000000E-01  8.50000000E-01  8.50000000E-01  8.50000000E-01  8.00000000E-01
  8.50000000E-01  8.50000000E-01  8.50000000E-01  8.00000000E-01  8.50000000E-01
  8.50000000E-01  8.50000000E-01  8.00000000E-01  8.50000000E-01  8.50000000E-01
  8.50000000E-01  8.00000000E-01  8.50000000E-01  8.50000000E-01  8.50000000E-01
  8.00000000E-01  8.50000000E-01  8.50000000E-01  8.50000000E-01  8.00000000E-01
  8.50000000E-01  8.50000000E-01  8.50000000E-01  8.00000000E-01  8.50000000E-01
  8.50000000E-01  8.50000000E-01  8.00000000E-01  8.50000000E-01  8.50000000E-01
  8.50000000E-01  8.00000000E-01  8.50000000E-01  8.50000000E-01  8.50000000E-01
  8.00000000E-01  8.50000000E-01  8.50000000E-01  8.50000000E-01  8.00000000E-01
  8.50000000E-01  8.50000000E-01  8.50000000E-01  8.00000000E-01  8.50000000E-01
  8.50000000E-01  8.50000000E-01  8.00000000E-01  8.50000000E-01  8.50000000E-01
  8.50000000E-01  8.00000000E-01  8.50000000E-01  8.50000000E-01  8.50000000E-01
  8.00000000E-01  8.50000000E-01  8.50000000E-01  8.50000000E-01  8.00000000E-01
  8.50000000E-01  8.50000000E-01  8.50000000E-01  8.00000000E-01  8.50000000E-01
  8.50000000E-01  8.50000000E-01  8.00000000E-01  8.50000000E-01  8.50000000E-01
  8.50000000E-01  8.00000000E-01  8.50000000E-01  8.50000000E-01  8.50000000E-01
  8.00000000E-01  8.50000000E-01  8.50000000E-01  8.50000000E-01  8.00000000E-01
  8.50000000E-01  8.50000000E-01  8.50000000E-01  8.00000000E-01  8.50000000E-01
  8.50000000E-01  8.50000000E-01  8.00000000E-01  8.50000000E-01  8.50000000E-01
  8.50000000E-01  8.00000000E-01  8.50000000E-01  8.50000000E-01  8.50000000E-01
  8.00000000E-01  8.50000000E-01  8.50000000E-01  8.50000000E-01  8.00000000E-01
  8.50000000E-01  8.50000000E-01  8.50000000E-01  8.00000000E-01  8.50000000E-01
  8.50000000E-01  8.50000000E-01  8.00000000E-01  8.50000000E-01  8.50000000E-01
  8.50000000E-01  8.00000000E-01  8.50000000E-01  8.50000000E-01  8.50000000E-01
  8.00000000E-01  8.50000000E-01  8.50000000E-01  8.50000000E-01  8.00000000E-01
  8.50000000E-01  8.50000000E-01  8.50000000E-01  8.00000000E-01  8.50000000E-01
  8.50000000E-01  8.50000000E-01  8.00000000E-01  8.50000000E-01  8.50000000E-01
  8.50000000E-01  8.00000000E-01  8.50000000E-01  8.50000000E-01  8.50000000E-01
  8.00000000E-01  8.50000000E-01  8.50000000E-01  8.50000000E-01  8.00000000E-01
  8.50000000E-01  8.50000000E-01  8.50000000E-01  8.00000000E-01  8.50000000E-01
  8.50000000E-01  8.50000000E-01  8.00000000E-01  8.50000000E-01  8.50000000E-01
  8.50000000E-01  8.00000000E-01  8.50000000E-01  8.50000000E-01  8.50000000E-01
  8.00000000E-01  8.50000000E-01  8.50000000E-01  8.50000000E-01  8.00000000E-01
  8.50000000E-01  8.50000000E-01  8.50000000E-01  8.00000000E-01  8.50000000E-01
  8.50000000E-01  8.50000000E-01  8.00000000E-01  8.50000000E-01  8.50000000E-01
  8.50000000E-01  8.00000000E-01  8.50000000E-01  8.50000000E-01  8.50000000E-01
  8.00000000E-01  8.50000000E-01  8.50000000E-01  8.50000000E-01  8.00000000E-01
  8.50000000E-01  8.50000000E-01  8.50000000E-01  8.00000000E-01  8.50000000E-01
  8.50000000E-01  8.50000000E-01  8.00000000E-01  8.50000000E-01  8.50000000E-01
  8.50000000E-01  8.00000000E-01  8.50000000E-01  8.50000000E-01  8.50000000E-01
  8.00000000E-01  8.50000000E-01  8.50000000E-01  8.50000000E-01  8.00000000E-01
  8.50000000E-01  8.50000000E-01  8.50000000E-01  8.00000000E-01  8.50000000E-01
  8.50000000E-01  8.50000000E-01  8.00000000E-01  8.50000000E-01  8.50000000E-01
  8.50000000E-01  8.00000000E-01  8.50000000E-01  8.50000000E-01  8.50000000E-01
  8.00000000E-01  8.50000000E-01  8.50000000E-01  8.50000000E-01  8.00000000E-01
  8.50000000E-01  8.50000000E-01  8.50000000E-01  8.00000000E-01  8.50000000E-01
  8.50000000E-01  8.50000000E-01  8.00000000E-01  8.50000000E-01  8.50000000E-01
  8.50000000E-01  8.00000000E-01  8.50000000E-01  8.50000000E-01  8.50000000E-01
  8.00000000E-01  8.50000000E-01  8.50000000E-01  8.50000000E-01  8.00000000E-01
  8.50000000E-01  8.50000000E-01  8.50000000E-01  8.00000000E-01  8.50000000E-01
  8.50000000E-01  8.50000000E-01  8.00000000E-01  8.50000000E-01  8.50000000E-01
  8.50000000E-01  8.00000000E-01  8.50000000E-01  8.50000000E-01  8.50000000E-01
  8.00000000E-01  8.50000000E-01  8.50000000E-01  8.50000000E-01  8.00000000E-01
  8.50000000E-01  8.50000000E-01  8.50000000E-01  8.00000000E-01  8.50000000E-01
  8.50000000E-01  8.50000000E-01  8.00000000E-01  8.50000000E-01  8.50000000E-01
  8.50000000E-01  8.00000000E-01  8.50000000E-01  8.50000000E-01  8.50000000E-01
  8.00000000E-01  8.50000000E-01  8.50000000E-01  8.50000000E-01  8.00000000E-01
  8.50000000E-01  8.50000000E-01  8.50000000E-01  8.00000000E-01  8.50000000E-01
  8.50000000E-01  8.50000000E-01  8.00000000E-01  8.50000000E-01  8.50000000E-01
  8.50000000E-01  8.00000000E-01  8.50000000E-01  8.50000000E-01  8.50000000E-01
  8.00000000E-01  8.50000000E-01  8.50000000E-01  8.50000000E-01  8.00000000E-01
  8.50000000E-01  8.50000000E-01  8.50000000E-01  8.00000000E-01  8.50000000E-01
  8.50000000E-01  8.50000000E-01  8.00000000E-01  8.50000000E-01  8.50000000E-01
  8.50000000E-01  8.00000000E-01  8.50000000E-01  8.50000000E-01  8.50000000E-01
  8.00000000E-01  8.50000000E-01  8.50000000E-01  8.50000000E-01  8.00000000E-01
  8.50000000E-01  8.50000000E-01  8.50000000E-01  8.00000000E-01  8.50000000E-01
  8.50000000E-01  8.50000000E-01  8.00000000E-01  8.50000000E-01  8.50000000E-01
  8.50000000E-01  8.00000000E-01  8.50000000E-01  8.50000000E-01  8.50000000E-01
  8.00000000E-01  8.50000000E-01  8.50000000E-01  8.50000000E-01  8.00000000E-01
  8.50000000E-01  8.50000000E-01  8.50000000E-01  8.00000000E-01  8.50000000E-01
  8.50000000E-01  8.50000000E-01  8.00000000E-01  8.50000000E-01  8.50000000E-01
  8.50000000E-01  8.00000000E-01  8.50000000E-01  8.50000000E-01  8.50000000E-01
  8.00000000E-01  8.50000000E-01  8.50000000E-01  8.50000000E-01  8.00000000E-01
  8.50000000E-01  8.50000000E-01  8.50000000E-01  8.00000000E-01  8.50000000E-01
  8.50000000E-01  8.50000000E-01  8.00000000E-01  8.50000000E-01  8.50000000E-01
  8.50000000E-01  8.00000000E-01  8.50000000E-01  8.50000000E-01  8.50000000E-01
  8.00000000E-01  8.50000000E-01  8.50000000E-01  8.50000000E-01  8.00000000E-01
  8.50000000E-01  8.50000000E-01  8.50000000E-01  8.00000000E-01  8.50000000E-01
  8.50000000E-01  8.50000000E-01  8.00000000E-01  8.50000000E-01  8.50000000E-01
  8.50000000E-01  8.00000000E-01  8.50000000E-01  8.50000000E-01  8.50000000E-01
  8.00000000E-01  8.50000000E-01  8.50000000E-01  8.50000000E-01  8.00000000E-01
  8.50000000E-01  8.50000000E-01  8.50000000E-01  8.00000000E-01  8.50000000E-01
  8.50000000E-01  8.50000000E-01  8.00000000E-01  8.50000000E-01  8.50000000E-01
  8.50000000E-01  8.00000000E-01  8.50000000E-01  8.50000000E-01  8.50000000E-01
  8.00000000E-01  8.50000000E-01  8.50000000E-01  8.50000000E-01  8.00000000E-01
  8.50000000E-01  8.50000000E-01  8.50000000E-01  8.00000000E-01  8.50000000E-01
  8.50000000E-01  8.50000000E-01  8.00000000E-01  8.50000000E-01  8.50000000E-01
  8.50000000E-01  8.00000000E-01  8.50000000E-01  8.50000000E-01  8.50000000E-01
  8.00000000E-01  8.50000000E-01  8.50000000E-01  8.50000000E-01  8.00000000E-01
  8.50000000E-01  8.50000000E-01  8.50000000E-01  8.00000000E-01  8.50000000E-01
  8.50000000E-01  8.50000000E-01  8.00000000E-01  8.50000000E-01  8.50000000E-01
  8.50000000E-01  8.00000000E-01  8.50000000E-01  8.50000000E-01  8.50000000E-01
  8.00000000E-01  8.50000000E-01  8.50000000E-01  8.50000000E-01  8.00000000E-01
  8.50000000E-01  8.50000000E-01  8.50000000E-01  8.00000000E-01  8.50000000E-01
  8.50000000E-01  8.50000000E-01  8.00000000E-01  8.50000000E-01  8.50000000E-01
  8.50000000E-01  8.00000000E-01  8.50000000E-01  8.50000000E-01  8.50000000E-01
  8.00000000E-01  8.50000000E-01  8.50000000E-01  8.50000000E-01  8.00000000E-01
  8.50000000E-01  8.50000000E-01  8.50000000E-01  8.00000000E-01  8.50000000E-01
  8.50000000E-01  8.50000000E-01  8.00000000E-01  8.50000000E-01  8.50000000E-01
  8.50000000E-01  8.00000000E-01  8.50000000E-01  8.50000000E-01  8.50000000E-01
  8.00000000E-01  8.50000000E-01  8.50000000E-01  8.50000000E-01  8.00000000E-01
  8.50000000E-01  8.50000000E-01  8.50000000E-01  8.00000000E-01  8.50000000E-01
  8.50000000E-01  8.50000000E-01  8.00000000E-01  8.50000000E-01  8.50000000E-01
  8.50000000E-01  8.00000000E-01  8.50000000E-01  8.50000000E-01  8.50000000E-01
  8.00000000E-01  8.50000000E-01  8.50000000E-01  8.50000000E-01  8.00000000E-01
  8.50000000E-01  8.50000000E-01  8.50000000E-01  8.00000000E-01  8.50000000E-01
  8.50000000E-01  8.50000000E-01  8.00000000E-01  8.50000000E-01  8.50000000E-01
  8.50000000E-01  8.00000000E-01  8.50000000E-01  8.50000000E-01  8.50000000E-01
  8.00000000E-01  8.50000000E-01  8.50000000E-01  8.50000000E-01  8.00000000E-01
  8.50000000E-01  8.50000000E-01  8.50000000E-01  8.00000000E-01  8.50000000E-01
  8.50000000E-01  8.50000000E-01  8.00000000E-01  8.50000000E-01  8.50000000E-01
  8.50000000E-01  8.00000000E-01  8.50000000E-01  8.50000000E-01  8.50000000E-01
  8.00000000E-01  8.50000000E-01  8.50000000E-01  8.50000000E-01  8.00000000E-01
  8.50000000E-01  8.50000000E-01  8.50000000E-01  8.00000000E-01  8.50000000E-01
  8.50000000E-01  8.50000000E-01  8.00000000E-01  8.50000000E-01  8.50000000E-01
  8.50000000E-01  8.00000000E-01  8.50000000E-01  8.50000000E-01  8.50000000E-01
  8.00000000E-01  8.50000000E-01  8.50000000E-01  8.50000000E-01  8.00000000E-01
  8.50000000E-01  8.50000000E-01  8.50000000E-01  8.00000000E-01  8.50000000E-01
  8.50000000E-01  8.50000000E-01  8.00000000E-01  8.50000000E-01  8.50000000E-01
  8.50000000E-01  8.00000000E-01  8.50000000E-01  8.50000000E-01  8.50000000E-01
  8.00000000E-01  8.50000000E-01  8.50000000E-01  8.50000000E-01  8.00000000E-01
  8.50000000E-01  8.50000000E-01  8.50000000E-01  8.00000000E-01  8.50000000E-01
  8.50000000E-01  8.50000000E-01  8.00000000E-01  8.50000000E-01  8.50000000E-01
  8.50000000E-01  8.00000000E-01  8.50000000E-01  8.50000000E-01  8.50000000E-01
  8.00000000E-01  8.50000000E-01  8.50000000E-01  8.50000000E-01  8.00000000E-01
  8.50000000E-01  8.50000000E-01  8.50000000E-01  8.00000000E-01  8.50000000E-01
  8.50000000E-01  8.50000000E-01  8.00000000E-01  8.50000000E-01  8.50000000E-01
  8.50000000E-01  8.00000000E-01  8.50000000E-01  8.50000000E-01  8.50000000E-01
  8.00000000E-01  8.50000000E-01  8.50000000E-01  8.50000000E-01  8.00000000E-01
  8.50000000E-01  8.50000000E-01  8.50000000E-01  8.00000000E-01  8.50000000E-01
  8.50000000E-01  8.50000000E-01  8.00000000E-01  8.50000000E-01  8.50000000E-01
  8.50000000E-01  8.00000000E-01  8.50000000E-01  8.50000000E-01  8.50000000E-01
  8.00000000E-01  8.50000000E-01  8.50000000E-01  8.50000000E-01  8.00000000E-01
  8.50000000E-01  8.50000000E-01  8.50000000E-01  8.00000000E-01  8.50000000E-01
  8.50000000E-01  8.50000000E-01  8.00000000E-01  8.50000000E-01  8.50000000E-01
  8.50000000E-01  8.00000000E-01  8.50000000E-01  8.50000000E-01  8.50000000E-01
  8.00000000E-01  8.50000000E-01  8.50000000E-01  8.50000000E-01  8.00000000E-01
  8.50000000E-01  8.50000000E-01  8.50000000E-01  8.00000000E-01  8.50000000E-01
  8.50000000E-01  8.50000000E-01  8.00000000E-01  8.50000000E-01  8.50000000E-01
  8.50000000E-01  8.00000000E-01  8.50000000E-01  8.50000000E-01  8.50000000E-01
  8.00000000E-01  8.50000000E-01  8.50000000E-01  8.50000000E-01  8.00000000E-01
  8.50000000E-01  8.50000000E-01  8.50000000E-01  8.00000000E-01  8.50000000E-01
  8.50000000E-01  8.50000000E-01  8.00000000E-01  8.50000000E-01  8.50000000E-01
  8.50000000E-01  8.00000000E-01  8.50000000E-01  8.50000000E-01  8.50000000E-01
  8.00000000E-01  8.50000000E-01  8.50000000E-01  8.50000000E-01  8.00000000E-01
  8.50000000E-01  8.50000000E-01  8.50000000E-01  8.00000000E-01  8.50000000E-01
  8.50000000E-01  8.50000000E-01  8.00000000E-01  8.50000000E-01  8.50000000E-01
  8.50000000E-01  8.00000000E-01  8.50000000E-01  8.50000000E-01  8.50000000E-01
  8.00000000E-01  8.50000000E-01  8.50000000E-01  8.50000000E-01  8.00000000E-01
  8.50000000E-01  8.50000000E-01  8.50000000E-01  8.00000000E-01  8.50000000E-01
  8.50000000E-01  8.50000000E-01  8.00000000E-01  8.50000000E-01  8.50000000E-01
  8.50000000E-01  8.00000000E-01  8.50000000E-01  8.50000000E-01  8.50000000E-01
  8.00000000E-01  8.50000000E-01  8.50000000E-01  8.50000000E-01  8.00000000E-01
  8.50000000E-01  8.50000000E-01  8.50000000E-01  8.00000000E-01  8.50000000E-01
  8.50000000E-01  8.50000000E-01  8.00000000E-01  8.50000000E-01  8.50000000E-01
  8.50000000E-01  8.00000000E-01  8.50000000E-01  8.50000000E-01  8.50000000E-01
  8.00000000E-01  8.50000000E-01  8.50000000E-01  8.50000000E-01  8.00000000E-01
  8.50000000E-01  8.50000000E-01  8.50000000E-01  8.00000000E-01  8.50000000E-01
  8.50000000E-01  8.50000000E-01  8.00000000E-01  8.50000000E-01  8.50000000E-01
  8.50000000E-01  8.00000000E-01  8.50000000E-01  8.50000000E-01  8.50000000E-01
  8.00000000E-01  8.50000000E-01  8.50000000E-01  8.50000000E-01  8.00000000E-01
  8.50000000E-01  8.50000000E-01  8.50000000E-01  8.00000000E-01  8.50000000E-01
  8.50000000E-01  8.50000000E-01  8.00000000E-01  8.50000000E-01  8.50000000E-01
  8.50000000E-01  8.00000000E-01  8.50000000E-01  8.50000000E-01  8.50000000E-01
  8.00000000E-01  8.50000000E-01  8.50000000E-01  8.50000000E-01  8.00000000E-01
  8.50000000E-01  8.50000000E-01  8.50000000E-01  8.00000000E-01  8.50000000E-01
  8.50000000E-01  8.50000000E-01  8.00000000E-01  8.50000000E-01  8.50000000E-01
  8.50000000E-01  8.00000000E-01  8.50000000E-01  8.50000000E-01  8.50000000E-01
  8.00000000E-01  8.50000000E-01  8.50000000E-01  8.50000000E-01  8.00000000E-01
  8.50000000E-01  8.50000000E-01  8.50000000E-01  8.00000000E-01  8.50000000E-01
  8.50000000E-01  8.50000000E-01  8.00000000E-01  8.50000000E-01  8.50000000E-01
  8.50000000E-01  8.00000000E-01  8.50000000E-01  8.50000000E-01  8.50000000E-01
  8.00000000E-01  8.50000000E-01  8.50000000E-01  8.50000000E-01  8.00000000E-01
  8.50000000E-01  8.50000000E-01  8.50000000E-01  8.00000000E-01  8.50000000E-01
  8.50000000E-01  8.50000000E-01  8.00000000E-01  8.50000000E-01  8.50000000E-01
  8.50000000E-01  8.00000000E-01  8.50000000E-01  8.50000000E-01  8.50000000E-01
  8.00000000E-01  8.50000000E-01  8.50000000E-01  8.50000000E-01  8.00000000E-01
  8.50000000E-01  8.50000000E-01  8.50000000E-01  8.00000000E-01  8.50000000E-01
  8.50000000E-01  8.50000000E-01  8.00000000E-01  8.50000000E-01  8.50000000E-01
  8.50000000E-01  8.00000000E-01  8.50000000E-01  8.50000000E-01  8.50000000E-01
  8.00000000E-01  8.50000000E-01  8.50000000E-01  8.50000000E-01  8.00000000E-01
  8.50000000E-01  8.50000000E-01  8.50000000E-01  8.00000000E-01  8.50000000E-01
  8.50000000E-01  8.50000000E-01  8.00000000E-01  8.50000000E-01  8.50000000E-01
  8.50000000E-01  8.00000000E-01  8.50000000E-01  8.50000000E-01  8.50000000E-01
  8.00000000E-01  8.50000000E-01  8.50000000E-01  8.50000000E-01  8.00000000E-01
  8.50000000E-01  8.50000000E-01  8.50000000E-01  8.00000000E-01  8.50000000E-01
  8.50000000E-01  8.50000000E-01  8.00000000E-01  8.50000000E-01  8.50000000E-01
  8.50000000E-01  8.00000000E-01  8.50000000E-01  8.50000000E-01  8.50000000E-01
  8.00000000E-01  8.50000000E-01  8.50000000E-01  8.50000000E-01  8.00000000E-01
  8.50000000E-01  8.50000000E-01  8.50000000E-01  8.00000000E-01  8.50000000E-01
  8.50000000E-01  8.50000000E-01  8.00000000E-01  8.50000000E-01  8.50000000E-01
  8.50000000E-01  8.00000000E-01  8.50000000E-01  8.50000000E-01  8.50000000E-01
  8.00000000E-01  8.50000000E-01  8.50000000E-01  8.50000000E-01  8.00000000E-01
  8.50000000E-01  8.50000000E-01  8.50000000E-01  8.00000000E-01  8.50000000E-01
  8.50000000E-01  8.50000000E-01  8.00000000E-01  8.50000000E-01  8.50000000E-01
  8.50000000E-01  8.00000000E-01  8.50000000E-01  8.50000000E-01  8.50000000E-01
  8.00000000E-01  8.50000000E-01  8.50000000E-01  8.50000000E-01  8.00000000E-01
  8.50000000E-01  8.50000000E-01  8.50000000E-01  8.00000000E-01  8.50000000E-01
  8.50000000E-01  8.50000000E-01  8.00000000E-01  8.50000000E-01  8.50000000E-01
  8.50000000E-01  8.00000000E-01  8.50000000E-01  8.50000000E-01  8.50000000E-01
  8.00000000E-01  8.50000000E-01  8.50000000E-01  8.50000000E-01  8.00000000E-01
  8.50000000E-01  8.50000000E-01  8.50000000E-01  8.00000000E-01  8.50000000E-01
  8.50000000E-01  8.50000000E-01  8.00000000E-01  8.50000000E-01  8.50000000E-01
  8.50000000E-01  8.00000000E-01  8.50000000E-01  8.50000000E-01  8.50000000E-01
  8.00000000E-01  8.50000000E-01  8.50000000E-01  8.50000000E-01  8.00000000E-01
  8.50000000E-01  8.50000000E-01  8.50000000E-01  8.00000000E-01  8.50000000E-01
  8.50000000E-01  8.50000000E-01  8.00000000E-01  8.50000000E-01  8.50000000E-01
  8.50000000E-01  8.00000000E-01  8.50000000E-01  8.50000000E-01  8.50000000E-01
  8.00000000E-01  8.50000000E-01  8.50000000E-01  8.50000000E-01  8.00000000E-01
  8.50000000E-01  8.50000000E-01  8.50000000E-01  8.00000000E-01  8.50000000E-01
  8.50000000E-01  8.50000000E-01  8.00000000E-01  8.50000000E-01  8.50000000E-01
  8.50000000E-01  8.00000000E-01  8.50000000E-01  8.50000000E-01  8.50000000E-01
  8.00000000E-01  8.50000000E-01  8.50000000E-01  8.50000000E-01  8.00000000E-01
  8.50000000E-01  8.50000000E-01  8.50000000E-01  8.00000000E-01  8.50000000E-01
  8.50000000E-01  8.50000000E-01  8.00000000E-01  8.50000000E-01  8.50000000E-01
  8.50000000E-01  8.00000000E-01  8.50000000E-01  8.50000000E-01  8.50000000E-01
  8.00000000E-01  8.50000000E-01  8.50000000E-01  8.50000000E-01  8.00000000E-01
  8.50000000E-01  8.50000000E-01  8.50000000E-01  8.00000000E-01  8.50000000E-01
  8.50000000E-01  8.50000000E-01  8.00000000E-01  8.50000000E-01  8.50000000E-01
  8.50000000E-01  8.00000000E-01  8.50000000E-01  8.50000000E-01  8.50000000E-01
  8.00000000E-01  8.50000000E-01  8.50000000E-01  8.50000000E-01  8.00000000E-01
  8.50000000E-01  8.50000000E-01  8.50000000E-01  8.00000000E-01  8.50000000E-01
  8.50000000E-01  8.50000000E-01  8.00000000E-01  8.50000000E-01  8.50000000E-01
  8.50000000E-01  8.00000000E-01  8.50000000E-01  8.50000000E-01  8.50000000E-01
  8.00000000E-01  8.50000000E-01  8.50000000E-01  8.50000000E-01  8.00000000E-01
  8.50000000E-01  8.50000000E-01  8.50000000E-01  8.00000000E-01  8.50000000E-01
  8.50000000E-01  8.50000000E-01  8.00000000E-01  8.50000000E-01  8.50000000E-01
  8.50000000E-01  8.00000000E-01  8.50000000E-01  8.50000000E-01  8.50000000E-01
  8.00000000E-01  8.50000000E-01  8.50000000E-01  8.50000000E-01  8.00000000E-01
  8.50000000E-01  8.50000000E-01  8.50000000E-01  8.00000000E-01  8.50000000E-01
  8.50000000E-01  8.50000000E-01  8.00000000E-01  8.50000000E-01  8.50000000E-01
  8.50000000E-01  8.00000000E-01  8.50000000E-01  8.50000000E-01  8.50000000E-01
  8.00000000E-01  8.50000000E-01  8.50000000E-01  8.50000000E-01  8.00000000E-01
  8.50000000E-01  8.50000000E-01  8.50000000E-01  8.00000000E-01  8.50000000E-01
  8.50000000E-01  8.50000000E-01  8.00000000E-01  8.50000000E-01  8.50000000E-01
  8.50000000E-01  8.00000000E-01  8.50000000E-01  8.50000000E-01  8.50000000E-01
  8.00000000E-01  8.50000000E-01  8.50000000E-01  8.50000000E-01  8.00000000E-01
  8.50000000E-01  8.50000000E-01  8.50000000E-01  8.00000000E-01  8.50000000E-01
  8.50000000E-01  8.50000000E-01  8.00000000E-01  8.50000000E-01  8.50000000E-01
  8.50000000E-01  8.00000000E-01  8.50000000E-01  8.50000000E-01  8.50000000E-01
  8.00000000E-01  8.50000000E-01  8.50000000E-01  8.50000000E-01  8.00000000E-01
  8.50000000E-01  8.50000000E-01  8.50000000E-01  8.00000000E-01  8.50000000E-01
  8.50000000E-01  8.50000000E-01  8.00000000E-01  8.50000000E-01  8.50000000E-01
  8.50000000E-01  8.00000000E-01  8.50000000E-01  8.50000000E-01  8.50000000E-01
  8.00000000E-01  8.50000000E-01  8.50000000E-01  8.50000000E-01  8.00000000E-01
  8.50000000E-01  8.50000000E-01  8.50000000E-01  8.00000000E-01  8.50000000E-01
  8.50000000E-01  8.50000000E-01  8.00000000E-01  8.50000000E-01  8.50000000E-01
  8.50000000E-01  8.00000000E-01  8.50000000E-01  8.50000000E-01  8.50000000E-01
  8.00000000E-01  8.50000000E-01  8.50000000E-01  8.50000000E-01  8.00000000E-01
  8.50000000E-01  8.50000000E-01  8.50000000E-01  8.00000000E-01  8.50000000E-01
  8.50000000E-01  8.50000000E-01  8.00000000E-01  8.50000000E-01  8.50000000E-01
  8.50000000E-01  8.00000000E-01  8.50000000E-01  8.50000000E-01  8.50000000E-01
  8.00000000E-01  8.50000000E-01  8.50000000E-01  8.50000000E-01  8.00000000E-01
  8.50000000E-01  8.50000000E-01  8.50000000E-01  8.00000000E-01  8.50000000E-01
  8.50000000E-01  8.50000000E-01  8.00000000E-01  8.50000000E-01  8.50000000E-01
  8.50000000E-01  8.00000000E-01  8.50000000E-01  8.50000000E-01  8.50000000E-01
  8.00000000E-01  8.50000000E-01  8.50000000E-01  8.50000000E-01  8.00000000E-01
  8.50000000E-01  8.50000000E-01  8.50000000E-01  8.00000000E-01  8.50000000E-01
  8.50000000E-01  8.50000000E-01  8.00000000E-01  8.50000000E-01  8.50000000E-01
  8.50000000E-01  8.00000000E-01  8.50000000E-01  8.50000000E-01  8.50000000E-01
  8.00000000E-01  8.50000000E-01  8.50000000E-01  8.50000000E-01  8.00000000E-01
  8.50000000E-01  8.50000000E-01  8.50000000E-01  8.00000000E-01  8.50000000E-01
  8.50000000E-01  8.50000000E-01  8.00000000E-01  8.50000000E-01  8.50000000E-01
  8.50000000E-01  8.00000000E-01  8.50000000E-01  8.50000000E-01  8.50000000E-01
  8.00000000E-01  8.50000000E-01  8.50000000E-01  8.50000000E-01  8.00000000E-01
  8.50000000E-01  8.50000000E-01  8.50000000E-01  8.00000000E-01  8.50000000E-01
  8.50000000E-01  8.50000000E-01  8.00000000E-01  8.50000000E-01  8.50000000E-01
  8.50000000E-01  8.00000000E-01  8.50000000E-01  8.50000000E-01  8.50000000E-01
  8.00000000E-01  8.50000000E-01  8.50000000E-01  8.50000000E-01  8.00000000E-01
  8.50000000E-01  8.50000000E-01  8.50000000E-01  8.00000000E-01  8.50000000E-01
  8.50000000E-01  8.50000000E-01  8.00000000E-01  8.50000000E-01  8.50000000E-01
  8.50000000E-01  8.00000000E-01  8.50000000E-01  8.50000000E-01  8.50000000E-01
  8.00000000E-01  8.50000000E-01  8.50000000E-01  8.50000000E-01  8.00000000E-01
  8.50000000E-01  8.50000000E-01  8.50000000E-01  8.00000000E-01  8.50000000E-01
  8.50000000E-01  8.50000000E-01  8.00000000E-01  8.50000000E-01  8.50000000E-01
  8.50000000E-01  8.00000000E-01  8.50000000E-01  8.50000000E-01  8.50000000E-01
  8.00000000E-01  8.50000000E-01  8.50000000E-01  8.50000000E-01  8.00000000E-01
  8.50000000E-01  8.50000000E-01  8.50000000E-01  8.00000000E-01  8.50000000E-01
  8.50000000E-01  8.50000000E-01  8.00000000E-01  8.50000000E-01  8.50000000E-01
  8.50000000E-01  8.00000000E-01  8.50000000E-01  8.50000000E-01  8.50000000E-01
  8.00000000E-01  8.50000000E-01  8.50000000E-01  8.50000000E-01  8.00000000E-01
  8.50000000E-01  8.50000000E-01  8.50000000E-01  8.00000000E-01  8.50000000E-01
  8.50000000E-01  8.50000000E-01  8.00000000E-01  8.50000000E-01  8.50000000E-01
  8.50000000E-01  8.00000000E-01  8.50000000E-01  8.50000000E-01  8.50000000E-01
  8.00000000E-01  8.50000000E-01  8.50000000E-01  8.50000000E-01  8.00000000E-01
  8.50000000E-01  8.50000000E-01  8.50000000E-01  8.00000000E-01  8.50000000E-01
  8.50000000E-01  8.50000000E-01  8.00000000E-01  8.50000000E-01  8.50000000E-01
  8.50000000E-01  8.00000000E-01  8.50000000E-01  8.50000000E-01  8.50000000E-01
  8.00000000E-01  8.50000000E-01  8.50000000E-01  8.50000000E-01  8.00000000E-01
  8.50000000E-01  8.50000000E-01  8.50000000E-01  8.00000000E-01  8.50000000E-01
  8.50000000E-01  8.50000000E-01  8.00000000E-01  8.50000000E-01  8.50000000E-01
  8.50000000E-01  8.00000000E-01  8.50000000E-01  8.50000000E-01  8.50000000E-01
  8.00000000E-01  8.50000000E-01  8.50000000E-01  8.50000000E-01  8.00000000E-01
  8.50000000E-01  8.50000000E-01  8.50000000E-01  8.00000000E-01  8.50000000E-01
  8.50000000E-01  8.50000000E-01  8.00000000E-01  8.50000000E-01  8.50000000E-01
  8.50000000E-01  8.00000000E-01  8.50000000E-01  8.50000000E-01  8.50000000E-01
  8.00000000E-01  8.50000000E-01  8.50000000E-01  8.50000000E-01  8.00000000E-01
  8.50000000E-01  8.50000000E-01  8.50000000E-01  8.00000000E-01  8.50000000E-01
  8.50000000E-01  8.50000000E-01  8.00000000E-01  8.50000000E-01  8.50000000E-01
  8.50000000E-01  8.00000000E-01  8.50000000E-01  8.50000000E-01  8.50000000E-01
  8.00000000E-01  8.50000000E-01  8.50000000E-01  8.50000000E-01  8.00000000E-01
  8.50000000E-01  8.50000000E-01  8.50000000E-01  8.00000000E-01  8.50000000E-01
  8.50000000E-01  8.50000000E-01  8.00000000E-01  8.50000000E-01  8.50000000E-01
  8.50000000E-01  8.00000000E-01  8.50000000E-01  8.50000000E-01  8.50000000E-01
  8.00000000E-01  8.50000000E-01  8.50000000E-01  8.50000000E-01  8.00000000E-01
  8.50000000E-01  8.50000000E-01  8.50000000E-01  8.00000000E-01  8.50000000E-01
  8.50000000E-01  8.50000000E-01  8.00000000E-01  8.50000000E-01  8.50000000E-01
  8.50000000E-01  8.00000000E-01  8.50000000E-01  8.50000000E-01  8.50000000E-01
  8.00000000E-01  8.50000000E-01  8.50000000E-01  8.50000000E-01  8.00000000E-01
  8.50000000E-01  8.50000000E-01  8.50000000E-01  8.00000000E-01  8.50000000E-01
  8.50000000E-01  8.50000000E-01  8.00000000E-01  8.50000000E-01  8.50000000E-01
  8.50000000E-01  8.00000000E-01  8.50000000E-01  8.50000000E-01  8.50000000E-01
  8.00000000E-01  8.50000000E-01  8.50000000E-01  8.50000000E-01  8.00000000E-01
  8.50000000E-01  8.50000000E-01  8.50000000E-01  8.00000000E-01  8.50000000E-01
  8.50000000E-01  8.50000000E-01  8.00000000E-01  8.50000000E-01  8.50000000E-01
  8.50000000E-01  8.00000000E-01  8.50000000E-01  8.50000000E-01  8.50000000E-01
  8.00000000E-01  8.50000000E-01  8.50000000E-01  8.50000000E-01  8.00000000E-01
  8.50000000E-01  8.50000000E-01  8.50000000E-01  8.00000000E-01  8.50000000E-01
  8.50000000E-01  8.50000000E-01  8.00000000E-01  8.50000000E-01  8.50000000E-01
  8.50000000E-01  8.00000000E-01  8.50000000E-01  8.50000000E-01  8.50000000E-01
  8.00000000E-01  8.50000000E-01  8.50000000E-01  8.50000000E-01  8.00000000E-01
  8.50000000E-01  8.50000000E-01  8.50000000E-01  8.00000000E-01  8.50000000E-01
  8.50000000E-01  8.50000000E-01  8.00000000E-01  8.50000000E-01  8.50000000E-01
  8.50000000E-01  8.00000000E-01  8.50000000E-01  8.50000000E-01  8.50000000E-01
  8.00000000E-01  8.50000000E-01  8.50000000E-01  8.50000000E-01  8.00000000E-01
  8.50000000E-01  8.50000000E-01  8.50000000E-01  8.00000000E-01  8.50000000E-01
  8.50000000E-01  8.50000000E-01  8.00000000E-01  8.50000000E-01  8.50000000E-01
  8.50000000E-01  8.00000000E-01  8.50000000E-01  8.50000000E-01  8.50000000E-01
  8.00000000E-01  8.50000000E-01  8.50000000E-01  8.50000000E-01  8.00000000E-01
  8.50000000E-01  8.50000000E-01  8.50000000E-01  8.00000000E-01  8.50000000E-01
  8.50000000E-01  8.50000000E-01  8.00000000E-01  8.50000000E-01  8.50000000E-01
  8.50000000E-01  8.00000000E-01  8.50000000E-01  8.50000000E-01  8.50000000E-01
  8.00000000E-01  8.50000000E-01  8.50000000E-01  8.50000000E-01  8.00000000E-01
  8.50000000E-01  8.50000000E-01  8.50000000E-01  8.00000000E-01  8.50000000E-01
  8.50000000E-01  8.50000000E-01  8.00000000E-01  8.50000000E-01  8.50000000E-01
  8.50000000E-01  8.00000000E-01  8.50000000E-01  8.50000000E-01  8.50000000E-01
  8.00000000E-01  8.50000000E-01  8.50000000E-01  8.50000000E-01  8.00000000E-01
  8.50000000E-01  8.50000000E-01  8.50000000E-01  8.00000000E-01  8.50000000E-01
  8.50000000E-01  8.50000000E-01  8.00000000E-01  8.50000000E-01  8.50000000E-01
  8.50000000E-01  8.00000000E-01  8.50000000E-01  8.50000000E-01  8.50000000E-01
  8.00000000E-01  8.50000000E-01  8.50000000E-01  8.50000000E-01  8.00000000E-01
  8.50000000E-01  8.50000000E-01  8.50000000E-01  8.00000000E-01  8.50000000E-01
  8.50000000E-01  8.50000000E-01  8.00000000E-01  8.50000000E-01  8.50000000E-01
  8.50000000E-01  8.00000000E-01  8.50000000E-01  8.50000000E-01  8.50000000E-01
  8.00000000E-01  8.50000000E-01  8.50000000E-01  8.50000000E-01  8.00000000E-01
  8.50000000E-01  8.50000000E-01  8.50000000E-01  8.00000000E-01  8.50000000E-01
  8.50000000E-01  8.50000000E-01  8.00000000E-01  8.50000000E-01  8.50000000E-01
  8.50000000E-01  8.00000000E-01  8.50000000E-01  8.50000000E-01  8.50000000E-01
  8.00000000E-01  8.50000000E-01  8.50000000E-01  8.50000000E-01  8.00000000E-01
  8.50000000E-01  8.50000000E-01  8.50000000E-01  8.00000000E-01  8.50000000E-01
  8.50000000E-01  8.50000000E-01  8.00000000E-01  8.50000000E-01  8.50000000E-01
  8.50000000E-01  8.00000000E-01  8.50000000E-01  8.50000000E-01  8.50000000E-01
  8.00000000E-01  8.50000000E-01  8.50000000E-01  8.50000000E-01  8.00000000E-01
  8.50000000E-01  8.50000000E-01  8.50000000E-01  8.00000000E-01  8.50000000E-01
  8.50000000E-01  8.50000000E-01  8.00000000E-01  8.50000000E-01  8.50000000E-01
  8.50000000E-01  8.00000000E-01  8.50000000E-01  8.50000000E-01  8.50000000E-01
  8.00000000E-01  8.50000000E-01  8.50000000E-01  8.50000000E-01  8.00000000E-01
  8.50000000E-01  8.50000000E-01  8.50000000E-01  8.00000000E-01  8.50000000E-01
  8.50000000E-01  8.50000000E-01  8.00000000E-01  8.50000000E-01  8.50000000E-01
  8.50000000E-01  8.00000000E-01  8.50000000E-01  8.50000000E-01  8.50000000E-01
  8.00000000E-01  8.50000000E-01  8.50000000E-01  8.50000000E-01  8.00000000E-01
  8.50000000E-01  8.50000000E-01  8.50000000E-01  8.00000000E-01  8.50000000E-01
  8.50000000E-01  8.50000000E-01  8.00000000E-01  8.50000000E-01  8.50000000E-01
  8.50000000E-01  8.00000000E-01  8.50000000E-01  8.50000000E-01  8.50000000E-01
  8.00000000E-01  8.50000000E-01  8.50000000E-01  8.50000000E-01  8.00000000E-01
  8.50000000E-01  8.50000000E-01  8.50000000E-01  8.00000000E-01  8.50000000E-01
  8.50000000E-01  8.50000000E-01  8.00000000E-01  8.50000000E-01  8.50000000E-01
  8.50000000E-01  8.00000000E-01  8.50000000E-01  8.50000000E-01  8.50000000E-01
  8.00000000E-01  8.50000000E-01  8.50000000E-01  8.50000000E-01  8.00000000E-01
  8.50000000E-01  8.50000000E-01  8.50000000E-01  8.00000000E-01  8.50000000E-01
  8.50000000E-01  8.50000000E-01  8.00000000E-01  8.50000000E-01  8.50000000E-01
  8.50000000E-01  8.00000000E-01  8.50000000E-01  8.50000000E-01  8.50000000E-01
  8.00000000E-01  8.50000000E-01  8.50000000E-01  8.50000000E-01  8.00000000E-01
  8.50000000E-01  8.50000000E-01  8.50000000E-01  8.00000000E-01  8.50000000E-01
  8.50000000E-01  8.50000000E-01  8.00000000E-01  8.50000000E-01  8.50000000E-01
  8.50000000E-01  8.00000000E-01  8.50000000E-01  8.50000000E-01  8.50000000E-01
  8.00000000E-01  8.50000000E-01  8.50000000E-01  8.50000000E-01  8.00000000E-01
  8.50000000E-01  8.50000000E-01  8.50000000E-01  8.00000000E-01  8.50000000E-01
  8.50000000E-01  8.50000000E-01  8.00000000E-01  8.50000000E-01  8.50000000E-01
  8.50000000E-01  8.00000000E-01  8.50000000E-01  8.50000000E-01  8.50000000E-01
  8.00000000E-01  8.50000000E-01  8.50000000E-01  8.50000000E-01  8.00000000E-01
  8.50000000E-01  8.50000000E-01  8.50000000E-01  8.00000000E-01  8.50000000E-01
  8.50000000E-01  8.50000000E-01  8.00000000E-01  8.50000000E-01  8.50000000E-01
  8.50000000E-01  8.00000000E-01  8.50000000E-01  8.50000000E-01  8.50000000E-01
  8.00000000E-01  8.50000000E-01  8.50000000E-01  8.50000000E-01  8.00000000E-01
  8.50000000E-01  8.50000000E-01  8.50000000E-01  8.00000000E-01  8.50000000E-01
  8.50000000E-01  8.50000000E-01  8.00000000E-01  8.50000000E-01  8.50000000E-01
  8.50000000E-01  8.00000000E-01  8.50000000E-01  8.50000000E-01  8.50000000E-01
  8.00000000E-01  8.50000000E-01  8.50000000E-01  8.50000000E-01  8.00000000E-01
  8.50000000E-01  8.50000000E-01  8.50000000E-01  8.00000000E-01  8.50000000E-01
  8.50000000E-01  8.50000000E-01  8.00000000E-01  8.50000000E-01  8.50000000E-01
  8.50000000E-01  8.00000000E-01  8.50000000E-01  8.50000000E-01  8.50000000E-01
  8.00000000E-01  8.50000000E-01  8.50000000E-01  8.50000000E-01  8.00000000E-01
  8.50000000E-01  8.50000000E-01  8.50000000E-01  8.00000000E-01  8.50000000E-01
  8.50000000E-01  8.50000000E-01  8.00000000E-01  8.50000000E-01  8.50000000E-01
  8.50000000E-01  8.00000000E-01  8.50000000E-01  8.50000000E-01  8.50000000E-01
  8.00000000E-01  8.50000000E-01  8.50000000E-01  8.50000000E-01  8.00000000E-01
  8.50000000E-01  8.50000000E-01  8.50000000E-01  8.00000000E-01  8.50000000E-01
  8.50000000E-01  8.50000000E-01  8.00000000E-01  8.50000000E-01  8.50000000E-01
  8.50000000E-01  8.00000000E-01  8.50000000E-01  8.50000000E-01  8.50000000E-01
  8.00000000E-01  8.50000000E-01  8.50000000E-01  8.50000000E-01  8.00000000E-01
  8.50000000E-01  8.50000000E-01  8.50000000E-01  8.00000000E-01  8.50000000E-01
  8.50000000E-01  8.50000000E-01  8.00000000E-01  8.50000000E-01  8.50000000E-01
  8.50000000E-01  8.00000000E-01  8.50000000E-01  8.50000000E-01  8.50000000E-01
  8.00000000E-01  8.50000000E-01  8.50000000E-01  8.50000000E-01  8.00000000E-01
  8.50000000E-01  8.50000000E-01  8.50000000E-01  8.00000000E-01  8.50000000E-01
  8.50000000E-01  8.50000000E-01  8.00000000E-01  8.50000000E-01  8.50000000E-01
  8.50000000E-01  8.00000000E-01  8.50000000E-01  8.50000000E-01  8.50000000E-01
  8.00000000E-01  8.50000000E-01  8.50000000E-01  8.50000000E-01  8.00000000E-01
  8.50000000E-01  8.50000000E-01  8.50000000E-01  8.00000000E-01  8.50000000E-01
  8.50000000E-01  8.50000000E-01  8.00000000E-01  8.50000000E-01  8.50000000E-01
  8.50000000E-01  8.00000000E-01  8.50000000E-01  8.50000000E-01  8.50000000E-01
  8.00000000E-01  8.50000000E-01  8.50000000E-01  8.50000000E-01  8.00000000E-01
  8.50000000E-01  8.50000000E-01  8.50000000E-01  8.00000000E-01  8.50000000E-01
  8.50000000E-01  8.50000000E-01  8.00000000E-01  8.50000000E-01  8.50000000E-01
  8.50000000E-01  8.00000000E-01  8.50000000E-01  8.50000000E-01  8.50000000E-01
  8.00000000E-01  8.50000000E-01  8.50000000E-01  8.50000000E-01  8.00000000E-01
  8.50000000E-01  8.50000000E-01  8.50000000E-01  8.00000000E-01  8.50000000E-01
  8.50000000E-01  8.50000000E-01  8.00000000E-01  8.50000000E-01  8.50000000E-01
  8.50000000E-01  8.00000000E-01  8.50000000E-01  8.50000000E-01  8.50000000E-01
  8.00000000E-01  8.50000000E-01  8.50000000E-01  8.50000000E-01  8.00000000E-01
  8.50000000E-01  8.50000000E-01  8.50000000E-01  8.00000000E-01  8.50000000E-01
  8.50000000E-01  8.50000000E-01  8.00000000E-01  8.50000000E-01  8.50000000E-01
  8.50000000E-01  8.00000000E-01  8.50000000E-01  8.50000000E-01  8.50000000E-01
  8.00000000E-01  8.50000000E-01  8.50000000E-01  8.50000000E-01  8.00000000E-01
  8.50000000E-01  8.50000000E-01  8.50000000E-01  8.00000000E-01  8.50000000E-01
  8.50000000E-01  8.50000000E-01  8.00000000E-01  8.50000000E-01  8.50000000E-01
  8.50000000E-01  8.00000000E-01  8.50000000E-01  8.50000000E-01  8.50000000E-01
  8.00000000E-01  8.50000000E-01  8.50000000E-01  8.50000000E-01  8.00000000E-01
  8.50000000E-01  8.50000000E-01  8.50000000E-01  8.00000000E-01  8.50000000E-01
  8.50000000E-01  8.50000000E-01  8.00000000E-01  8.50000000E-01  8.50000000E-01
  8.50000000E-01  8.00000000E-01  8.50000000E-01  8.50000000E-01  8.50000000E-01
  8.00000000E-01  8.50000000E-01  8.50000000E-01  8.50000000E-01  8.00000000E-01
  8.50000000E-01  8.50000000E-01  8.50000000E-01  8.00000000E-01  8.50000000E-01
  8.50000000E-01  8.50000000E-01  8.00000000E-01  8.50000000E-01  8.50000000E-01
  8.50000000E-01  8.00000000E-01  8.50000000E-01  8.50000000E-01  8.50000000E-01
  8.00000000E-01  8.50000000E-01  8.50000000E-01  8.50000000E-01  8.00000000E-01
  8.50000000E-01  8.50000000E-01  8.50000000E-01  8.00000000E-01  8.50000000E-01
  8.50000000E-01  8.50000000E-01  8.00000000E-01  8.50000000E-01  8.50000000E-01
  8.50000000E-01  8.00000000E-01  8.50000000E-01  8.50000000E-01  8.50000000E-01
  8.00000000E-01  8.50000000E-01  8.50000000E-01  8.50000000E-01  8.00000000E-01
  8.50000000E-01  8.50000000E-01  8.50000000E-01  8.00000000E-01  8.50000000E-01
  8.50000000E-01  8.50000000E-01  8.00000000E-01  8.50000000E-01  8.50000000E-01
  8.50000000E-01  8.00000000E-01  8.50000000E-01  8.50000000E-01  8.50000000E-01
  8.00000000E-01  8.50000000E-01  8.50000000E-01  8.50000000E-01  8.00000000E-01
  8.50000000E-01  8.50000000E-01  8.50000000E-01  8.00000000E-01  8.50000000E-01
  8.50000000E-01  8.50000000E-01  8.00000000E-01  8.50000000E-01  8.50000000E-01
  8.50000000E-01  8.00000000E-01  8.50000000E-01  8.50000000E-01  8.50000000E-01
  8.00000000E-01  8.50000000E-01  8.50000000E-01  8.50000000E-01  8.00000000E-01
  8.50000000E-01  8.50000000E-01  8.50000000E-01  8.00000000E-01  8.50000000E-01
  8.50000000E-01  8.50000000E-01  8.00000000E-01  8.50000000E-01  8.50000000E-01
  8.50000000E-01  8.00000000E-01  8.50000000E-01  8.50000000E-01  8.50000000E-01
  8.00000000E-01  8.50000000E-01  8.50000000E-01  8.50000000E-01  8.00000000E-01
  8.50000000E-01  8.50000000E-01  8.50000000E-01  8.00000000E-01  8.50000000E-01
  8.50000000E-01  8.50000000E-01  8.00000000E-01  8.50000000E-01  8.50000000E-01
  8.50000000E-01  8.00000000E-01  8.50000000E-01  8.50000000E-01  8.50000000E-01
  8.00000000E-01  8.50000000E-01  8.50000000E-01  8.50000000E-01  8.00000000E-01
  8.50000000E-01  8.50000000E-01  8.50000000E-01  8.00000000E-01  8.50000000E-01
  8.50000000E-01  8.50000000E-01  8.00000000E-01  8.50000000E-01  8.50000000E-01
  8.50000000E-01  8.00000000E-01  8.50000000E-01  8.50000000E-01  8.50000000E-01
  8.00000000E-01  8.50000000E-01  8.50000000E-01  8.50000000E-01  8.00000000E-01
  8.50000000E-01  8.50000000E-01  8.50000000E-01  8.00000000E-01  8.50000000E-01
  8.50000000E-01  8.50000000E-01  8.00000000E-01  8.50000000E-01  8.50000000E-01
  8.50000000E-01  8.00000000E-01  8.50000000E-01  8.50000000E-01  8.50000000E-01
  8.00000000E-01  8.50000000E-01  8.50000000E-01  8.50000000E-01  8.00000000E-01
  8.50000000E-01  8.50000000E-01  8.50000000E-01  8.00000000E-01  8.50000000E-01
  8.50000000E-01  8.50000000E-01  8.00000000E-01  8.50000000E-01  8.50000000E-01
  8.50000000E-01  8.00000000E-01  8.50000000E-01  8.50000000E-01  8.50000000E-01
  8.00000000E-01  8.50000000E-01  8.50000000E-01  8.50000000E-01  8.00000000E-01
  8.50000000E-01  8.50000000E-01  8.50000000E-01  8.00000000E-01  8.50000000E-01
  8.50000000E-01  8.50000000E-01  8.00000000E-01  8.50000000E-01  8.50000000E-01
  8.50000000E-01  8.00000000E-01  8.50000000E-01  8.50000000E-01  8.50000000E-01
  8.00000000E-01  8.50000000E-01  8.50000000E-01  8.50000000E-01  8.00000000E-01
  8.50000000E-01  8.50000000E-01  8.50000000E-01  8.00000000E-01  8.50000000E-01
  8.50000000E-01  8.50000000E-01  8.00000000E-01  8.50000000E-01  8.50000000E-01
  8.50000000E-01  8.00000000E-01  8.50000000E-01  8.50000000E-01  8.50000000E-01
  8.00000000E-01  8.50000000E-01  8.50000000E-01  8.50000000E-01  8.00000000E-01
  8.50000000E-01  8.50000000E-01  8.50000000E-01  8.00000000E-01  8.50000000E-01
  8.50000000E-01  8.50000000E-01  8.00000000E-01  8.50000000E-01  8.50000000E-01
  8.50000000E-01  8.00000000E-01  8.50000000E-01  8.50000000E-01  8.50000000E-01
  8.00000000E-01  8.50000000E-01  8.50000000E-01  8.50000000E-01  8.00000000E-01
  8.50000000E-01  8.50000000E-01  8.50000000E-01  8.00000000E-01  8.50000000E-01
  8.50000000E-01  8.50000000E-01  8.00000000E-01  8.50000000E-01  8.50000000E-01
  8.50000000E-01  8.00000000E-01  8.50000000E-01  8.50000000E-01  8.50000000E-01
  8.00000000E-01  8.50000000E-01  8.50000000E-01  8.50000000E-01  8.00000000E-01
  8.50000000E-01  8.50000000E-01  8.50000000E-01  8.00000000E-01  8.50000000E-01
  8.50000000E-01  8.50000000E-01  8.00000000E-01  8.50000000E-01  8.50000000E-01
  8.50000000E-01  8.00000000E-01  8.50000000E-01  8.50000000E-01  8.50000000E-01
  8.00000000E-01  8.50000000E-01  8.50000000E-01  8.50000000E-01  8.00000000E-01
  8.50000000E-01  8.50000000E-01  8.50000000E-01  8.00000000E-01  8.50000000E-01
  8.50000000E-01  8.50000000E-01  8.00000000E-01  8.50000000E-01  8.50000000E-01
  8.50000000E-01  8.00000000E-01  8.50000000E-01  8.50000000E-01  8.50000000E-01
  8.00000000E-01  8.50000000E-01  8.50000000E-01  8.50000000E-01  8.00000000E-01
  8.50000000E-01  8.50000000E-01  8.50000000E-01  8.00000000E-01  8.50000000E-01
  8.50000000E-01  8.50000000E-01  8.00000000E-01  8.50000000E-01  8.50000000E-01
  8.50000000E-01  8.00000000E-01  8.50000000E-01  8.50000000E-01  8.50000000E-01
  8.00000000E-01  8.50000000E-01  8.50000000E-01  8.50000000E-01  8.00000000E-01
  8.50000000E-01  8.50000000E-01  8.50000000E-01  8.00000000E-01  8.50000000E-01
  8.50000000E-01  8.50000000E-01  8.00000000E-01  8.50000000E-01  8.50000000E-01
  8.50000000E-01  8.00000000E-01  8.50000000E-01  8.50000000E-01  8.50000000E-01
  8.00000000E-01  8.50000000E-01  8.50000000E-01  8.50000000E-01  8.00000000E-01
  8.50000000E-01  8.50000000E-01  8.50000000E-01  8.00000000E-01  8.50000000E-01
  8.50000000E-01  8.50000000E-01  8.00000000E-01  8.50000000E-01  8.50000000E-01
  8.50000000E-01  8.00000000E-01  8.50000000E-01  8.50000000E-01  8.50000000E-01
  8.00000000E-01  8.50000000E-01  8.50000000E-01  8.50000000E-01  8.00000000E-01
  8.50000000E-01  8.50000000E-01  8.50000000E-01  8.00000000E-01  8.50000000E-01
  8.50000000E-01  8.50000000E-01  8.00000000E-01  8.50000000E-01  8.50000000E-01
  8.50000000E-01  8.00000000E-01  8.50000000E-01  8.50000000E-01  8.50000000E-01
  8.00000000E-01  8.50000000E-01  8.50000000E-01  8.50000000E-01  8.00000000E-01
  8.50000000E-01  8.50000000E-01  8.50000000E-01  8.00000000E-01  8.50000000E-01
  8.50000000E-01  8.50000000E-01  8.00000000E-01  8.50000000E-01  8.50000000E-01
  8.50000000E-01  8.00000000E-01  8.50000000E-01  8.50000000E-01  8.50000000E-01
  8.00000000E-01  8.50000000E-01  8.50000000E-01  8.50000000E-01  8.00000000E-01
  8.50000000E-01  8.50000000E-01  8.50000000E-01  8.00000000E-01  8.50000000E-01
  8.50000000E-01  8.50000000E-01  8.00000000E-01  8.50000000E-01  8.50000000E-01
  8.50000000E-01  8.00000000E-01  8.50000000E-01  8.50000000E-01  8.50000000E-01
  8.00000000E-01  8.50000000E-01  8.50000000E-01  8.50000000E-01  8.00000000E-01
  8.50000000E-01  8.50000000E-01  8.50000000E-01  8.00000000E-01  8.50000000E-01
  8.50000000E-01  8.50000000E-01  8.00000000E-01  8.50000000E-01  8.50000000E-01
  8.50000000E-01  8.00000000E-01  8.50000000E-01  8.50000000E-01  8.50000000E-01
  8.00000000E-01  8.50000000E-01  8.50000000E-01  8.50000000E-01  8.00000000E-01
  8.50000000E-01  8.50000000E-01  8.50000000E-01  8.00000000E-01  8.50000000E-01
  8.50000000E-01  8.50000000E-01  8.00000000E-01  8.50000000E-01  8.50000000E-01
  8.50000000E-01  8.00000000E-01  8.50000000E-01  8.50000000E-01  8.50000000E-01
  8.00000000E-01  8.50000000E-01  8.50000000E-01  8.50000000E-01  8.00000000E-01
  8.50000000E-01  8.50000000E-01  8.50000000E-01  8.00000000E-01  8.50000000E-01
  8.50000000E-01  8.50000000E-01  8.00000000E-01  8.50000000E-01  8.50000000E-01
  8.50000000E-01  8.00000000E-01  8.50000000E-01  8.50000000E-01  8.50000000E-01
  8.00000000E-01  8.50000000E-01  8.50000000E-01  8.50000000E-01  8.00000000E-01
  8.50000000E-01  8.50000000E-01  8.50000000E-01  8.00000000E-01  8.50000000E-01
  8.50000000E-01  8.50000000E-01  8.00000000E-01  8.50000000E-01  8.50000000E-01
  8.50000000E-01  8.00000000E-01  8.50000000E-01  8.50000000E-01  8.50000000E-01
  8.00000000E-01  8.50000000E-01  8.50000000E-01  8.50000000E-01  8.00000000E-01
  8.50000000E-01  8.50000000E-01  8.50000000E-01  8.00000000E-01  8.50000000E-01
  8.50000000E-01  8.50000000E-01  8.00000000E-01  8.50000000E-01  8.50000000E-01
  8.50000000E-01  8.00000000E-01  8.50000000E-01  8.50000000E-01  8.50000000E-01
  8.00000000E-01  8.50000000E-01  8.50000000E-01  8.50000000E-01  8.00000000E-01
  8.50000000E-01  8.50000000E-01  8.50000000E-01  8.00000000E-01  8.50000000E-01
  8.50000000E-01  8.50000000E-01  8.00000000E-01  8.50000000E-01  8.50000000E-01
  8.50000000E-01  8.00000000E-01  8.50000000E-01  8.50000000E-01  8.50000000E-01
  8.00000000E-01  8.50000000E-01  8.50000000E-01  8.50000000E-01  8.00000000E-01
  8.50000000E-01  8.50000000E-01  8.50000000E-01  8.00000000E-01  8.50000000E-01
  8.50000000E-01  8.50000000E-01  8.00000000E-01  8.50000000E-01  8.50000000E-01
  8.50000000E-01  8.00000000E-01  8.50000000E-01  8.50000000E-01  8.50000000E-01
  8.00000000E-01  8.50000000E-01  8.50000000E-01  8.50000000E-01  8.00000000E-01
  8.50000000E-01  8.50000000E-01  8.50000000E-01  8.00000000E-01  8.50000000E-01
  8.50000000E-01  8.50000000E-01  8.00000000E-01  8.50000000E-01  8.50000000E-01
  8.50000000E-01  8.00000000E-01  8.50000000E-01  8.50000000E-01  8.50000000E-01
  8.00000000E-01  8.50000000E-01  8.50000000E-01  8.50000000E-01  8.00000000E-01
  8.50000000E-01  8.50000000E-01  8.50000000E-01  8.00000000E-01  8.50000000E-01
  8.50000000E-01  8.50000000E-01  8.00000000E-01  8.50000000E-01  8.50000000E-01
  8.50000000E-01  8.00000000E-01  8.50000000E-01  8.50000000E-01  8.50000000E-01
  8.00000000E-01  8.50000000E-01  8.50000000E-01  8.50000000E-01  8.00000000E-01
  8.50000000E-01  8.50000000E-01  8.50000000E-01  8.00000000E-01  8.50000000E-01
  8.50000000E-01  8.50000000E-01  8.00000000E-01  8.50000000E-01  8.50000000E-01
  8.50000000E-01  8.00000000E-01  8.50000000E-01  8.50000000E-01  8.50000000E-01
  8.00000000E-01  8.50000000E-01  8.50000000E-01  8.50000000E-01  8.00000000E-01
  8.50000000E-01  8.50000000E-01  8.50000000E-01  8.00000000E-01  8.50000000E-01
  8.50000000E-01  8.50000000E-01  8.00000000E-01  8.50000000E-01  8.50000000E-01
  8.50000000E-01  8.00000000E-01  8.50000000E-01  8.50000000E-01  8.50000000E-01
  8.00000000E-01  8.50000000E-01  8.50000000E-01  8.50000000E-01  8.00000000E-01
  8.50000000E-01  8.50000000E-01  8.50000000E-01  8.00000000E-01  8.50000000E-01
  8.50000000E-01  8.50000000E-01  8.00000000E-01  8.50000000E-01  8.50000000E-01
  8.50000000E-01  8.00000000E-01  8.50000000E-01  8.50000000E-01  8.50000000E-01
  8.00000000E-01  8.50000000E-01  8.50000000E-01  8.50000000E-01  8.00000000E-01
  8.50000000E-01  8.50000000E-01  8.50000000E-01  8.00000000E-01  8.50000000E-01
  8.50000000E-01  8.50000000E-01  8.00000000E-01  8.50000000E-01  8.50000000E-01
  8.50000000E-01  8.00000000E-01  8.50000000E-01  8.50000000E-01  8.50000000E-01
  8.00000000E-01  8.50000000E-01  8.50000000E-01  8.50000000E-01  8.00000000E-01
  8.50000000E-01  8.50000000E-01  8.50000000E-01  8.00000000E-01  8.50000000E-01
  8.50000000E-01  8.50000000E-01  8.00000000E-01  8.50000000E-01  8.50000000E-01
  8.50000000E-01  8.00000000E-01  8.50000000E-01  8.50000000E-01  8.50000000E-01
  8.00000000E-01  8.50000000E-01  8.50000000E-01  8.50000000E-01  8.00000000E-01
  8.50000000E-01  8.50000000E-01  8.50000000E-01  8.00000000E-01  8.50000000E-01
  8.50000000E-01  8.50000000E-01  8.00000000E-01  8.50000000E-01  8.50000000E-01
  8.50000000E-01  8.00000000E-01  8.50000000E-01  8.50000000E-01  8.50000000E-01
  8.00000000E-01  8.50000000E-01  8.50000000E-01  8.50000000E-01  8.00000000E-01
  8.50000000E-01  8.50000000E-01  8.50000000E-01  8.00000000E-01  8.50000000E-01
  8.50000000E-01  8.50000000E-01  8.00000000E-01  8.50000000E-01  8.50000000E-01
  8.50000000E-01  8.00000000E-01  8.50000000E-01  8.50000000E-01  8.50000000E-01
  8.00000000E-01  8.50000000E-01  8.50000000E-01  8.50000000E-01  8.00000000E-01
  8.50000000E-01  8.50000000E-01  8.50000000E-01  8.00000000E-01  8.50000000E-01
  8.50000000E-01  8.50000000E-01  8.00000000E-01  8.50000000E-01  8.50000000E-01
  8.50000000E-01  8.00000000E-01  8.50000000E-01  8.50000000E-01  8.50000000E-01
  8.00000000E-01  8.50000000E-01  8.50000000E-01  8.50000000E-01  8.00000000E-01
  8.50000000E-01  8.50000000E-01  8.50000000E-01  8.00000000E-01  8.50000000E-01
  8.50000000E-01  8.50000000E-01  8.00000000E-01  8.50000000E-01  8.50000000E-01
  8.50000000E-01  8.00000000E-01  8.50000000E-01  8.50000000E-01  8.50000000E-01
  8.00000000E-01  8.50000000E-01  8.50000000E-01  8.50000000E-01  8.00000000E-01
  8.50000000E-01  8.50000000E-01  8.50000000E-01  8.00000000E-01  8.50000000E-01
  8.50000000E-01  8.50000000E-01  8.00000000E-01  8.50000000E-01  8.50000000E-01
  8.50000000E-01  8.00000000E-01  8.50000000E-01  8.50000000E-01  8.50000000E-01
  8.00000000E-01  8.50000000E-01  8.50000000E-01  8.50000000E-01  8.00000000E-01
  8.50000000E-01  8.50000000E-01  8.50000000E-01  8.00000000E-01  8.50000000E-01
  8.50000000E-01  8.50000000E-01  8.00000000E-01  8.50000000E-01  8.50000000E-01
  8.50000000E-01  8.00000000E-01  8.50000000E-01  8.50000000E-01  8.50000000E-01
  8.00000000E-01  8.50000000E-01  8.50000000E-01  8.50000000E-01  8.00000000E-01
  8.50000000E-01  8.50000000E-01  8.50000000E-01  8.00000000E-01  8.50000000E-01
  8.50000000E-01  8.50000000E-01  8.00000000E-01  8.50000000E-01  8.50000000E-01
  8.50000000E-01  8.00000000E-01  8.50000000E-01  8.50000000E-01  8.50000000E-01
  8.00000000E-01  8.50000000E-01  8.50000000E-01  8.50000000E-01  8.00000000E-01
  8.50000000E-01  8.50000000E-01  8.50000000E-01  8.00000000E-01  8.50000000E-01
  8.50000000E-01  8.50000000E-01  8.00000000E-01  8.50000000E-01  8.50000000E-01
  8.50000000E-01  8.00000000E-01  8.50000000E-01  8.50000000E-01  8.50000000E-01
  8.00000000E-01  8.50000000E-01  8.50000000E-01  8.50000000E-01  8.00000000E-01
  8.50000000E-01  8.50000000E-01  8.50000000E-01  8.00000000E-01  8.50000000E-01
  8.50000000E-01  8.50000000E-01  8.00000000E-01  8.50000000E-01  8.50000000E-01
  8.50000000E-01  8.00000000E-01  8.50000000E-01  8.50000000E-01  8.50000000E-01
  8.00000000E-01  8.50000000E-01  8.50000000E-01  8.50000000E-01  8.00000000E-01
  8.50000000E-01  8.50000000E-01  8.50000000E-01  8.00000000E-01  8.50000000E-01
  8.50000000E-01  8.50000000E-01  8.00000000E-01  8.50000000E-01  8.50000000E-01
  8.50000000E-01  8.00000000E-01  8.50000000E-01  8.50000000E-01  8.50000000E-01
  8.00000000E-01  8.50000000E-01  8.50000000E-01  8.50000000E-01  8.00000000E-01
  8.50000000E-01  8.50000000E-01  8.50000000E-01  8.00000000E-01  8.50000000E-01
  8.50000000E-01  8.50000000E-01  8.00000000E-01  8.50000000E-01  8.50000000E-01
  8.50000000E-01  8.00000000E-01  8.50000000E-01  8.50000000E-01  8.50000000E-01
  8.00000000E-01  8.50000000E-01  8.50000000E-01  8.50000000E-01  8.00000000E-01
  8.50000000E-01  8.50000000E-01  8.50000000E-01  8.00000000E-01  8.50000000E-01
  8.50000000E-01  8.50000000E-01  8.00000000E-01  8.50000000E-01  8.50000000E-01
  8.50000000E-01  8.00000000E-01  8.50000000E-01  8.50000000E-01  8.50000000E-01
  8.00000000E-01  8.50000000E-01  8.50000000E-01  8.50000000E-01  8.00000000E-01
  8.50000000E-01  8.50000000E-01  8.50000000E-01  8.00000000E-01  8.50000000E-01
  8.50000000E-01  8.50000000E-01  8.00000000E-01  8.50000000E-01  8.50000000E-01
  8.50000000E-01  8.00000000E-01  8.50000000E-01  8.50000000E-01  8.50000000E-01
  8.00000000E-01  8.50000000E-01  8.50000000E-01  8.50000000E-01  8.00000000E-01
  8.50000000E-01  8.50000000E-01  8.50000000E-01  8.00000000E-01  8.50000000E-01
  8.50000000E-01  8.50000000E-01  8.00000000E-01  8.50000000E-01  8.50000000E-01
  8.50000000E-01  8.00000000E-01  8.50000000E-01  8.50000000E-01  8.50000000E-01
  8.00000000E-01  8.50000000E-01  8.50000000E-01  8.50000000E-01  8.00000000E-01
  8.50000000E-01  8.50000000E-01  8.50000000E-01  8.00000000E-01  8.50000000E-01
  8.50000000E-01  8.50000000E-01  8.00000000E-01  8.50000000E-01  8.50000000E-01
  8.50000000E-01  8.00000000E-01  8.50000000E-01  8.50000000E-01  8.50000000E-01
  8.00000000E-01  8.50000000E-01  8.50000000E-01  8.50000000E-01  8.00000000E-01
  8.50000000E-01  8.50000000E-01  8.50000000E-01  8.00000000E-01  8.50000000E-01
  8.50000000E-01  8.50000000E-01  8.00000000E-01  8.50000000E-01  8.50000000E-01
  8.50000000E-01  8.00000000E-01  8.50000000E-01  8.50000000E-01  8.50000000E-01
  8.00000000E-01  8.50000000E-01  8.50000000E-01  8.50000000E-01  8.00000000E-01
  8.50000000E-01  8.50000000E-01  8.50000000E-01  8.00000000E-01  8.50000000E-01
  8.50000000E-01  8.50000000E-01  8.00000000E-01  8.50000000E-01  8.50000000E-01
  8.50000000E-01  8.00000000E-01  8.50000000E-01  8.50000000E-01  8.50000000E-01
  8.00000000E-01  8.50000000E-01  8.50000000E-01  8.50000000E-01  8.00000000E-01
  8.50000000E-01  8.50000000E-01  8.50000000E-01  8.00000000E-01  8.50000000E-01
  8.50000000E-01  8.50000000E-01  8.00000000E-01  8.50000000E-01  8.50000000E-01
  8.50000000E-01  8.00000000E-01  8.50000000E-01  8.50000000E-01  8.50000000E-01
  8.00000000E-01  8.50000000E-01  8.50000000E-01  8.50000000E-01  8.00000000E-01
  8.50000000E-01  8.50000000E-01  8.50000000E-01  8.00000000E-01  8.50000000E-01
  8.50000000E-01  8.50000000E-01  8.00000000E-01  8.50000000E-01  8.50000000E-01
  8.50000000E-01  8.00000000E-01  8.50000000E-01  8.50000000E-01  8.50000000E-01
  8.00000000E-01  8.50000000E-01  8.50000000E-01  8.50000000E-01  8.00000000E-01
  8.50000000E-01  8.50000000E-01  8.50000000E-01  8.00000000E-01  8.50000000E-01
  8.50000000E-01  8.50000000E-01  8.00000000E-01  8.50000000E-01  8.50000000E-01
  8.50000000E-01  8.00000000E-01  8.50000000E-01  8.50000000E-01  8.50000000E-01
  8.00000000E-01  8.50000000E-01  8.50000000E-01  8.50000000E-01  8.00000000E-01
  8.50000000E-01  8.50000000E-01  8.50000000E-01  8.00000000E-01  8.50000000E-01
  8.50000000E-01  8.50000000E-01  8.00000000E-01  8.50000000E-01  8.50000000E-01
  8.50000000E-01  8.00000000E-01  8.50000000E-01  8.50000000E-01  8.50000000E-01
  8.00000000E-01  8.50000000E-01  8.50000000E-01  8.50000000E-01  8.00000000E-01
  8.50000000E-01  8.50000000E-01  8.50000000E-01  8.00000000E-01  8.50000000E-01
  8.50000000E-01  8.50000000E-01  8.00000000E-01  8.50000000E-01  8.50000000E-01
  8.50000000E-01  8.00000000E-01  8.50000000E-01  8.50000000E-01  8.50000000E-01
  8.00000000E-01  8.50000000E-01  8.50000000E-01  8.50000000E-01  8.00000000E-01
  8.50000000E-01  8.50000000E-01  8.50000000E-01  8.00000000E-01  8.50000000E-01
  8.50000000E-01  8.50000000E-01  8.00000000E-01  8.50000000E-01  8.50000000E-01
  8.50000000E-01  8.00000000E-01  8.50000000E-01  8.50000000E-01  8.50000000E-01
  8.00000000E-01  8.50000000E-01  8.50000000E-01  8.50000000E-01  8.00000000E-01
  8.50000000E-01  8.50000000E-01  8.50000000E-01  8.00000000E-01  8.50000000E-01
  8.50000000E-01  8.50000000E-01  8.00000000E-01  8.50000000E-01  8.50000000E-01
  8.50000000E-01  8.00000000E-01  8.50000000E-01  8.50000000E-01  8.50000000E-01
  8.00000000E-01  8.50000000E-01  8.50000000E-01  8.50000000E-01  8.00000000E-01
  8.50000000E-01  8.50000000E-01  8.50000000E-01  8.00000000E-01  8.50000000E-01
  8.50000000E-01  8.50000000E-01  8.00000000E-01  8.50000000E-01  8.50000000E-01
  8.50000000E-01  8.00000000E-01  8.50000000E-01  8.50000000E-01  8.50000000E-01
  8.00000000E-01  8.50000000E-01  8.50000000E-01  8.50000000E-01  8.00000000E-01
  8.50000000E-01  8.50000000E-01  8.50000000E-01  8.00000000E-01  8.50000000E-01
  8.50000000E-01  8.50000000E-01  8.00000000E-01  8.50000000E-01  8.50000000E-01
  8.50000000E-01  8.00000000E-01  8.50000000E-01  8.50000000E-01  8.50000000E-01
  8.00000000E-01  8.50000000E-01  8.50000000E-01  8.50000000E-01  8.00000000E-01
  8.50000000E-01  8.50000000E-01  8.50000000E-01  8.00000000E-01  8.50000000E-01
  8.50000000E-01  8.50000000E-01  8.00000000E-01  8.50000000E-01  8.50000000E-01
  8.50000000E-01  8.00000000E-01  8.50000000E-01  8.50000000E-01  8.50000000E-01
  8.00000000E-01  8.50000000E-01  8.50000000E-01  8.50000000E-01  8.00000000E-01
  8.50000000E-01  8.50000000E-01  8.50000000E-01  8.00000000E-01  8.50000000E-01
  8.50000000E-01  8.50000000E-01  8.00000000E-01  8.50000000E-01  8.50000000E-01
  8.50000000E-01  8.00000000E-01  8.50000000E-01  8.50000000E-01  8.50000000E-01
  8.00000000E-01  8.50000000E-01  8.50000000E-01  8.50000000E-01  8.00000000E-01
  8.50000000E-01  8.50000000E-01  8.50000000E-01  8.00000000E-01  8.50000000E-01
  8.50000000E-01  8.50000000E-01  8.00000000E-01  8.50000000E-01  8.50000000E-01
  8.50000000E-01  8.00000000E-01  8.50000000E-01  8.50000000E-01  8.50000000E-01
  8.00000000E-01  8.50000000E-01  8.50000000E-01  8.50000000E-01  8.00000000E-01
  8.50000000E-01  8.50000000E-01  8.50000000E-01  8.00000000E-01  8.50000000E-01
  8.50000000E-01  8.50000000E-01  8.00000000E-01  8.50000000E-01  8.50000000E-01
  8.50000000E-01  8.00000000E-01  8.50000000E-01  8.50000000E-01  8.50000000E-01
  8.00000000E-01  8.50000000E-01  8.50000000E-01  8.50000000E-01  8.00000000E-01
  8.50000000E-01  8.50000000E-01  8.50000000E-01  8.00000000E-01  8.50000000E-01
  8.50000000E-01  8.50000000E-01  8.00000000E-01  8.50000000E-01  8.50000000E-01
  8.50000000E-01  8.00000000E-01  8.50000000E-01  8.50000000E-01  8.50000000E-01
  8.00000000E-01  8.50000000E-01  8.50000000E-01  8.50000000E-01  8.00000000E-01
  8.50000000E-01  8.50000000E-01  8.50000000E-01  8.00000000E-01  8.50000000E-01
  8.50000000E-01  8.50000000E-01  8.00000000E-01  8.50000000E-01  8.50000000E-01
  8.50000000E-01  8.00000000E-01  8.50000000E-01  8.50000000E-01  8.50000000E-01
  8.00000000E-01  8.50000000E-01  8.50000000E-01  8.50000000E-01  8.00000000E-01
  8.50000000E-01  8.50000000E-01  8.50000000E-01  8.00000000E-01  8.50000000E-01
  8.50000000E-01  8.50000000E-01  8.00000000E-01  8.50000000E-01  8.50000000E-01
  8.50000000E-01  8.00000000E-01  8.50000000E-01  8.50000000E-01  8.50000000E-01
  8.00000000E-01  8.50000000E-01  8.50000000E-01  8.50000000E-01  8.00000000E-01
  8.50000000E-01  8.50000000E-01  8.50000000E-01  8.00000000E-01  8.50000000E-01
  8.50000000E-01  8.50000000E-01  8.00000000E-01  8.50000000E-01  8.50000000E-01
  8.50000000E-01  8.00000000E-01  8.50000000E-01  8.50000000E-01  8.50000000E-01
  8.00000000E-01  8.50000000E-01  8.50000000E-01  8.50000000E-01  8.00000000E-01
  8.50000000E-01  8.50000000E-01  8.50000000E-01  8.00000000E-01  8.50000000E-01
  8.50000000E-01  8.50000000E-01  8.00000000E-01  8.50000000E-01  8.50000000E-01
  8.50000000E-01  8.00000000E-01  8.50000000E-01  8.50000000E-01  8.50000000E-01
  8.00000000E-01  8.50000000E-01  8.50000000E-01  8.50000000E-01  8.00000000E-01
  8.50000000E-01  8.50000000E-01  8.50000000E-01  8.00000000E-01  8.50000000E-01
  8.50000000E-01  8.50000000E-01  8.00000000E-01  8.50000000E-01  8.50000000E-01
  8.50000000E-01  8.00000000E-01  8.50000000E-01  8.50000000E-01  8.50000000E-01
  8.00000000E-01  8.50000000E-01  8.50000000E-01  8.50000000E-01  8.00000000E-01
  8.50000000E-01  8.50000000E-01  8.50000000E-01  8.00000000E-01  8.50000000E-01
  8.50000000E-01  8.50000000E-01  8.00000000E-01  8.50000000E-01  8.50000000E-01
  8.50000000E-01  8.00000000E-01  8.50000000E-01  8.50000000E-01  8.50000000E-01
  8.00000000E-01  8.50000000E-01  8.50000000E-01  8.50000000E-01  8.00000000E-01
  8.50000000E-01  8.50000000E-01  8.50000000E-01  8.00000000E-01  8.50000000E-01
  8.50000000E-01  8.50000000E-01  8.00000000E-01  8.50000000E-01  8.50000000E-01
  8.50000000E-01  8.00000000E-01  8.50000000E-01  8.50000000E-01  8.50000000E-01
  8.00000000E-01  8.50000000E-01  8.50000000E-01  8.50000000E-01  8.00000000E-01
  8.50000000E-01  8.50000000E-01  8.50000000E-01  8.00000000E-01  8.50000000E-01
  8.50000000E-01  8.50000000E-01  8.00000000E-01  8.50000000E-01  8.50000000E-01
  8.50000000E-01  8.00000000E-01  8.50000000E-01  8.50000000E-01  8.50000000E-01
  8.00000000E-01  8.50000000E-01  8.50000000E-01  8.50000000E-01  8.00000000E-01
  8.50000000E-01  8.50000000E-01  8.50000000E-01  8.00000000E-01  8.50000000E-01
  8.50000000E-01  8.50000000E-01  8.00000000E-01  8.50000000E-01  8.50000000E-01
  8.50000000E-01  8.00000000E-01  8.50000000E-01  8.50000000E-01  8.50000000E-01
  8.00000000E-01  8.50000000E-01  8.50000000E-01  8.50000000E-01  8.00000000E-01
  8.50000000E-01  8.50000000E-01  8.50000000E-01  8.00000000E-01  8.50000000E-01
  8.50000000E-01  8.50000000E-01  8.00000000E-01  8.50000000E-01  8.50000000E-01
  8.50000000E-01  8.00000000E-01  8.50000000E-01  8.50000000E-01  8.50000000E-01
  8.00000000E-01  8.50000000E-01  8.50000000E-01  8.50000000E-01  8.00000000E-01
  8.50000000E-01  8.50000000E-01  8.50000000E-01  8.00000000E-01  8.50000000E-01
  8.50000000E-01  8.50000000E-01  8.00000000E-01  8.50000000E-01  8.50000000E-01
  8.50000000E-01  8.00000000E-01  8.50000000E-01  8.50000000E-01  8.50000000E-01
  8.00000000E-01  8.50000000E-01  8.50000000E-01  8.50000000E-01  8.00000000E-01
  8.50000000E-01  8.50000000E-01  8.50000000E-01  8.00000000E-01  8.50000000E-01
  8.50000000E-01  8.50000000E-01  8.00000000E-01  8.50000000E-01  8.50000000E-01
  8.50000000E-01  8.00000000E-01  8.50000000E-01  8.50000000E-01  8.50000000E-01
  8.00000000E-01  8.50000000E-01  8.50000000E-01  8.50000000E-01  8.00000000E-01
  8.50000000E-01  8.50000000E-01  8.50000000E-01  8.00000000E-01  8.50000000E-01
  8.50000000E-01  8.50000000E-01  8.00000000E-01  8.50000000E-01  8.50000000E-01
  8.50000000E-01  8.00000000E-01  8.50000000E-01  8.50000000E-01  8.50000000E-01
  8.00000000E-01  8.50000000E-01  8.50000000E-01  8.50000000E-01  8.00000000E-01
  8.50000000E-01  8.50000000E-01  8.50000000E-01  8.00000000E-01  8.50000000E-01
  8.50000000E-01  8.50000000E-01  8.00000000E-01  8.50000000E-01  8.50000000E-01
  8.50000000E-01  8.00000000E-01  8.50000000E-01  8.50000000E-01  8.50000000E-01
  8.00000000E-01  8.50000000E-01  8.50000000E-01  8.50000000E-01  8.00000000E-01
  8.50000000E-01  8.50000000E-01  8.50000000E-01  8.00000000E-01  8.50000000E-01
  8.50000000E-01  8.50000000E-01  8.00000000E-01  8.50000000E-01  8.50000000E-01
  8.50000000E-01  8.00000000E-01  8.50000000E-01  8.50000000E-01  8.50000000E-01
  8.00000000E-01  8.50000000E-01  8.50000000E-01  8.50000000E-01  8.00000000E-01
  8.50000000E-01  8.50000000E-01  8.50000000E-01  8.00000000E-01  8.50000000E-01
  8.50000000E-01  8.50000000E-01  8.00000000E-01  8.50000000E-01  8.50000000E-01
  8.50000000E-01  8.00000000E-01  8.50000000E-01  8.50000000E-01  8.50000000E-01
  8.00000000E-01  8.50000000E-01  8.50000000E-01  8.50000000E-01  8.00000000E-01
  8.50000000E-01  8.50000000E-01  8.50000000E-01  8.00000000E-01  8.50000000E-01
  8.50000000E-01  8.50000000E-01  8.00000000E-01  8.50000000E-01  8.50000000E-01
  8.50000000E-01  8.00000000E-01  8.50000000E-01  8.50000000E-01  8.50000000E-01
  8.00000000E-01  8.50000000E-01  8.50000000E-01  8.50000000E-01  8.00000000E-01
  8.50000000E-01  8.50000000E-01  8.50000000E-01  8.00000000E-01  8.50000000E-01
  8.50000000E-01  8.50000000E-01  8.00000000E-01  8.50000000E-01  8.50000000E-01
  8.50000000E-01  8.00000000E-01  8.50000000E-01  8.50000000E-01  8.50000000E-01
  8.00000000E-01  8.50000000E-01  8.50000000E-01  8.50000000E-01  8.00000000E-01
  8.50000000E-01  8.50000000E-01  8.50000000E-01  8.00000000E-01  8.50000000E-01
  8.50000000E-01  8.50000000E-01  8.00000000E-01  8.50000000E-01  8.50000000E-01
  8.50000000E-01  8.00000000E-01  8.50000000E-01  8.50000000E-01  8.50000000E-01
  8.00000000E-01  8.50000000E-01  8.50000000E-01  8.50000000E-01  8.00000000E-01
  8.50000000E-01  8.50000000E-01  8.50000000E-01  8.00000000E-01  8.50000000E-01
  8.50000000E-01  8.50000000E-01  8.00000000E-01  8.50000000E-01  8.50000000E-01
  8.50000000E-01  8.00000000E-01  8.50000000E-01  8.50000000E-01  8.50000000E-01
  8.00000000E-01  8.50000000E-01  8.50000000E-01  8.50000000E-01  8.00000000E-01
  8.50000000E-01  8.50000000E-01  8.50000000E-01  8.00000000E-01  8.50000000E-01
  8.50000000E-01  8.50000000E-01  8.00000000E-01  8.50000000E-01  8.50000000E-01
  8.50000000E-01  8.00000000E-01  8.50000000E-01  8.50000000E-01  8.50000000E-01
  8.00000000E-01  8.50000000E-01  8.50000000E-01  8.50000000E-01  8.00000000E-01
  8.50000000E-01  8.50000000E-01  8.50000000E-01  8.00000000E-01  8.50000000E-01
  8.50000000E-01  8.50000000E-01  8.00000000E-01  8.50000000E-01  8.50000000E-01
  8.50000000E-01  8.00000000E-01  8.50000000E-01  8.50000000E-01  8.50000000E-01
  8.00000000E-01  8.50000000E-01  8.50000000E-01  8.50000000E-01  8.00000000E-01
  8.50000000E-01  8.50000000E-01  8.50000000E-01  8.00000000E-01  8.50000000E-01
  8.50000000E-01  8.50000000E-01  8.00000000E-01  8.50000000E-01  8.50000000E-01
  8.50000000E-01  8.00000000E-01  8.50000000E-01  8.50000000E-01  8.50000000E-01
  8.00000000E-01  8.50000000E-01  8.50000000E-01  8.50000000E-01  8.00000000E-01
  8.50000000E-01  8.50000000E-01  8.50000000E-01  8.00000000E-01  8.50000000E-01
  8.50000000E-01  8.50000000E-01  8.00000000E-01  8.50000000E-01  8.50000000E-01
  8.50000000E-01  8.00000000E-01  8.50000000E-01  8.50000000E-01  8.50000000E-01
  8.00000000E-01  8.50000000E-01  8.50000000E-01  8.50000000E-01  8.00000000E-01
  8.50000000E-01  8.50000000E-01  8.50000000E-01  8.00000000E-01  8.50000000E-01
  8.50000000E-01  8.50000000E-01  8.00000000E-01  8.50000000E-01  8.50000000E-01
  8.50000000E-01  8.00000000E-01  8.50000000E-01  8.50000000E-01  8.50000000E-01
  8.00000000E-01  8.50000000E-01  8.50000000E-01  8.50000000E-01  8.00000000E-01
  8.50000000E-01  8.50000000E-01  8.50000000E-01  8.00000000E-01  8.50000000E-01
  8.50000000E-01  8.50000000E-01  8.00000000E-01  8.50000000E-01  8.50000000E-01
  8.50000000E-01  8.00000000E-01  8.50000000E-01  8.50000000E-01  8.50000000E-01
  8.00000000E-01  8.50000000E-01  8.50000000E-01  8.50000000E-01  8.00000000E-01
  8.50000000E-01  8.50000000E-01  8.50000000E-01  8.00000000E-01  8.50000000E-01
  8.50000000E-01  8.50000000E-01  8.00000000E-01  8.50000000E-01  8.50000000E-01
  8.50000000E-01  8.00000000E-01  8.50000000E-01  8.50000000E-01  8.50000000E-01
  8.00000000E-01  8.50000000E-01  8.50000000E-01  8.50000000E-01  8.00000000E-01
  8.50000000E-01  8.50000000E-01  8.50000000E-01  8.00000000E-01  8.50000000E-01
  8.50000000E-01  8.50000000E-01  8.00000000E-01  8.50000000E-01  8.50000000E-01
  8.50000000E-01  8.00000000E-01  8.50000000E-01  8.50000000E-01  8.50000000E-01
  8.00000000E-01  8.50000000E-01  8.50000000E-01  8.50000000E-01  8.00000000E-01
  8.50000000E-01  8.50000000E-01  8.50000000E-01  8.00000000E-01  8.50000000E-01
  8.50000000E-01  8.50000000E-01  8.00000000E-01  8.50000000E-01  8.50000000E-01
  8.50000000E-01  8.00000000E-01  8.50000000E-01  8.50000000E-01  8.50000000E-01
  8.00000000E-01  8.50000000E-01  8.50000000E-01  8.50000000E-01  8.00000000E-01
  8.50000000E-01  8.50000000E-01  8.50000000E-01  8.00000000E-01  8.50000000E-01
  8.50000000E-01  8.50000000E-01  8.00000000E-01  8.50000000E-01  8.50000000E-01
  8.50000000E-01  8.00000000E-01  8.50000000E-01  8.50000000E-01  8.50000000E-01
  8.00000000E-01  8.50000000E-01  8.50000000E-01  8.50000000E-01  8.00000000E-01
  8.50000000E-01  8.50000000E-01  8.50000000E-01  8.00000000E-01  8.50000000E-01
  8.50000000E-01  8.50000000E-01  8.00000000E-01  8.50000000E-01  8.50000000E-01
  8.50000000E-01  8.00000000E-01  8.50000000E-01  8.50000000E-01  8.50000000E-01
  8.00000000E-01  8.50000000E-01  8.50000000E-01  8.50000000E-01  8.00000000E-01
  8.50000000E-01  8.50000000E-01  8.50000000E-01  8.00000000E-01  8.50000000E-01
  8.50000000E-01  8.50000000E-01  8.00000000E-01  8.50000000E-01  8.50000000E-01
  8.50000000E-01  8.00000000E-01  8.50000000E-01  8.50000000E-01  8.50000000E-01
  8.00000000E-01  8.50000000E-01  8.50000000E-01  8.50000000E-01  8.00000000E-01
  8.50000000E-01  8.50000000E-01  8.50000000E-01  8.00000000E-01  8.50000000E-01
  8.50000000E-01  8.50000000E-01  8.00000000E-01  8.50000000E-01  8.50000000E-01
  8.50000000E-01  8.00000000E-01  8.50000000E-01  8.50000000E-01  8.50000000E-01
  8.00000000E-01  8.50000000E-01  8.50000000E-01  8.50000000E-01  8.00000000E-01
  8.50000000E-01  8.50000000E-01  8.50000000E-01  8.00000000E-01  8.50000000E-01
  8.50000000E-01  8.50000000E-01  8.00000000E-01  8.50000000E-01  8.50000000E-01
  8.50000000E-01  8.00000000E-01  8.50000000E-01  8.50000000E-01  8.50000000E-01
  8.00000000E-01  8.50000000E-01  8.50000000E-01  8.50000000E-01  8.00000000E-01
  8.50000000E-01  8.50000000E-01  8.50000000E-01  8.00000000E-01  8.50000000E-01
  8.50000000E-01  8.50000000E-01  8.00000000E-01  8.50000000E-01  8.50000000E-01
  8.50000000E-01  8.00000000E-01  8.50000000E-01  8.50000000E-01  8.50000000E-01
  8.00000000E-01  8.50000000E-01  8.50000000E-01  8.50000000E-01  8.00000000E-01
  8.50000000E-01  8.50000000E-01  8.50000000E-01  8.00000000E-01  8.50000000E-01
  8.50000000E-01  8.50000000E-01  8.00000000E-01  8.50000000E-01  8.50000000E-01
  8.50000000E-01  8.00000000E-01  8.50000000E-01  8.50000000E-01  8.50000000E-01
  8.00000000E-01  8.50000000E-01  8.50000000E-01  8.50000000E-01  8.00000000E-01
  8.50000000E-01  8.50000000E-01  8.50000000E-01  8.00000000E-01  8.50000000E-01
  8.50000000E-01  8.50000000E-01  8.00000000E-01  8.50000000E-01  8.50000000E-01
  8.50000000E-01  8.00000000E-01  8.50000000E-01  8.50000000E-01  8.50000000E-01
  8.00000000E-01  8.50000000E-01  8.50000000E-01  8.50000000E-01  8.00000000E-01
  8.50000000E-01  8.50000000E-01  8.50000000E-01  8.00000000E-01  8.50000000E-01
  8.50000000E-01  8.50000000E-01  8.00000000E-01  8.50000000E-01  8.50000000E-01
  8.50000000E-01  8.00000000E-01  8.50000000E-01  8.50000000E-01  8.50000000E-01
  8.00000000E-01  8.50000000E-01  8.50000000E-01  8.50000000E-01  8.00000000E-01
  8.50000000E-01  8.50000000E-01  8.50000000E-01  8.00000000E-01  8.50000000E-01
  8.50000000E-01  8.50000000E-01  8.00000000E-01  8.50000000E-01  8.50000000E-01
  8.50000000E-01  8.00000000E-01  8.50000000E-01  8.50000000E-01  8.50000000E-01
  8.00000000E-01  8.50000000E-01  8.50000000E-01  8.50000000E-01  8.00000000E-01
  8.50000000E-01  8.50000000E-01  8.50000000E-01  8.00000000E-01  8.50000000E-01
  8.50000000E-01  8.50000000E-01  8.00000000E-01  8.50000000E-01  8.50000000E-01
  8.50000000E-01  8.00000000E-01  8.50000000E-01  8.50000000E-01  8.50000000E-01
  8.00000000E-01  8.50000000E-01  8.50000000E-01  8.50000000E-01  8.00000000E-01
  8.50000000E-01  8.50000000E-01  8.50000000E-01  8.00000000E-01  8.50000000E-01
  8.50000000E-01  8.50000000E-01  8.00000000E-01  8.50000000E-01  8.50000000E-01
  8.50000000E-01  8.00000000E-01  8.50000000E-01  8.50000000E-01  8.50000000E-01
  8.00000000E-01  8.50000000E-01  8.50000000E-01  8.50000000E-01  8.00000000E-01
  8.50000000E-01  8.50000000E-01  8.50000000E-01  8.00000000E-01  8.50000000E-01
  8.50000000E-01  8.50000000E-01  8.00000000E-01  8.50000000E-01  8.50000000E-01
  8.50000000E-01  8.00000000E-01  8.50000000E-01  8.50000000E-01  8.50000000E-01
  8.00000000E-01  8.50000000E-01  8.50000000E-01  8.50000000E-01  8.00000000E-01
  8.50000000E-01  8.50000000E-01  8.50000000E-01  8.00000000E-01  8.50000000E-01
  8.50000000E-01  8.50000000E-01  8.00000000E-01  8.50000000E-01  8.50000000E-01
  8.50000000E-01  8.00000000E-01  8.50000000E-01  8.50000000E-01  8.50000000E-01
  8.00000000E-01  8.50000000E-01  8.50000000E-01  8.50000000E-01  8.00000000E-01
  8.50000000E-01  8.50000000E-01  8.50000000E-01  8.00000000E-01  8.50000000E-01
  8.50000000E-01  8.50000000E-01  8.00000000E-01  8.50000000E-01  8.50000000E-01
  8.50000000E-01  8.00000000E-01  8.50000000E-01  8.50000000E-01  8.50000000E-01
  8.00000000E-01  8.50000000E-01  8.50000000E-01  8.50000000E-01  8.00000000E-01
  8.50000000E-01  8.50000000E-01  8.50000000E-01  8.00000000E-01  8.50000000E-01
  8.50000000E-01  8.50000000E-01  8.00000000E-01  8.50000000E-01  8.50000000E-01
  8.50000000E-01  8.00000000E-01  8.50000000E-01  8.50000000E-01  8.50000000E-01
  8.00000000E-01  8.50000000E-01  8.50000000E-01  8.50000000E-01  8.00000000E-01
  8.50000000E-01  8.50000000E-01  8.50000000E-01  8.00000000E-01  8.50000000E-01
  8.50000000E-01  8.50000000E-01  8.00000000E-01  8.50000000E-01  8.50000000E-01
  8.50000000E-01  8.00000000E-01  8.50000000E-01  8.50000000E-01  8.50000000E-01
  8.00000000E-01  8.50000000E-01  8.50000000E-01  8.50000000E-01  8.00000000E-01
  8.50000000E-01  8.50000000E-01  8.50000000E-01  8.00000000E-01  8.50000000E-01
  8.50000000E-01  8.50000000E-01  8.00000000E-01  8.50000000E-01  8.50000000E-01
  8.50000000E-01  8.00000000E-01  8.50000000E-01  8.50000000E-01  8.50000000E-01
  8.00000000E-01  8.50000000E-01  8.50000000E-01  8.50000000E-01  8.00000000E-01
  8.50000000E-01  8.50000000E-01  8.50000000E-01  8.00000000E-01  8.50000000E-01
  8.50000000E-01  8.50000000E-01  8.00000000E-01  8.50000000E-01  8.50000000E-01
  8.50000000E-01  8.00000000E-01  8.50000000E-01  8.50000000E-01  8.50000000E-01
  8.00000000E-01  8.50000000E-01  8.50000000E-01  8.50000000E-01  8.00000000E-01
  8.50000000E-01  8.50000000E-01  8.50000000E-01  8.00000000E-01  8.50000000E-01
  8.50000000E-01  8.50000000E-01  8.00000000E-01  8.50000000E-01  8.50000000E-01
  8.50000000E-01  8.00000000E-01  8.50000000E-01  8.50000000E-01  8.50000000E-01
  8.00000000E-01  8.50000000E-01  8.50000000E-01  8.50000000E-01  8.00000000E-01
  8.50000000E-01  8.50000000E-01  8.50000000E-01  8.00000000E-01  8.50000000E-01
  8.50000000E-01  8.50000000E-01  8.00000000E-01  8.50000000E-01  8.50000000E-01
  8.50000000E-01  8.00000000E-01  8.50000000E-01  8.50000000E-01  8.50000000E-01
  8.00000000E-01  8.50000000E-01  8.50000000E-01  8.50000000E-01  8.00000000E-01
  8.50000000E-01  8.50000000E-01  8.50000000E-01  8.00000000E-01  8.50000000E-01
  8.50000000E-01  8.50000000E-01  8.00000000E-01  8.50000000E-01  8.50000000E-01
  8.50000000E-01  8.00000000E-01  8.50000000E-01  8.50000000E-01  8.50000000E-01
  8.00000000E-01  8.50000000E-01  8.50000000E-01  8.50000000E-01  8.00000000E-01
  8.50000000E-01  8.50000000E-01  8.50000000E-01  8.00000000E-01  8.50000000E-01
  8.50000000E-01  8.50000000E-01  8.00000000E-01  8.50000000E-01  8.50000000E-01
  8.50000000E-01  8.00000000E-01  8.50000000E-01  8.50000000E-01  8.50000000E-01
  8.00000000E-01  8.50000000E-01  8.50000000E-01  8.50000000E-01  8.00000000E-01
  8.50000000E-01  8.50000000E-01  8.50000000E-01  8.00000000E-01  8.50000000E-01
  8.50000000E-01  8.50000000E-01  8.00000000E-01  8.50000000E-01  8.50000000E-01
  8.50000000E-01  8.00000000E-01  8.50000000E-01  8.50000000E-01  8.50000000E-01
  8.00000000E-01  8.50000000E-01  8.50000000E-01  8.50000000E-01  8.00000000E-01
  8.50000000E-01  8.50000000E-01  8.50000000E-01  8.00000000E-01  8.50000000E-01
  8.50000000E-01  8.50000000E-01  8.00000000E-01  8.50000000E-01  8.50000000E-01
  8.50000000E-01  8.00000000E-01  8.50000000E-01  8.50000000E-01  8.50000000E-01
  8.00000000E-01  8.50000000E-01  8.50000000E-01  8.50000000E-01  8.00000000E-01
  8.50000000E-01  8.50000000E-01  8.50000000E-01  8.00000000E-01  8.50000000E-01
  8.50000000E-01  8.50000000E-01  8.00000000E-01  8.50000000E-01  8.50000000E-01
  8.50000000E-01  8.00000000E-01  8.50000000E-01  8.50000000E-01  8.50000000E-01
  8.00000000E-01  8.50000000E-01  8.50000000E-01  8.50000000E-01  8.00000000E-01
  8.50000000E-01  8.50000000E-01  8.50000000E-01  8.00000000E-01  8.50000000E-01
  8.50000000E-01  8.50000000E-01  8.00000000E-01  8.50000000E-01  8.50000000E-01
  8.50000000E-01  8.00000000E-01  8.50000000E-01  8.50000000E-01  8.50000000E-01
  8.00000000E-01  8.50000000E-01  8.50000000E-01  8.50000000E-01  8.00000000E-01
  8.50000000E-01  8.50000000E-01  8.50000000E-01  8.00000000E-01  8.50000000E-01
  8.50000000E-01  8.50000000E-01  8.00000000E-01  8.50000000E-01  8.50000000E-01
  8.50000000E-01  8.00000000E-01  8.50000000E-01  8.50000000E-01  8.50000000E-01
  8.00000000E-01  8.50000000E-01  8.50000000E-01  8.50000000E-01  8.00000000E-01
  8.50000000E-01  8.50000000E-01  8.50000000E-01  8.00000000E-01  8.50000000E-01
  8.50000000E-01  8.50000000E-01  8.00000000E-01  8.50000000E-01  8.50000000E-01
  8.50000000E-01  8.00000000E-01  8.50000000E-01  8.50000000E-01  8.50000000E-01
  8.00000000E-01  8.50000000E-01  8.50000000E-01  8.50000000E-01  8.00000000E-01
  8.50000000E-01  8.50000000E-01  8.50000000E-01  8.00000000E-01  8.50000000E-01
  8.50000000E-01  8.50000000E-01  8.00000000E-01  8.50000000E-01  8.50000000E-01
  8.50000000E-01  8.00000000E-01  8.50000000E-01  8.50000000E-01  8.50000000E-01
  8.00000000E-01  8.50000000E-01  8.50000000E-01  8.50000000E-01  8.00000000E-01
  8.50000000E-01  8.50000000E-01  8.50000000E-01  8.00000000E-01  8.50000000E-01
  8.50000000E-01  8.50000000E-01  8.00000000E-01  8.50000000E-01  8.50000000E-01
  8.50000000E-01  8.00000000E-01  8.50000000E-01  8.50000000E-01  8.50000000E-01
  8.00000000E-01  8.50000000E-01  8.50000000E-01  8.50000000E-01  8.00000000E-01
  8.50000000E-01  8.50000000E-01  8.50000000E-01  8.00000000E-01  8.50000000E-01
  8.50000000E-01  8.50000000E-01  8.00000000E-01  8.50000000E-01  8.50000000E-01
  8.50000000E-01  8.00000000E-01  8.50000000E-01  8.50000000E-01  8.50000000E-01
  8.00000000E-01  8.50000000E-01  8.50000000E-01  8.50000000E-01  8.00000000E-01
  8.50000000E-01  8.50000000E-01  8.50000000E-01  8.00000000E-01  8.50000000E-01
  8.50000000E-01  8.50000000E-01  8.00000000E-01  8.50000000E-01  8.50000000E-01
  8.50000000E-01  8.00000000E-01  8.50000000E-01  8.50000000E-01  8.50000000E-01
  8.00000000E-01  8.50000000E-01  8.50000000E-01  8.50000000E-01  8.00000000E-01
  8.50000000E-01  8.50000000E-01  8.50000000E-01  8.00000000E-01  8.50000000E-01
  8.50000000E-01  8.50000000E-01  8.00000000E-01  8.50000000E-01  8.50000000E-01
  8.50000000E-01  8.00000000E-01  8.50000000E-01  8.50000000E-01  8.50000000E-01
  8.00000000E-01  8.50000000E-01  8.50000000E-01  8.50000000E-01  8.00000000E-01
  8.50000000E-01  8.50000000E-01  8.50000000E-01  8.00000000E-01  8.50000000E-01
  8.50000000E-01  8.50000000E-01  8.00000000E-01  8.50000000E-01  8.50000000E-01
  8.50000000E-01  8.00000000E-01  8.50000000E-01  8.50000000E-01  8.50000000E-01
  8.00000000E-01  8.50000000E-01  8.50000000E-01  8.50000000E-01  8.00000000E-01
  8.50000000E-01  8.50000000E-01  8.50000000E-01  8.00000000E-01  8.50000000E-01
  8.50000000E-01  8.50000000E-01  8.00000000E-01  8.50000000E-01  8.50000000E-01
  8.50000000E-01  8.00000000E-01  8.50000000E-01  8.50000000E-01  8.50000000E-01
  8.00000000E-01  8.50000000E-01  8.50000000E-01  8.50000000E-01  8.00000000E-01
  8.50000000E-01  8.50000000E-01  8.50000000E-01  8.00000000E-01  8.50000000E-01
  8.50000000E-01  8.50000000E-01  8.00000000E-01  8.50000000E-01  8.50000000E-01
  8.50000000E-01  8.00000000E-01  8.50000000E-01  8.50000000E-01  8.50000000E-01
  8.00000000E-01  8.50000000E-01  8.50000000E-01  8.50000000E-01  8.00000000E-01
  8.50000000E-01  8.50000000E-01  8.50000000E-01  8.00000000E-01  8.50000000E-01
  8.50000000E-01  8.50000000E-01  8.00000000E-01  8.50000000E-01  8.50000000E-01
  8.50000000E-01  8.00000000E-01  8.50000000E-01  8.50000000E-01  8.50000000E-01
  8.00000000E-01  8.50000000E-01  8.50000000E-01  8.50000000E-01  8.00000000E-01
  8.50000000E-01  8.50000000E-01  8.50000000E-01  8.00000000E-01  8.50000000E-01
  8.50000000E-01  8.50000000E-01  8.00000000E-01  8.50000000E-01  8.50000000E-01
  8.50000000E-01  8.00000000E-01  8.50000000E-01  8.50000000E-01  8.50000000E-01
  8.00000000E-01  8.50000000E-01  8.50000000E-01  8.50000000E-01  8.00000000E-01
  8.50000000E-01  8.50000000E-01  8.50000000E-01  8.00000000E-01  8.50000000E-01
  8.50000000E-01  8.50000000E-01  8.00000000E-01  8.50000000E-01  8.50000000E-01
  8.50000000E-01  8.00000000E-01  8.50000000E-01  8.50000000E-01  8.50000000E-01
  8.00000000E-01  8.50000000E-01  8.50000000E-01  8.50000000E-01  8.00000000E-01
  8.50000000E-01  8.50000000E-01  8.50000000E-01  8.00000000E-01  8.50000000E-01
  8.50000000E-01  8.50000000E-01  8.00000000E-01  8.50000000E-01  8.50000000E-01
  8.50000000E-01  8.00000000E-01  8.50000000E-01  8.50000000E-01  8.50000000E-01
  8.00000000E-01  8.50000000E-01  8.50000000E-01  8.50000000E-01  8.00000000E-01
  8.50000000E-01  8.50000000E-01  8.50000000E-01  8.00000000E-01  8.50000000E-01
  8.50000000E-01  8.50000000E-01  8.00000000E-01  8.50000000E-01  8.50000000E-01
  8.50000000E-01  8.00000000E-01  8.50000000E-01  8.50000000E-01  8.50000000E-01
  8.00000000E-01  8.50000000E-01  8.50000000E-01  8.50000000E-01  8.00000000E-01
  8.50000000E-01  8.50000000E-01  8.50000000E-01  8.00000000E-01  8.50000000E-01
  8.50000000E-01  8.50000000E-01  8.00000000E-01  8.50000000E-01  8.50000000E-01
  8.50000000E-01  8.00000000E-01  8.50000000E-01  8.50000000E-01  8.50000000E-01
  8.00000000E-01  8.50000000E-01  8.50000000E-01  8.50000000E-01  8.00000000E-01
  8.50000000E-01  8.50000000E-01  8.50000000E-01  8.00000000E-01  8.50000000E-01
  8.50000000E-01  8.50000000E-01  8.00000000E-01  8.50000000E-01  8.50000000E-01
  8.50000000E-01  8.00000000E-01  8.50000000E-01  8.50000000E-01  8.50000000E-01
  8.00000000E-01  8.50000000E-01  8.50000000E-01  8.50000000E-01  8.00000000E-01
  8.50000000E-01  8.50000000E-01  8.50000000E-01  8.00000000E-01  8.50000000E-01
  8.50000000E-01  8.50000000E-01  8.00000000E-01  8.50000000E-01  8.50000000E-01
  8.50000000E-01  8.00000000E-01  8.50000000E-01  8.50000000E-01  8.50000000E-01
  8.00000000E-01  8.50000000E-01  8.50000000E-01  8.50000000E-01  8.00000000E-01
  8.50000000E-01  8.50000000E-01  8.50000000E-01  8.00000000E-01  8.50000000E-01
  8.50000000E-01  8.50000000E-01  8.00000000E-01  8.50000000E-01  8.50000000E-01
  8.50000000E-01  8.00000000E-01  8.50000000E-01  8.50000000E-01  8.50000000E-01
  8.00000000E-01  8.50000000E-01  8.50000000E-01  8.50000000E-01  8.00000000E-01
  8.50000000E-01  8.50000000E-01  8.50000000E-01  8.00000000E-01  8.50000000E-01
  8.50000000E-01  8.50000000E-01  8.00000000E-01  8.50000000E-01  8.50000000E-01
  8.50000000E-01  8.00000000E-01  8.50000000E-01  8.50000000E-01  8.50000000E-01
  8.00000000E-01  8.50000000E-01  8.50000000E-01  8.50000000E-01  8.00000000E-01
  8.50000000E-01  8.50000000E-01  8.50000000E-01  8.00000000E-01  8.50000000E-01
  8.50000000E-01  8.50000000E-01  8.00000000E-01  8.50000000E-01  8.50000000E-01
  8.50000000E-01  8.00000000E-01  8.50000000E-01  8.50000000E-01  8.50000000E-01
  8.00000000E-01  8.50000000E-01  8.50000000E-01  8.50000000E-01  8.00000000E-01
  8.50000000E-01  8.50000000E-01  8.50000000E-01  8.00000000E-01  8.50000000E-01
  8.50000000E-01  8.50000000E-01  8.00000000E-01  8.50000000E-01  8.50000000E-01
  8.50000000E-01  8.00000000E-01  8.50000000E-01  8.50000000E-01  8.50000000E-01
  8.00000000E-01  8.50000000E-01  8.50000000E-01  8.50000000E-01  8.00000000E-01
  8.50000000E-01  8.50000000E-01  8.50000000E-01  8.00000000E-01  8.50000000E-01
  8.50000000E-01  8.50000000E-01  8.00000000E-01  8.50000000E-01  8.50000000E-01
  8.50000000E-01  8.00000000E-01  8.50000000E-01  8.50000000E-01  8.50000000E-01
  8.00000000E-01  8.50000000E-01  8.50000000E-01  8.50000000E-01  8.00000000E-01
  8.50000000E-01  8.50000000E-01  8.50000000E-01  8.00000000E-01  8.50000000E-01
  8.50000000E-01  8.50000000E-01  8.00000000E-01  8.50000000E-01  8.50000000E-01
  8.50000000E-01  8.00000000E-01  8.50000000E-01  8.50000000E-01  8.50000000E-01
  8.00000000E-01  8.50000000E-01  8.50000000E-01  8.50000000E-01  8.00000000E-01
  8.50000000E-01  8.50000000E-01  8.50000000E-01  8.00000000E-01  8.50000000E-01
  8.50000000E-01  8.50000000E-01  8.00000000E-01  8.50000000E-01  8.50000000E-01
  8.50000000E-01  8.00000000E-01  8.50000000E-01  8.50000000E-01  8.50000000E-01
  8.00000000E-01  8.50000000E-01  8.50000000E-01  8.50000000E-01  8.00000000E-01
  8.50000000E-01  8.50000000E-01  8.50000000E-01  8.00000000E-01  8.50000000E-01
  8.50000000E-01  8.50000000E-01  8.00000000E-01  8.50000000E-01  8.50000000E-01
  8.50000000E-01  8.00000000E-01  8.50000000E-01  8.50000000E-01  8.50000000E-01
  8.00000000E-01  8.50000000E-01  8.50000000E-01  8.50000000E-01  8.00000000E-01
  8.50000000E-01  8.50000000E-01  8.50000000E-01  8.00000000E-01  8.50000000E-01
  8.50000000E-01  8.50000000E-01  8.00000000E-01  8.50000000E-01  8.50000000E-01
  8.50000000E-01  8.00000000E-01  8.50000000E-01  8.50000000E-01  8.50000000E-01
  8.00000000E-01  8.50000000E-01  8.50000000E-01  8.50000000E-01  8.00000000E-01
  8.50000000E-01  8.50000000E-01  8.50000000E-01  8.00000000E-01  8.50000000E-01
  8.50000000E-01  8.50000000E-01  8.00000000E-01  8.50000000E-01  8.50000000E-01
  8.50000000E-01  8.00000000E-01  8.50000000E-01  8.50000000E-01  8.50000000E-01
  8.00000000E-01  8.50000000E-01  8.50000000E-01  8.50000000E-01  8.00000000E-01
  8.50000000E-01  8.50000000E-01  8.50000000E-01  8.00000000E-01  8.50000000E-01
  8.50000000E-01  8.50000000E-01  8.00000000E-01  8.50000000E-01  8.50000000E-01
  8.50000000E-01  8.00000000E-01  8.50000000E-01  8.50000000E-01  8.50000000E-01
  8.00000000E-01  8.50000000E-01  8.50000000E-01  8.50000000E-01  8.00000000E-01
  8.50000000E-01  8.50000000E-01  8.50000000E-01  8.00000000E-01  8.50000000E-01
  8.50000000E-01  8.50000000E-01  8.00000000E-01  8.50000000E-01  8.50000000E-01
  8.50000000E-01  8.00000000E-01  8.50000000E-01  8.50000000E-01  8.50000000E-01
  8.00000000E-01  8.50000000E-01  8.50000000E-01  8.50000000E-01  8.00000000E-01
  8.50000000E-01  8.50000000E-01  8.50000000E-01  8.00000000E-01  8.50000000E-01
  8.50000000E-01  8.50000000E-01  8.00000000E-01  8.50000000E-01  8.50000000E-01
  8.50000000E-01  8.00000000E-01  8.50000000E-01  8.50000000E-01  8.50000000E-01
  8.00000000E-01  8.50000000E-01  8.50000000E-01  8.50000000E-01  8.00000000E-01
  8.50000000E-01  8.50000000E-01  8.50000000E-01  8.00000000E-01  8.50000000E-01
  8.50000000E-01  8.50000000E-01  8.00000000E-01  8.50000000E-01  8.50000000E-01
  8.50000000E-01  8.00000000E-01  8.50000000E-01  8.50000000E-01  8.50000000E-01
  8.00000000E-01  8.50000000E-01  8.50000000E-01  8.50000000E-01  8.00000000E-01
  8.50000000E-01  8.50000000E-01  8.50000000E-01  8.00000000E-01  8.50000000E-01
  8.50000000E-01  8.50000000E-01  8.00000000E-01  8.50000000E-01  8.50000000E-01
  8.50000000E-01  8.00000000E-01  8.50000000E-01  8.50000000E-01  8.50000000E-01
  8.00000000E-01  8.50000000E-01  8.50000000E-01  8.50000000E-01  8.00000000E-01
  8.50000000E-01  8.50000000E-01  8.50000000E-01  8.00000000E-01  8.50000000E-01
  8.50000000E-01  8.50000000E-01  8.00000000E-01  8.50000000E-01  8.50000000E-01
  8.50000000E-01  8.00000000E-01  8.50000000E-01  8.50000000E-01  8.50000000E-01
  8.00000000E-01  8.50000000E-01  8.50000000E-01  8.50000000E-01  8.00000000E-01
  8.50000000E-01  8.50000000E-01  8.50000000E-01  8.00000000E-01  8.50000000E-01
  8.50000000E-01  8.50000000E-01  8.00000000E-01  8.50000000E-01  8.50000000E-01
  8.50000000E-01  8.00000000E-01  8.50000000E-01  8.50000000E-01  8.50000000E-01
  8.00000000E-01  8.50000000E-01  8.50000000E-01  8.50000000E-01  8.00000000E-01
  8.50000000E-01  8.50000000E-01  8.50000000E-01  8.00000000E-01  8.50000000E-01
  8.50000000E-01  8.50000000E-01  8.00000000E-01  8.50000000E-01  8.50000000E-01
  8.50000000E-01  8.00000000E-01  8.50000000E-01  8.50000000E-01  8.50000000E-01
  8.00000000E-01  8.50000000E-01  8.50000000E-01  8.50000000E-01  8.00000000E-01
  8.50000000E-01  8.50000000E-01  8.50000000E-01  8.00000000E-01  8.50000000E-01
  8.50000000E-01  8.50000000E-01  8.00000000E-01  8.50000000E-01  8.50000000E-01
  8.50000000E-01  8.00000000E-01  8.50000000E-01  8.50000000E-01  8.50000000E-01
  8.00000000E-01  8.50000000E-01  8.50000000E-01  8.50000000E-01  8.00000000E-01
  8.50000000E-01  8.50000000E-01  8.50000000E-01  8.00000000E-01  8.50000000E-01
  8.50000000E-01  8.50000000E-01  8.00000000E-01  8.50000000E-01  8.50000000E-01
  8.50000000E-01  8.00000000E-01  8.50000000E-01  8.50000000E-01  8.50000000E-01
  8.00000000E-01  8.50000000E-01  8.50000000E-01  8.50000000E-01  8.00000000E-01
  8.50000000E-01  8.50000000E-01  8.50000000E-01  8.00000000E-01  8.50000000E-01
  8.50000000E-01  8.50000000E-01  8.00000000E-01  8.50000000E-01  8.50000000E-01
  8.50000000E-01  8.00000000E-01  8.50000000E-01  8.50000000E-01  8.50000000E-01
  8.00000000E-01  8.50000000E-01  8.50000000E-01  8.50000000E-01  8.00000000E-01
  8.50000000E-01  8.50000000E-01  8.50000000E-01  8.00000000E-01  8.50000000E-01
  8.50000000E-01  8.50000000E-01  8.00000000E-01  8.50000000E-01  8.50000000E-01
  8.50000000E-01  8.00000000E-01  8.50000000E-01  8.50000000E-01  8.50000000E-01
  8.00000000E-01  8.50000000E-01  8.50000000E-01  8.50000000E-01  8.00000000E-01
  8.50000000E-01  8.50000000E-01  8.50000000E-01  8.00000000E-01  8.50000000E-01
  8.50000000E-01  8.50000000E-01  8.00000000E-01  8.50000000E-01  8.50000000E-01
  8.50000000E-01  8.00000000E-01  8.50000000E-01  8.50000000E-01  8.50000000E-01
  8.00000000E-01  8.50000000E-01  8.50000000E-01  8.50000000E-01  8.00000000E-01
  8.50000000E-01  8.50000000E-01  8.50000000E-01  8.00000000E-01  8.50000000E-01
  8.50000000E-01  8.50000000E-01  8.00000000E-01  8.50000000E-01  8.50000000E-01
  8.50000000E-01  8.00000000E-01  8.50000000E-01  8.50000000E-01  8.50000000E-01
  8.00000000E-01  8.50000000E-01  8.50000000E-01  8.50000000E-01  8.00000000E-01
  8.50000000E-01  8.50000000E-01  8.50000000E-01  8.00000000E-01  8.50000000E-01
  8.50000000E-01  8.50000000E-01  8.00000000E-01  8.50000000E-01  8.50000000E-01
  8.50000000E-01  8.00000000E-01  8.50000000E-01  8.50000000E-01  8.50000000E-01
  8.00000000E-01  8.50000000E-01  8.50000000E-01  8.50000000E-01  8.00000000E-01
  8.50000000E-01  8.50000000E-01  8.50000000E-01  8.00000000E-01  8.50000000E-01
  8.50000000E-01  8.50000000E-01  8.00000000E-01  8.50000000E-01  8.50000000E-01
  8.50000000E-01  8.00000000E-01  8.50000000E-01  8.50000000E-01  8.50000000E-01
  8.00000000E-01  8.50000000E-01  8.50000000E-01  8.50000000E-01  8.00000000E-01
  8.50000000E-01  8.50000000E-01  8.50000000E-01  8.00000000E-01  8.50000000E-01
  8.50000000E-01  8.50000000E-01  8.00000000E-01  8.50000000E-01  8.50000000E-01
  8.50000000E-01  8.00000000E-01  8.50000000E-01  8.50000000E-01  8.50000000E-01
  8.00000000E-01  8.50000000E-01  8.50000000E-01  8.50000000E-01  8.00000000E-01
  8.50000000E-01  8.50000000E-01  8.50000000E-01  8.00000000E-01  8.50000000E-01
  8.50000000E-01  8.50000000E-01  8.00000000E-01  8.50000000E-01  8.50000000E-01
  8.50000000E-01  8.00000000E-01  8.50000000E-01  8.50000000E-01  8.50000000E-01
  8.00000000E-01  8.50000000E-01  8.50000000E-01  8.50000000E-01  8.00000000E-01
  8.50000000E-01  8.50000000E-01  8.50000000E-01  8.00000000E-01  8.50000000E-01
  8.50000000E-01  8.50000000E-01  8.00000000E-01  8.50000000E-01  8.50000000E-01
  8.50000000E-01  8.00000000E-01  8.50000000E-01  8.50000000E-01  8.50000000E-01
  8.00000000E-01  8.50000000E-01  8.50000000E-01  8.50000000E-01  8.00000000E-01
  8.50000000E-01  8.50000000E-01  8.50000000E-01  8.00000000E-01  8.50000000E-01
  8.50000000E-01  8.50000000E-01  8.00000000E-01  8.50000000E-01  8.50000000E-01
  8.50000000E-01  8.00000000E-01  8.50000000E-01  8.50000000E-01  8.50000000E-01
  8.00000000E-01  8.50000000E-01  8.50000000E-01  8.50000000E-01  8.00000000E-01
  8.50000000E-01  8.50000000E-01  8.50000000E-01  8.00000000E-01  8.50000000E-01
  8.50000000E-01  8.50000000E-01  8.00000000E-01  8.50000000E-01  8.50000000E-01
  8.50000000E-01  8.00000000E-01  8.50000000E-01  8.50000000E-01  8.50000000E-01
  8.00000000E-01  8.50000000E-01  8.50000000E-01  8.50000000E-01  8.00000000E-01
  8.50000000E-01  8.50000000E-01  8.50000000E-01  8.00000000E-01  8.50000000E-01
  8.50000000E-01  8.50000000E-01  8.00000000E-01  8.50000000E-01  8.50000000E-01
  8.50000000E-01  8.00000000E-01  8.50000000E-01  8.50000000E-01  8.50000000E-01
  8.00000000E-01  8.50000000E-01  8.50000000E-01  8.50000000E-01  8.00000000E-01
  8.50000000E-01  8.50000000E-01  8.50000000E-01  8.00000000E-01  8.50000000E-01
  8.50000000E-01  8.50000000E-01  8.00000000E-01  8.50000000E-01  8.50000000E-01
  8.50000000E-01  8.00000000E-01  8.50000000E-01  8.50000000E-01  8.50000000E-01
  8.00000000E-01  8.50000000E-01  8.50000000E-01  8.50000000E-01  8.00000000E-01
  8.50000000E-01  8.50000000E-01  8.50000000E-01  8.00000000E-01  8.50000000E-01
  8.50000000E-01  8.50000000E-01  8.00000000E-01  8.50000000E-01  8.50000000E-01
  8.50000000E-01  8.00000000E-01  8.50000000E-01  8.50000000E-01  8.50000000E-01
  8.00000000E-01  8.50000000E-01  8.50000000E-01  8.50000000E-01  8.00000000E-01
  8.50000000E-01  8.50000000E-01  8.50000000E-01  8.00000000E-01  8.50000000E-01
  8.50000000E-01  8.50000000E-01  8.00000000E-01  8.50000000E-01  8.50000000E-01
  8.50000000E-01  8.00000000E-01  8.50000000E-01  8.50000000E-01  8.50000000E-01
  8.00000000E-01  8.50000000E-01  8.50000000E-01  8.50000000E-01  8.00000000E-01
  8.50000000E-01  8.50000000E-01  8.50000000E-01  8.00000000E-01  8.50000000E-01
  8.50000000E-01  8.50000000E-01  8.00000000E-01  8.50000000E-01  8.50000000E-01
  8.50000000E-01  8.00000000E-01  8.50000000E-01  8.50000000E-01  8.50000000E-01
  8.00000000E-01  8.50000000E-01  8.50000000E-01  8.50000000E-01  8.00000000E-01
  8.50000000E-01  8.50000000E-01  8.50000000E-01  8.00000000E-01  8.50000000E-01
  8.50000000E-01  8.50000000E-01  8.00000000E-01  8.50000000E-01  8.50000000E-01
  8.50000000E-01  8.00000000E-01  8.50000000E-01  8.50000000E-01  8.50000000E-01
  8.00000000E-01  8.50000000E-01  8.50000000E-01  8.50000000E-01  8.00000000E-01
  8.50000000E-01  8.50000000E-01  8.50000000E-01  8.00000000E-01  8.50000000E-01
  8.50000000E-01  8.50000000E-01  8.00000000E-01  8.50000000E-01  8.50000000E-01
  8.50000000E-01  8.00000000E-01  8.50000000E-01  8.50000000E-01  8.50000000E-01
  8.00000000E-01  8.50000000E-01  8.50000000E-01  8.50000000E-01  8.00000000E-01
  8.50000000E-01  8.50000000E-01  8.50000000E-01  8.00000000E-01  8.50000000E-01
  8.50000000E-01  8.50000000E-01  8.00000000E-01  8.50000000E-01  8.50000000E-01
  8.50000000E-01  8.00000000E-01  8.50000000E-01  8.50000000E-01  8.50000000E-01
  8.00000000E-01  8.50000000E-01  8.50000000E-01  8.50000000E-01  8.00000000E-01
  8.50000000E-01  8.50000000E-01  8.50000000E-01  8.00000000E-01  8.50000000E-01
  8.50000000E-01  8.50000000E-01  8.00000000E-01  8.50000000E-01  8.50000000E-01
  8.50000000E-01  8.00000000E-01  8.50000000E-01  8.50000000E-01  8.50000000E-01
  8.00000000E-01  8.50000000E-01  8.50000000E-01  8.50000000E-01  8.00000000E-01
  8.50000000E-01  8.50000000E-01  8.50000000E-01  8.00000000E-01  8.50000000E-01
  8.50000000E-01  8.50000000E-01  8.00000000E-01  8.50000000E-01  8.50000000E-01
  8.50000000E-01  8.00000000E-01  8.50000000E-01  8.50000000E-01  8.50000000E-01
  8.00000000E-01  8.50000000E-01  8.50000000E-01  8.50000000E-01  8.00000000E-01
  8.50000000E-01  8.50000000E-01  8.50000000E-01  8.00000000E-01  8.50000000E-01
  8.50000000E-01  8.50000000E-01  8.00000000E-01  8.50000000E-01  8.50000000E-01
  8.50000000E-01  8.00000000E-01  8.50000000E-01  8.50000000E-01  8.50000000E-01
  8.00000000E-01  8.50000000E-01  8.50000000E-01  8.50000000E-01  8.00000000E-01
  8.50000000E-01  8.50000000E-01  8.50000000E-01  8.00000000E-01  8.50000000E-01
  8.50000000E-01  8.50000000E-01  8.00000000E-01  8.50000000E-01  8.50000000E-01
  8.50000000E-01  8.00000000E-01  8.50000000E-01  8.50000000E-01  8.50000000E-01
  8.00000000E-01  8.50000000E-01  8.50000000E-01  8.50000000E-01  8.00000000E-01
  8.50000000E-01  8.50000000E-01  8.50000000E-01  8.00000000E-01  8.50000000E-01
  8.50000000E-01  8.50000000E-01  8.00000000E-01  8.50000000E-01  8.50000000E-01
  8.50000000E-01  8.00000000E-01  8.50000000E-01  8.50000000E-01  8.50000000E-01
  8.00000000E-01  8.50000000E-01  8.50000000E-01  8.50000000E-01  8.00000000E-01
  8.50000000E-01  8.50000000E-01  8.50000000E-01  8.00000000E-01  8.50000000E-01
  8.50000000E-01  8.50000000E-01  8.00000000E-01  8.50000000E-01  8.50000000E-01
  8.50000000E-01  8.00000000E-01  8.50000000E-01  8.50000000E-01  8.50000000E-01
  8.00000000E-01  8.50000000E-01  8.50000000E-01  8.50000000E-01  8.00000000E-01
  8.50000000E-01  8.50000000E-01  8.50000000E-01  8.00000000E-01  8.50000000E-01
  8.50000000E-01  8.50000000E-01  8.00000000E-01  8.50000000E-01  8.50000000E-01
  8.50000000E-01  8.00000000E-01  8.50000000E-01  8.50000000E-01  8.50000000E-01
  8.00000000E-01  8.50000000E-01  8.50000000E-01  8.50000000E-01  8.00000000E-01
  8.50000000E-01  8.50000000E-01  8.50000000E-01  8.00000000E-01  8.50000000E-01
  8.50000000E-01  8.50000000E-01  8.00000000E-01  8.50000000E-01  8.50000000E-01
  8.50000000E-01  8.00000000E-01  8.50000000E-01  8.50000000E-01  8.50000000E-01
  8.00000000E-01  8.50000000E-01  8.50000000E-01  8.50000000E-01  8.00000000E-01
  8.50000000E-01  8.50000000E-01  8.50000000E-01  8.00000000E-01  8.50000000E-01
  8.50000000E-01  8.50000000E-01  8.00000000E-01  8.50000000E-01  8.50000000E-01
  8.50000000E-01  8.00000000E-01  8.50000000E-01  8.50000000E-01  8.50000000E-01
  8.00000000E-01  8.50000000E-01  8.50000000E-01  8.50000000E-01  8.00000000E-01
  8.50000000E-01  8.50000000E-01  8.50000000E-01  8.00000000E-01  8.50000000E-01
  8.50000000E-01  8.50000000E-01  8.00000000E-01  8.50000000E-01  8.50000000E-01
  8.50000000E-01  8.00000000E-01  8.50000000E-01  8.50000000E-01  8.50000000E-01
  8.00000000E-01  8.50000000E-01  8.50000000E-01  8.50000000E-01  8.00000000E-01
  8.50000000E-01  8.50000000E-01  8.50000000E-01  8.00000000E-01  8.50000000E-01
  8.50000000E-01  8.50000000E-01  8.00000000E-01  8.50000000E-01  8.50000000E-01
  8.50000000E-01  8.00000000E-01  8.50000000E-01  8.50000000E-01  8.50000000E-01
  8.00000000E-01  8.50000000E-01  8.50000000E-01  8.50000000E-01  8.00000000E-01
  8.50000000E-01  8.50000000E-01  8.50000000E-01  8.00000000E-01  8.50000000E-01
  8.50000000E-01  8.50000000E-01  8.00000000E-01  8.50000000E-01  8.50000000E-01
  8.50000000E-01  8.00000000E-01  8.50000000E-01  8.50000000E-01  8.50000000E-01
  8.00000000E-01  8.50000000E-01  8.50000000E-01  8.50000000E-01  8.00000000E-01
  8.50000000E-01  8.50000000E-01  8.50000000E-01  8.00000000E-01  8.50000000E-01
  8.50000000E-01  8.50000000E-01  8.00000000E-01  8.50000000E-01  8.50000000E-01
  8.50000000E-01  8.00000000E-01  8.50000000E-01  8.50000000E-01  8.50000000E-01
  8.00000000E-01  8.50000000E-01  8.50000000E-01  8.50000000E-01  8.00000000E-01
  8.50000000E-01  8.50000000E-01  8.50000000E-01  8.00000000E-01  8.50000000E-01
  8.50000000E-01  8.50000000E-01  8.00000000E-01  8.50000000E-01  8.50000000E-01
  8.50000000E-01  8.00000000E-01  8.50000000E-01  8.50000000E-01  8.50000000E-01
  8.00000000E-01  8.50000000E-01  8.50000000E-01  8.50000000E-01  8.00000000E-01
  8.50000000E-01  8.50000000E-01  8.50000000E-01  8.00000000E-01  8.50000000E-01
  8.50000000E-01  8.50000000E-01  8.00000000E-01  8.50000000E-01  8.50000000E-01
  8.50000000E-01  8.00000000E-01  8.50000000E-01  8.50000000E-01  8.50000000E-01
  8.00000000E-01  8.50000000E-01  8.50000000E-01  8.50000000E-01  8.00000000E-01
  8.50000000E-01  8.50000000E-01  8.50000000E-01  8.00000000E-01  8.50000000E-01
  8.50000000E-01  8.50000000E-01  8.00000000E-01  8.50000000E-01  8.50000000E-01
  8.50000000E-01  8.00000000E-01  8.50000000E-01  8.50000000E-01  8.50000000E-01
  8.00000000E-01  8.50000000E-01  8.50000000E-01  8.50000000E-01  8.00000000E-01
  8.50000000E-01  8.50000000E-01  8.50000000E-01  8.00000000E-01  8.50000000E-01
  8.50000000E-01  8.50000000E-01  8.00000000E-01  8.50000000E-01  8.50000000E-01
  8.50000000E-01  8.00000000E-01  8.50000000E-01  8.50000000E-01  8.50000000E-01
  8.00000000E-01  8.50000000E-01  8.50000000E-01  8.50000000E-01  8.00000000E-01
  8.50000000E-01  8.50000000E-01  8.50000000E-01  8.00000000E-01  8.50000000E-01
  8.50000000E-01  8.50000000E-01  8.00000000E-01  8.50000000E-01  8.50000000E-01
  8.50000000E-01  8.00000000E-01  8.50000000E-01  8.50000000E-01  8.50000000E-01
  8.00000000E-01  8.50000000E-01  8.50000000E-01  8.50000000E-01  8.00000000E-01
  8.50000000E-01  8.50000000E-01  8.50000000E-01  8.00000000E-01  8.50000000E-01
  8.50000000E-01  8.50000000E-01  8.00000000E-01  8.50000000E-01  8.50000000E-01
  8.50000000E-01  8.00000000E-01  8.50000000E-01  8.50000000E-01  8.50000000E-01
  8.00000000E-01  8.50000000E-01  8.50000000E-01  8.50000000E-01  8.00000000E-01
  8.50000000E-01  8.50000000E-01  8.50000000E-01  8.00000000E-01  8.50000000E-01
  8.50000000E-01  8.50000000E-01  8.00000000E-01  8.50000000E-01  8.50000000E-01
  8.50000000E-01  8.00000000E-01  8.50000000E-01  8.50000000E-01  8.50000000E-01
  8.00000000E-01  8.50000000E-01  8.50000000E-01  8.50000000E-01  8.00000000E-01
  8.50000000E-01  8.50000000E-01  8.50000000E-01  8.00000000E-01  8.50000000E-01
  8.50000000E-01  8.50000000E-01  8.00000000E-01  8.50000000E-01  8.50000000E-01
  8.50000000E-01  8.00000000E-01  8.50000000E-01  8.50000000E-01  8.50000000E-01
  8.00000000E-01  8.50000000E-01  8.50000000E-01  8.50000000E-01  8.00000000E-01
  8.50000000E-01  8.50000000E-01  8.50000000E-01  8.00000000E-01  8.50000000E-01
  8.50000000E-01  8.50000000E-01  8.00000000E-01  8.50000000E-01  8.50000000E-01
  8.50000000E-01  8.00000000E-01  8.50000000E-01  8.50000000E-01  8.50000000E-01
  8.00000000E-01  8.50000000E-01  8.50000000E-01  8.50000000E-01  8.00000000E-01
  8.50000000E-01  8.50000000E-01  8.50000000E-01  8.00000000E-01  8.50000000E-01
  8.50000000E-01  8.50000000E-01  8.00000000E-01  8.50000000E-01  8.50000000E-01
  8.50000000E-01  8.00000000E-01  8.50000000E-01  8.50000000E-01  8.50000000E-01
  8.00000000E-01  8.50000000E-01  8.50000000E-01  8.50000000E-01  8.00000000E-01
  8.50000000E-01  8.50000000E-01  8.50000000E-01  8.00000000E-01  8.50000000E-01
  8.50000000E-01  8.50000000E-01  8.00000000E-01  8.50000000E-01  8.50000000E-01
  8.50000000E-01  8.00000000E-01  8.50000000E-01  8.50000000E-01  8.50000000E-01
  8.00000000E-01  8.50000000E-01  8.50000000E-01  8.50000000E-01  8.00000000E-01
  8.50000000E-01  8.50000000E-01  8.50000000E-01  8.00000000E-01  8.50000000E-01
  8.50000000E-01  8.50000000E-01  8.00000000E-01  8.50000000E-01  8.50000000E-01
  8.50000000E-01  8.00000000E-01  8.50000000E-01  8.50000000E-01  8.50000000E-01
  8.00000000E-01  8.50000000E-01  8.50000000E-01  8.50000000E-01  8.00000000E-01
  8.50000000E-01  8.50000000E-01  8.50000000E-01  8.00000000E-01  8.50000000E-01
  8.50000000E-01  8.50000000E-01  8.00000000E-01  8.50000000E-01  8.50000000E-01
  8.50000000E-01  8.00000000E-01  8.50000000E-01  8.50000000E-01  8.50000000E-01
  8.00000000E-01  8.50000000E-01  8.50000000E-01  8.50000000E-01  8.00000000E-01
  8.50000000E-01  8.50000000E-01  8.50000000E-01  8.00000000E-01  8.50000000E-01
  8.50000000E-01  8.50000000E-01  8.00000000E-01  8.50000000E-01  8.50000000E-01
  8.50000000E-01  8.00000000E-01  8.50000000E-01  8.50000000E-01  8.50000000E-01
  8.00000000E-01  8.50000000E-01  8.50000000E-01  8.50000000E-01  8.00000000E-01
  8.50000000E-01  8.50000000E-01  8.50000000E-01  8.00000000E-01  8.50000000E-01
  8.50000000E-01  8.50000000E-01  8.00000000E-01  8.50000000E-01  8.50000000E-01
  8.50000000E-01  8.00000000E-01  8.50000000E-01  8.50000000E-01  8.50000000E-01
  8.00000000E-01  8.50000000E-01  8.50000000E-01  8.50000000E-01  8.00000000E-01
  8.50000000E-01  8.50000000E-01  8.50000000E-01  8.00000000E-01  8.50000000E-01
  8.50000000E-01  8.50000000E-01  8.00000000E-01  8.50000000E-01  8.50000000E-01
  8.50000000E-01  8.00000000E-01  8.50000000E-01  8.50000000E-01  8.50000000E-01
  8.00000000E-01  8.50000000E-01  8.50000000E-01  8.50000000E-01  8.00000000E-01
  8.50000000E-01  8.50000000E-01  8.50000000E-01  8.00000000E-01  8.50000000E-01
  8.50000000E-01  8.50000000E-01  8.00000000E-01  8.50000000E-01  8.50000000E-01
  8.50000000E-01  8.00000000E-01  8.50000000E-01  8.50000000E-01  8.50000000E-01
  8.00000000E-01  8.50000000E-01  8.50000000E-01  8.50000000E-01  8.00000000E-01
  8.50000000E-01  8.50000000E-01  8.50000000E-01  8.00000000E-01  8.50000000E-01
  8.50000000E-01  8.50000000E-01  8.00000000E-01  8.50000000E-01  8.50000000E-01
  8.50000000E-01  8.00000000E-01  8.50000000E-01  8.50000000E-01  8.50000000E-01
  8.00000000E-01  8.50000000E-01  8.50000000E-01  8.50000000E-01  8.00000000E-01
  8.50000000E-01  8.50000000E-01  8.50000000E-01  8.00000000E-01  8.50000000E-01
  8.50000000E-01  8.50000000E-01  8.00000000E-01  8.50000000E-01  8.50000000E-01
  8.50000000E-01  8.00000000E-01  8.50000000E-01  8.50000000E-01  8.50000000E-01
  8.00000000E-01  8.50000000E-01  8.50000000E-01  8.50000000E-01  8.00000000E-01
  8.50000000E-01  8.50000000E-01  8.50000000E-01  8.00000000E-01  8.50000000E-01
  8.50000000E-01  8.50000000E-01  8.00000000E-01  8.50000000E-01  8.50000000E-01
  8.50000000E-01  8.00000000E-01  8.50000000E-01  8.50000000E-01  8.50000000E-01
  8.00000000E-01  8.50000000E-01  8.50000000E-01  8.50000000E-01  8.00000000E-01
  8.50000000E-01  8.50000000E-01  8.50000000E-01  8.00000000E-01  8.50000000E-01
  8.50000000E-01  8.50000000E-01  8.00000000E-01  8.50000000E-01  8.50000000E-01
  8.50000000E-01  8.00000000E-01  8.50000000E-01  8.50000000E-01  8.50000000E-01
  8.00000000E-01  8.50000000E-01  8.50000000E-01  8.50000000E-01  8.00000000E-01
  8.50000000E-01  8.50000000E-01  8.50000000E-01  8.00000000E-01  8.50000000E-01
  8.50000000E-01  8.50000000E-01  8.00000000E-01  8.50000000E-01  8.50000000E-01
  8.50000000E-01  8.00000000E-01  8.50000000E-01  8.50000000E-01  8.50000000E-01
  8.00000000E-01  8.50000000E-01  8.50000000E-01  8.50000000E-01  8.00000000E-01
  8.50000000E-01  8.50000000E-01  8.50000000E-01  8.00000000E-01  8.50000000E-01
  8.50000000E-01  8.50000000E-01  8.00000000E-01  8.50000000E-01  8.50000000E-01
  8.50000000E-01  8.00000000E-01  8.50000000E-01  8.50000000E-01  8.50000000E-01
  8.00000000E-01  8.50000000E-01  8.50000000E-01  8.50000000E-01  8.00000000E-01
  8.50000000E-01  8.50000000E-01  8.50000000E-01  8.00000000E-01  8.50000000E-01
  8.50000000E-01  8.50000000E-01  8.00000000E-01  8.50000000E-01  8.50000000E-01
  8.50000000E-01  8.00000000E-01  8.50000000E-01  8.50000000E-01  8.50000000E-01
  8.00000000E-01  8.50000000E-01  8.50000000E-01  8.50000000E-01  8.00000000E-01
  8.50000000E-01  8.50000000E-01  8.50000000E-01  8.00000000E-01  8.50000000E-01
  8.50000000E-01  8.50000000E-01  8.00000000E-01  8.50000000E-01  8.50000000E-01
  8.50000000E-01  8.00000000E-01  8.50000000E-01  8.50000000E-01  8.50000000E-01
  8.00000000E-01  8.50000000E-01  8.50000000E-01  8.50000000E-01  8.00000000E-01
  8.50000000E-01  8.50000000E-01  8.50000000E-01  8.00000000E-01  8.50000000E-01
  8.50000000E-01  8.50000000E-01  8.00000000E-01  8.50000000E-01  8.50000000E-01
  8.50000000E-01  8.00000000E-01  8.50000000E-01  8.50000000E-01  8.50000000E-01
  8.00000000E-01  8.50000000E-01  8.50000000E-01  8.50000000E-01  8.00000000E-01
  8.50000000E-01  8.50000000E-01  8.50000000E-01  8.00000000E-01  8.50000000E-01
  8.50000000E-01  8.50000000E-01  8.00000000E-01  8.50000000E-01  8.50000000E-01
  8.50000000E-01  8.00000000E-01  8.50000000E-01  8.50000000E-01  8.50000000E-01
  8.00000000E-01  8.50000000E-01  8.50000000E-01  8.50000000E-01  8.00000000E-01
  8.50000000E-01  8.50000000E-01  8.50000000E-01  8.00000000E-01  8.50000000E-01
  8.50000000E-01  8.50000000E-01  8.00000000E-01  8.50000000E-01  8.50000000E-01
  8.50000000E-01  8.00000000E-01  8.50000000E-01  8.50000000E-01  8.50000000E-01
  8.00000000E-01  8.50000000E-01  8.50000000E-01  8.50000000E-01  8.00000000E-01
  8.50000000E-01  8.50000000E-01  8.50000000E-01  8.00000000E-01  8.50000000E-01
  8.50000000E-01  8.50000000E-01  8.00000000E-01  8.50000000E-01  8.50000000E-01
  8.50000000E-01  8.00000000E-01  8.50000000E-01  8.50000000E-01  8.50000000E-01
  8.00000000E-01  8.50000000E-01  8.50000000E-01  8.50000000E-01  8.00000000E-01
  8.50000000E-01  8.50000000E-01  8.50000000E-01  8.00000000E-01  8.50000000E-01
  8.50000000E-01  8.50000000E-01  8.00000000E-01  8.50000000E-01  8.50000000E-01
  8.50000000E-01  8.00000000E-01  8.50000000E-01  8.50000000E-01  8.50000000E-01
  8.00000000E-01  8.50000000E-01  8.50000000E-01  8.50000000E-01  8.00000000E-01
  8.50000000E-01  8.50000000E-01  8.50000000E-01  8.00000000E-01  8.50000000E-01
  8.50000000E-01  8.50000000E-01  8.00000000E-01  8.50000000E-01  8.50000000E-01
  8.50000000E-01  8.00000000E-01  8.50000000E-01  8.50000000E-01  8.50000000E-01
  8.00000000E-01  8.50000000E-01  8.50000000E-01  8.50000000E-01  8.00000000E-01
  8.50000000E-01  8.50000000E-01  8.50000000E-01  8.00000000E-01  8.50000000E-01
  8.50000000E-01  8.50000000E-01  8.00000000E-01  8.50000000E-01  8.50000000E-01
  8.50000000E-01  8.00000000E-01  8.50000000E-01  8.50000000E-01  8.50000000E-01
  8.00000000E-01  8.50000000E-01  8.50000000E-01  8.50000000E-01  8.00000000E-01
  8.50000000E-01  8.50000000E-01  8.50000000E-01  8.00000000E-01  8.50000000E-01
  8.50000000E-01  8.50000000E-01  8.00000000E-01  8.50000000E-01  8.50000000E-01
  8.50000000E-01  8.00000000E-01  8.50000000E-01  8.50000000E-01  8.50000000E-01
  8.00000000E-01  8.50000000E-01  8.50000000E-01  8.50000000E-01  8.00000000E-01
  8.50000000E-01  8.50000000E-01  8.50000000E-01  8.00000000E-01  8.50000000E-01
  8.50000000E-01  8.50000000E-01  8.00000000E-01  8.50000000E-01  8.50000000E-01
  8.50000000E-01  8.00000000E-01  8.50000000E-01  8.50000000E-01  8.50000000E-01
  8.00000000E-01  8.50000000E-01  8.50000000E-01  8.50000000E-01  8.00000000E-01
  8.50000000E-01  8.50000000E-01  8.50000000E-01  8.00000000E-01  8.50000000E-01
  8.50000000E-01  8.50000000E-01  8.00000000E-01  8.50000000E-01  8.50000000E-01
  8.50000000E-01  8.00000000E-01  8.50000000E-01  8.50000000E-01  8.50000000E-01
  8.00000000E-01  8.50000000E-01  8.50000000E-01  8.50000000E-01  8.00000000E-01
  8.50000000E-01  8.50000000E-01  8.50000000E-01  8.00000000E-01  8.50000000E-01
  8.50000000E-01  8.50000000E-01  8.00000000E-01  8.50000000E-01  8.50000000E-01
  8.50000000E-01  8.00000000E-01  8.50000000E-01  8.50000000E-01  8.50000000E-01
  8.00000000E-01  8.50000000E-01  8.50000000E-01  8.50000000E-01  8.00000000E-01
  8.50000000E-01  8.50000000E-01  8.50000000E-01  8.00000000E-01  8.50000000E-01
  8.50000000E-01  8.50000000E-01  8.00000000E-01  8.50000000E-01  8.50000000E-01
  8.50000000E-01  8.00000000E-01  8.50000000E-01  8.50000000E-01  8.50000000E-01
  8.00000000E-01  8.50000000E-01  8.50000000E-01  8.50000000E-01  8.00000000E-01
  8.50000000E-01  8.50000000E-01  8.50000000E-01  8.00000000E-01  8.50000000E-01
  8.50000000E-01  8.50000000E-01  8.00000000E-01  8.50000000E-01  8.50000000E-01
  8.50000000E-01  8.00000000E-01  8.50000000E-01  8.50000000E-01  8.50000000E-01
  8.00000000E-01  8.50000000E-01  8.50000000E-01  8.50000000E-01  8.00000000E-01
  8.50000000E-01  8.50000000E-01  8.50000000E-01  8.00000000E-01  8.50000000E-01
  8.50000000E-01  8.50000000E-01  8.00000000E-01  8.50000000E-01  8.50000000E-01
  8.50000000E-01  8.00000000E-01  8.50000000E-01  8.50000000E-01  8.50000000E-01
  8.00000000E-01  8.50000000E-01  8.50000000E-01  8.50000000E-01  8.00000000E-01
  8.50000000E-01  8.50000000E-01  8.50000000E-01  8.00000000E-01  8.50000000E-01
  8.50000000E-01  8.50000000E-01  8.00000000E-01  8.50000000E-01  8.50000000E-01
  8.50000000E-01  8.00000000E-01  8.50000000E-01  8.50000000E-01  8.50000000E-01
  8.00000000E-01  8.50000000E-01  8.50000000E-01  8.50000000E-01  8.00000000E-01
  8.50000000E-01  8.50000000E-01  8.50000000E-01  8.00000000E-01  8.50000000E-01
  8.50000000E-01  8.50000000E-01  8.00000000E-01  8.50000000E-01  8.50000000E-01
  8.50000000E-01  8.00000000E-01  8.50000000E-01  8.50000000E-01  8.50000000E-01
  8.00000000E-01  8.50000000E-01  8.50000000E-01  8.50000000E-01  8.00000000E-01
  8.50000000E-01  8.50000000E-01  8.50000000E-01  8.00000000E-01  8.50000000E-01
  8.50000000E-01  8.50000000E-01  8.00000000E-01  8.50000000E-01  8.50000000E-01
  8.50000000E-01  8.00000000E-01  8.50000000E-01  8.50000000E-01  8.50000000E-01
  8.00000000E-01  8.50000000E-01  8.50000000E-01  8.50000000E-01  8.00000000E-01
  8.50000000E-01  8.50000000E-01  8.50000000E-01  8.00000000E-01  8.50000000E-01
  8.50000000E-01  8.50000000E-01  8.00000000E-01  8.50000000E-01  8.50000000E-01
  8.50000000E-01  8.00000000E-01  8.50000000E-01  8.50000000E-01  8.50000000E-01
  8.00000000E-01  8.50000000E-01  8.50000000E-01  8.50000000E-01  8.00000000E-01
  8.50000000E-01  8.50000000E-01  8.50000000E-01  8.00000000E-01  8.50000000E-01
  8.50000000E-01  8.50000000E-01  8.00000000E-01  8.50000000E-01  8.50000000E-01
  8.50000000E-01  8.00000000E-01  8.50000000E-01  8.50000000E-01  8.50000000E-01
  8.00000000E-01  8.50000000E-01  8.50000000E-01  8.50000000E-01  8.00000000E-01
  8.50000000E-01  8.50000000E-01  8.50000000E-01  8.00000000E-01  8.50000000E-01
  8.50000000E-01  8.50000000E-01  8.00000000E-01  8.50000000E-01  8.50000000E-01
  8.50000000E-01  8.00000000E-01  8.50000000E-01  8.50000000E-01  8.50000000E-01
  8.00000000E-01  8.50000000E-01  8.50000000E-01  8.50000000E-01  8.00000000E-01
  8.50000000E-01  8.50000000E-01  8.50000000E-01  8.00000000E-01  8.50000000E-01
  8.50000000E-01  8.50000000E-01  8.00000000E-01  8.50000000E-01  8.50000000E-01
  8.50000000E-01  8.00000000E-01  8.50000000E-01  8.50000000E-01  8.50000000E-01
  8.00000000E-01  8.50000000E-01  8.50000000E-01  8.50000000E-01  8.00000000E-01
  8.50000000E-01  8.50000000E-01  8.50000000E-01  8.00000000E-01  8.50000000E-01
  8.50000000E-01  8.50000000E-01  8.00000000E-01  8.50000000E-01  8.50000000E-01
  8.50000000E-01  8.00000000E-01  8.50000000E-01  8.50000000E-01  8.50000000E-01
  8.00000000E-01  8.50000000E-01  8.50000000E-01  8.50000000E-01  8.00000000E-01
  8.50000000E-01  8.50000000E-01  8.50000000E-01  8.00000000E-01  8.50000000E-01
  8.50000000E-01  8.50000000E-01  8.00000000E-01  8.50000000E-01  8.50000000E-01
  8.50000000E-01  8.00000000E-01  8.50000000E-01  8.50000000E-01  8.50000000E-01
  8.00000000E-01  8.50000000E-01  8.50000000E-01  8.50000000E-01  8.00000000E-01
  8.50000000E-01  8.50000000E-01  8.50000000E-01  8.00000000E-01  8.50000000E-01
  8.50000000E-01  8.50000000E-01  8.00000000E-01  8.50000000E-01  8.50000000E-01
  8.50000000E-01  8.00000000E-01  8.50000000E-01  8.50000000E-01  8.50000000E-01
  8.00000000E-01  8.50000000E-01  8.50000000E-01  8.50000000E-01  8.00000000E-01
  8.50000000E-01  8.50000000E-01  8.50000000E-01  8.00000000E-01  8.50000000E-01
  8.50000000E-01  8.50000000E-01  8.00000000E-01  8.50000000E-01  8.50000000E-01
  8.50000000E-01  8.00000000E-01  8.50000000E-01  8.50000000E-01  8.50000000E-01
  8.00000000E-01  8.50000000E-01  8.50000000E-01  8.50000000E-01  8.00000000E-01
  8.50000000E-01  8.50000000E-01  8.50000000E-01  8.00000000E-01  8.50000000E-01
  8.50000000E-01  8.50000000E-01  8.00000000E-01  8.50000000E-01  8.50000000E-01
  8.50000000E-01  8.00000000E-01  8.50000000E-01  8.50000000E-01  8.50000000E-01
  8.00000000E-01  8.50000000E-01  8.50000000E-01  8.50000000E-01  8.00000000E-01
  8.50000000E-01  8.50000000E-01  8.50000000E-01  8.00000000E-01  8.50000000E-01
  8.50000000E-01  8.50000000E-01  8.00000000E-01  8.50000000E-01  8.50000000E-01
  8.50000000E-01  8.00000000E-01  8.50000000E-01  8.50000000E-01  8.50000000E-01
  8.00000000E-01  8.50000000E-01  8.50000000E-01  8.50000000E-01  8.00000000E-01
  8.50000000E-01  8.50000000E-01  8.50000000E-01  8.00000000E-01  8.50000000E-01
  8.50000000E-01  8.50000000E-01  8.00000000E-01  8.50000000E-01  8.50000000E-01
  8.50000000E-01  8.00000000E-01  8.50000000E-01  8.50000000E-01  8.50000000E-01
  8.00000000E-01  8.50000000E-01  8.50000000E-01  8.50000000E-01  8.00000000E-01
  8.50000000E-01  8.50000000E-01  8.50000000E-01  8.00000000E-01  8.50000000E-01
  8.50000000E-01  8.50000000E-01  8.00000000E-01  8.50000000E-01  8.50000000E-01
  8.50000000E-01  8.00000000E-01  8.50000000E-01  8.50000000E-01  8.50000000E-01
  8.00000000E-01  8.50000000E-01  8.50000000E-01  8.50000000E-01  8.00000000E-01
  8.50000000E-01  8.50000000E-01  8.50000000E-01  8.00000000E-01  8.50000000E-01
  8.50000000E-01  8.50000000E-01  8.00000000E-01  8.50000000E-01  8.50000000E-01
  8.50000000E-01  8.00000000E-01  8.50000000E-01  8.50000000E-01  8.50000000E-01
  8.00000000E-01  8.50000000E-01  8.50000000E-01  8.50000000E-01  8.00000000E-01
  8.50000000E-01  8.50000000E-01  8.50000000E-01  8.00000000E-01  8.50000000E-01
  8.50000000E-01  8.50000000E-01  8.00000000E-01  8.50000000E-01  8.50000000E-01
  8.50000000E-01  8.00000000E-01  8.50000000E-01  8.50000000E-01  8.50000000E-01
  8.00000000E-01  8.50000000E-01  8.50000000E-01  8.50000000E-01  8.00000000E-01
  8.50000000E-01  8.50000000E-01  8.50000000E-01  8.00000000E-01  8.50000000E-01
  8.50000000E-01  8.50000000E-01  8.00000000E-01  8.50000000E-01  8.50000000E-01
  8.50000000E-01  8.00000000E-01  8.50000000E-01  8.50000000E-01  8.50000000E-01
  8.00000000E-01  8.50000000E-01  8.50000000E-01  8.50000000E-01  8.00000000E-01
  8.50000000E-01  8.50000000E-01  8.50000000E-01  8.00000000E-01  8.50000000E-01
  8.50000000E-01  8.50000000E-01  8.00000000E-01  8.50000000E-01  8.50000000E-01
  8.50000000E-01  8.00000000E-01  8.50000000E-01  8.50000000E-01  8.50000000E-01
  8.00000000E-01  8.50000000E-01  8.50000000E-01  8.50000000E-01  8.00000000E-01
  8.50000000E-01  8.50000000E-01  8.50000000E-01  8.00000000E-01  8.50000000E-01
  8.50000000E-01  8.50000000E-01  8.00000000E-01  8.50000000E-01  8.50000000E-01
  8.50000000E-01  8.00000000E-01  8.50000000E-01  8.50000000E-01  8.50000000E-01
  8.00000000E-01  8.50000000E-01  8.50000000E-01  8.50000000E-01  8.00000000E-01
  8.50000000E-01  8.50000000E-01  8.50000000E-01  8.00000000E-01  8.50000000E-01
  8.50000000E-01  8.50000000E-01  8.00000000E-01  8.50000000E-01  8.50000000E-01
  8.50000000E-01  8.00000000E-01  8.50000000E-01  8.50000000E-01  8.50000000E-01
  8.00000000E-01  8.50000000E-01  8.50000000E-01  8.50000000E-01  8.00000000E-01
  8.50000000E-01  8.50000000E-01  8.50000000E-01  8.00000000E-01  8.50000000E-01
  8.50000000E-01  8.50000000E-01  8.00000000E-01  8.50000000E-01  8.50000000E-01
  8.50000000E-01  8.00000000E-01  8.50000000E-01  8.50000000E-01  8.50000000E-01
  8.00000000E-01  8.50000000E-01  8.50000000E-01  8.50000000E-01  8.00000000E-01
  8.50000000E-01  8.50000000E-01  8.50000000E-01  8.00000000E-01  8.50000000E-01
  8.50000000E-01  8.50000000E-01  8.00000000E-01  8.50000000E-01  8.50000000E-01
  8.50000000E-01  8.00000000E-01  8.50000000E-01  8.50000000E-01  8.50000000E-01
  8.00000000E-01  8.50000000E-01  8.50000000E-01  8.50000000E-01  8.00000000E-01
  8.50000000E-01  8.50000000E-01  8.50000000E-01  8.00000000E-01  8.50000000E-01
  8.50000000E-01  8.50000000E-01  8.00000000E-01  8.50000000E-01  8.50000000E-01
  8.50000000E-01  8.00000000E-01  8.50000000E-01  8.50000000E-01  8.50000000E-01
  8.00000000E-01  8.50000000E-01  8.50000000E-01  8.50000000E-01  8.00000000E-01
  8.50000000E-01  8.50000000E-01  8.50000000E-01  8.00000000E-01  8.50000000E-01
  8.50000000E-01  8.50000000E-01  8.00000000E-01  8.50000000E-01  8.50000000E-01
  8.50000000E-01  8.00000000E-01  8.50000000E-01  8.50000000E-01  8.50000000E-01
  8.00000000E-01  8.50000000E-01  8.50000000E-01  8.50000000E-01  8.00000000E-01
  8.50000000E-01  8.50000000E-01  8.50000000E-01  8.00000000E-01  8.50000000E-01
  8.50000000E-01  8.50000000E-01  8.00000000E-01  8.50000000E-01  8.50000000E-01
  8.50000000E-01  8.00000000E-01  8.50000000E-01  8.50000000E-01  8.50000000E-01
  8.00000000E-01  8.50000000E-01  8.50000000E-01  8.50000000E-01  8.00000000E-01
  8.50000000E-01  8.50000000E-01  8.50000000E-01  8.00000000E-01  8.50000000E-01
  8.50000000E-01  8.50000000E-01  8.00000000E-01  8.50000000E-01  8.50000000E-01
  8.50000000E-01  8.00000000E-01  8.50000000E-01  8.50000000E-01  8.50000000E-01
  8.00000000E-01  8.50000000E-01  8.50000000E-01  8.50000000E-01  8.00000000E-01
  8.50000000E-01  8.50000000E-01  8.50000000E-01  8.00000000E-01  8.50000000E-01
  8.50000000E-01  8.50000000E-01  8.00000000E-01  8.50000000E-01  8.50000000E-01
  8.50000000E-01  8.00000000E-01  8.50000000E-01  8.50000000E-01  8.50000000E-01
  8.00000000E-01  8.50000000E-01  8.50000000E-01  8.50000000E-01  8.00000000E-01
  8.50000000E-01  8.50000000E-01  8.50000000E-01  8.00000000E-01  8.50000000E-01
  8.50000000E-01  8.50000000E-01  8.00000000E-01  8.50000000E-01  8.50000000E-01
  8.50000000E-01  8.00000000E-01  8.50000000E-01  8.50000000E-01  8.50000000E-01
  8.00000000E-01  8.50000000E-01  8.50000000E-01  8.50000000E-01  8.00000000E-01
  8.50000000E-01  8.50000000E-01  8.50000000E-01  8.00000000E-01  8.50000000E-01
  8.50000000E-01  8.50000000E-01  8.00000000E-01  8.50000000E-01  8.50000000E-01
  8.50000000E-01  8.00000000E-01  8.50000000E-01  8.50000000E-01  8.50000000E-01
  8.00000000E-01  8.50000000E-01  8.50000000E-01  8.50000000E-01  8.00000000E-01
  8.50000000E-01  8.50000000E-01  8.50000000E-01  8.00000000E-01  8.50000000E-01
  8.50000000E-01  8.50000000E-01  8.00000000E-01  8.50000000E-01  8.50000000E-01
  8.50000000E-01  8.00000000E-01  8.50000000E-01  8.50000000E-01  8.50000000E-01
  8.00000000E-01  8.50000000E-01  8.50000000E-01  8.50000000E-01  8.00000000E-01
  8.50000000E-01  8.50000000E-01  8.50000000E-01  8.00000000E-01  8.50000000E-01
  8.50000000E-01  8.50000000E-01  8.00000000E-01  8.50000000E-01  8.50000000E-01
  8.50000000E-01  8.00000000E-01  8.50000000E-01  8.50000000E-01  8.50000000E-01
  8.00000000E-01  8.50000000E-01  8.50000000E-01  8.50000000E-01  8.00000000E-01
  8.50000000E-01  8.50000000E-01  8.50000000E-01  8.00000000E-01  8.50000000E-01
  8.50000000E-01  8.50000000E-01  8.00000000E-01  8.50000000E-01  8.50000000E-01
  8.50000000E-01  8.00000000E-01  8.50000000E-01  8.50000000E-01  8.50000000E-01
  8.00000000E-01  8.50000000E-01  8.50000000E-01  8.50000000E-01  8.00000000E-01
  8.50000000E-01  8.50000000E-01  8.50000000E-01  8.00000000E-01  8.50000000E-01
  8.50000000E-01  8.50000000E-01  8.00000000E-01  8.50000000E-01  8.50000000E-01
  8.50000000E-01  8.00000000E-01  8.50000000E-01  8.50000000E-01  8.50000000E-01
  8.00000000E-01  8.50000000E-01  8.50000000E-01  8.50000000E-01  8.00000000E-01
  8.50000000E-01  8.50000000E-01  8.50000000E-01  8.00000000E-01  8.50000000E-01
  8.50000000E-01  8.50000000E-01  8.00000000E-01  8.50000000E-01  8.50000000E-01
  8.50000000E-01  8.00000000E-01  8.50000000E-01  8.50000000E-01  8.50000000E-01
  8.00000000E-01  8.50000000E-01  8.50000000E-01  8.50000000E-01  8.00000000E-01
  8.50000000E-01  8.50000000E-01  8.50000000E-01  8.00000000E-01  8.50000000E-01
  8.50000000E-01  8.50000000E-01  8.00000000E-01  8.50000000E-01  8.50000000E-01
  8.50000000E-01  8.00000000E-01  8.50000000E-01  8.50000000E-01  8.50000000E-01
  8.00000000E-01  8.50000000E-01  8.50000000E-01  8.50000000E-01  8.00000000E-01
  8.50000000E-01  8.50000000E-01  8.50000000E-01  8.00000000E-01  8.50000000E-01
  8.50000000E-01  8.50000000E-01  8.00000000E-01  8.50000000E-01  8.50000000E-01
  8.50000000E-01  8.00000000E-01  8.50000000E-01  8.50000000E-01  8.50000000E-01
  8.00000000E-01  8.50000000E-01  8.50000000E-01  8.50000000E-01  8.00000000E-01
  8.50000000E-01  8.50000000E-01  8.50000000E-01  8.00000000E-01  8.50000000E-01
  8.50000000E-01  8.50000000E-01  8.00000000E-01  8.50000000E-01  8.50000000E-01
  8.50000000E-01  8.00000000E-01  8.50000000E-01  8.50000000E-01  8.50000000E-01
  8.00000000E-01  8.50000000E-01  8.50000000E-01  8.50000000E-01  8.00000000E-01
  8.50000000E-01  8.50000000E-01  8.50000000E-01  8.00000000E-01  8.50000000E-01
  8.50000000E-01  8.50000000E-01  8.00000000E-01  8.50000000E-01  8.50000000E-01
  8.50000000E-01  8.00000000E-01  8.50000000E-01  8.50000000E-01  8.50000000E-01
  8.00000000E-01  8.50000000E-01  8.50000000E-01  8.50000000E-01  8.00000000E-01
  8.50000000E-01  8.50000000E-01  8.50000000E-01  8.00000000E-01  8.50000000E-01
  8.50000000E-01  8.50000000E-01  8.00000000E-01  8.50000000E-01  8.50000000E-01
  8.50000000E-01  8.00000000E-01  8.50000000E-01  8.50000000E-01  8.50000000E-01
  8.00000000E-01  8.50000000E-01  8.50000000E-01  8.50000000E-01  8.00000000E-01
  8.50000000E-01  8.50000000E-01  8.50000000E-01  8.00000000E-01  8.50000000E-01
  8.50000000E-01  8.50000000E-01  8.00000000E-01  8.50000000E-01  8.50000000E-01
  8.50000000E-01  8.00000000E-01  8.50000000E-01  8.50000000E-01  8.50000000E-01
  8.00000000E-01  8.50000000E-01  8.50000000E-01  8.50000000E-01  8.00000000E-01
  8.50000000E-01  8.50000000E-01  8.50000000E-01  8.00000000E-01  8.50000000E-01
  8.50000000E-01  8.50000000E-01  8.00000000E-01  8.50000000E-01  8.50000000E-01
  8.50000000E-01  8.00000000E-01  8.50000000E-01  8.50000000E-01  8.50000000E-01
  8.00000000E-01  8.50000000E-01  8.50000000E-01  8.50000000E-01  8.00000000E-01
  8.50000000E-01  8.50000000E-01  8.50000000E-01  8.00000000E-01  8.50000000E-01
  8.50000000E-01  8.50000000E-01  8.00000000E-01  8.50000000E-01  8.50000000E-01
  8.50000000E-01  8.00000000E-01  8.50000000E-01  8.50000000E-01  8.50000000E-01
  8.00000000E-01  8.50000000E-01  8.50000000E-01  8.50000000E-01  8.00000000E-01
  8.50000000E-01  8.50000000E-01  8.50000000E-01  8.00000000E-01  8.50000000E-01
  8.50000000E-01  8.50000000E-01  8.00000000E-01  8.50000000E-01  8.50000000E-01
  8.50000000E-01  8.00000000E-01  8.50000000E-01  8.50000000E-01  8.50000000E-01
  8.00000000E-01  8.50000000E-01  8.50000000E-01  8.50000000E-01  8.00000000E-01
  8.50000000E-01  8.50000000E-01  8.50000000E-01  8.00000000E-01  8.50000000E-01
  8.50000000E-01  8.50000000E-01  8.00000000E-01  8.50000000E-01  8.50000000E-01
  8.50000000E-01  8.00000000E-01  8.50000000E-01  8.50000000E-01  8.50000000E-01
  8.00000000E-01  8.50000000E-01  8.50000000E-01  8.50000000E-01  8.00000000E-01
  8.50000000E-01  8.50000000E-01  8.50000000E-01  8.00000000E-01  8.50000000E-01
  8.50000000E-01  8.50000000E-01  8.00000000E-01  8.50000000E-01  8.50000000E-01
  8.50000000E-01  8.00000000E-01  8.50000000E-01  8.50000000E-01  8.50000000E-01
  8.00000000E-01  8.50000000E-01  8.50000000E-01  8.50000000E-01  8.00000000E-01
  8.50000000E-01  8.50000000E-01  8.50000000E-01  8.00000000E-01  8.50000000E-01
  8.50000000E-01  8.50000000E-01  8.00000000E-01  8.50000000E-01  8.50000000E-01
  8.50000000E-01  8.00000000E-01  8.50000000E-01  8.50000000E-01  8.50000000E-01
  8.00000000E-01  8.50000000E-01  8.50000000E-01  8.50000000E-01  8.00000000E-01
  8.50000000E-01  8.50000000E-01  8.50000000E-01  8.00000000E-01  8.50000000E-01
  8.50000000E-01  8.50000000E-01  8.00000000E-01  8.50000000E-01  8.50000000E-01
  8.50000000E-01  8.00000000E-01  8.50000000E-01  8.50000000E-01  8.50000000E-01
  8.00000000E-01  8.50000000E-01  8.50000000E-01  8.50000000E-01  8.00000000E-01
  8.50000000E-01  8.50000000E-01  8.50000000E-01  8.00000000E-01  8.50000000E-01
  8.50000000E-01  8.50000000E-01  8.00000000E-01  8.50000000E-01  8.50000000E-01
  8.50000000E-01  8.00000000E-01  8.50000000E-01  8.50000000E-01  8.50000000E-01
  8.00000000E-01  8.50000000E-01  8.50000000E-01  8.50000000E-01  8.00000000E-01
  8.50000000E-01  8.50000000E-01  8.50000000E-01  8.00000000E-01  8.50000000E-01
  8.50000000E-01  8.50000000E-01  8.00000000E-01  8.50000000E-01  8.50000000E-01
  8.50000000E-01  8.00000000E-01  8.50000000E-01  8.50000000E-01  8.50000000E-01
  8.00000000E-01  8.50000000E-01  8.50000000E-01  8.50000000E-01  8.00000000E-01
  8.50000000E-01  8.50000000E-01  8.50000000E-01  8.00000000E-01  8.50000000E-01
  8.50000000E-01  8.50000000E-01  8.00000000E-01  8.50000000E-01  8.50000000E-01
  8.50000000E-01  8.00000000E-01  8.50000000E-01  8.50000000E-01  8.50000000E-01
  8.00000000E-01  8.50000000E-01  8.50000000E-01  8.50000000E-01  8.00000000E-01
  8.50000000E-01  8.50000000E-01  8.50000000E-01  8.00000000E-01  8.50000000E-01
  8.50000000E-01  8.50000000E-01  8.00000000E-01  8.50000000E-01  8.50000000E-01
  8.50000000E-01  8.00000000E-01  8.50000000E-01  8.50000000E-01  8.50000000E-01
  8.00000000E-01  8.50000000E-01  8.50000000E-01  8.50000000E-01  8.00000000E-01
  8.50000000E-01  8.50000000E-01  8.50000000E-01  8.00000000E-01  8.50000000E-01
  8.50000000E-01  8.50000000E-01  8.00000000E-01  8.50000000E-01  8.50000000E-01
  8.50000000E-01  8.00000000E-01  8.50000000E-01  8.50000000E-01  8.50000000E-01
  8.00000000E-01  8.50000000E-01  8.50000000E-01  8.50000000E-01  8.00000000E-01
  8.50000000E-01  8.50000000E-01  8.50000000E-01  8.00000000E-01  8.50000000E-01
  8.50000000E-01  8.50000000E-01  8.00000000E-01  8.50000000E-01  8.50000000E-01
  8.50000000E-01  8.00000000E-01  8.50000000E-01  8.50000000E-01  8.50000000E-01
  8.00000000E-01  8.50000000E-01  8.50000000E-01  8.50000000E-01  8.00000000E-01
  8.50000000E-01  8.50000000E-01  8.50000000E-01  8.00000000E-01  8.50000000E-01
  8.50000000E-01  8.50000000E-01  8.00000000E-01  8.50000000E-01  8.50000000E-01
  8.50000000E-01  8.00000000E-01  8.50000000E-01  8.50000000E-01  8.50000000E-01
  8.00000000E-01  8.50000000E-01  8.50000000E-01  8.50000000E-01  8.00000000E-01
  8.50000000E-01  8.50000000E-01  8.50000000E-01  8.00000000E-01  8.50000000E-01
  8.50000000E-01  8.50000000E-01  8.00000000E-01  8.50000000E-01  8.50000000E-01
  8.50000000E-01  8.00000000E-01  8.50000000E-01  8.50000000E-01  8.50000000E-01
  8.00000000E-01  8.50000000E-01  8.50000000E-01  8.50000000E-01  8.00000000E-01
  8.50000000E-01  8.50000000E-01  8.50000000E-01  8.00000000E-01  8.50000000E-01
  8.50000000E-01  8.50000000E-01  8.00000000E-01  8.50000000E-01  8.50000000E-01
  8.50000000E-01  8.00000000E-01  8.50000000E-01  8.50000000E-01  8.50000000E-01
  8.00000000E-01  8.50000000E-01  8.50000000E-01  8.50000000E-01  8.00000000E-01
  8.50000000E-01  8.50000000E-01  8.50000000E-01  8.00000000E-01  8.50000000E-01
  8.50000000E-01  8.50000000E-01  8.00000000E-01  8.50000000E-01  8.50000000E-01
  8.50000000E-01  8.00000000E-01  8.50000000E-01  8.50000000E-01  8.50000000E-01
  8.00000000E-01  8.50000000E-01  8.50000000E-01  8.50000000E-01  8.00000000E-01
  8.50000000E-01  8.50000000E-01  8.50000000E-01  8.00000000E-01  8.50000000E-01
  8.50000000E-01  8.50000000E-01  8.00000000E-01  8.50000000E-01  8.50000000E-01
  8.50000000E-01  8.00000000E-01  8.50000000E-01  8.50000000E-01  8.50000000E-01
  8.00000000E-01  8.50000000E-01  8.50000000E-01  8.50000000E-01  8.00000000E-01
  8.50000000E-01  8.50000000E-01  8.50000000E-01  8.00000000E-01  8.50000000E-01
  8.50000000E-01  8.50000000E-01  8.00000000E-01  8.50000000E-01  8.50000000E-01
  8.50000000E-01  8.00000000E-01  8.50000000E-01  8.50000000E-01  8.50000000E-01
  8.00000000E-01  8.50000000E-01  8.50000000E-01  8.50000000E-01  8.00000000E-01
  8.50000000E-01  8.50000000E-01  8.50000000E-01  8.00000000E-01  8.50000000E-01
  8.50000000E-01  8.50000000E-01  8.00000000E-01  8.50000000E-01  8.50000000E-01
  8.50000000E-01  8.00000000E-01  8.50000000E-01  8.50000000E-01  8.50000000E-01
  8.00000000E-01  8.50000000E-01  8.50000000E-01  8.50000000E-01  8.00000000E-01
  8.50000000E-01  8.50000000E-01  8.50000000E-01  8.00000000E-01  8.50000000E-01
  8.50000000E-01  8.50000000E-01  8.00000000E-01  8.50000000E-01  8.50000000E-01
  8.50000000E-01  8.00000000E-01  8.50000000E-01  8.50000000E-01  8.50000000E-01
  8.00000000E-01  8.50000000E-01  8.50000000E-01  8.50000000E-01  8.00000000E-01
  8.50000000E-01  8.50000000E-01  8.50000000E-01  8.00000000E-01  8.50000000E-01
  8.50000000E-01  8.50000000E-01  8.00000000E-01  8.50000000E-01  8.50000000E-01
  8.50000000E-01  8.00000000E-01  8.50000000E-01  8.50000000E-01  8.50000000E-01
  8.00000000E-01  8.50000000E-01  8.50000000E-01  8.50000000E-01  8.00000000E-01
  8.50000000E-01  8.50000000E-01  8.50000000E-01  8.00000000E-01  8.50000000E-01
  8.50000000E-01  8.50000000E-01  8.00000000E-01  8.50000000E-01  8.50000000E-01
  8.50000000E-01  8.00000000E-01  8.50000000E-01  8.50000000E-01  8.50000000E-01
  8.00000000E-01  8.50000000E-01  8.50000000E-01  8.50000000E-01  8.00000000E-01
  8.50000000E-01  8.50000000E-01  8.50000000E-01  8.00000000E-01  8.50000000E-01
  8.50000000E-01  8.50000000E-01  8.00000000E-01  8.50000000E-01  8.50000000E-01
  8.50000000E-01  8.00000000E-01  8.50000000E-01  8.50000000E-01  8.50000000E-01
  8.00000000E-01  8.50000000E-01  8.50000000E-01  8.50000000E-01  8.00000000E-01
  8.50000000E-01  8.50000000E-01  8.50000000E-01  8.00000000E-01  8.50000000E-01
  8.50000000E-01  8.50000000E-01  8.00000000E-01  8.50000000E-01  8.50000000E-01
  8.50000000E-01  8.00000000E-01  8.50000000E-01  8.50000000E-01  8.50000000E-01
  8.00000000E-01  8.50000000E-01  8.50000000E-01  8.50000000E-01  8.00000000E-01
  8.50000000E-01  8.50000000E-01  8.50000000E-01  8.00000000E-01  8.50000000E-01
  8.50000000E-01  8.50000000E-01  8.00000000E-01  8.50000000E-01  8.50000000E-01
  8.50000000E-01  8.00000000E-01  8.50000000E-01  8.50000000E-01  8.50000000E-01
  8.00000000E-01  8.50000000E-01  8.50000000E-01  8.50000000E-01  8.00000000E-01
  8.50000000E-01  8.50000000E-01  8.50000000E-01  8.00000000E-01  8.50000000E-01
  8.50000000E-01  8.50000000E-01  8.00000000E-01  8.50000000E-01  8.50000000E-01
  8.50000000E-01  8.00000000E-01  8.50000000E-01  8.50000000E-01  8.50000000E-01
  8.00000000E-01  8.50000000E-01  8.50000000E-01  8.50000000E-01  8.00000000E-01
  8.50000000E-01  8.50000000E-01  8.50000000E-01  8.00000000E-01  8.50000000E-01
  8.50000000E-01  8.50000000E-01  8.00000000E-01  8.50000000E-01  8.50000000E-01
  8.50000000E-01  8.00000000E-01  8.50000000E-01  8.50000000E-01  8.50000000E-01
  8.00000000E-01  8.50000000E-01  8.50000000E-01  8.50000000E-01  8.00000000E-01
  8.50000000E-01  8.50000000E-01  8.50000000E-01  8.00000000E-01  8.50000000E-01
  8.50000000E-01  8.50000000E-01  8.00000000E-01  8.50000000E-01  8.50000000E-01
  8.50000000E-01  8.00000000E-01  8.50000000E-01  8.50000000E-01  8.50000000E-01
  8.00000000E-01  8.50000000E-01  8.50000000E-01  8.50000000E-01  8.00000000E-01
  8.50000000E-01  8.50000000E-01  8.50000000E-01  8.00000000E-01  8.50000000E-01
  8.50000000E-01  8.50000000E-01  8.00000000E-01  8.50000000E-01  8.50000000E-01
  8.50000000E-01  8.00000000E-01  8.50000000E-01  8.50000000E-01  8.50000000E-01
  8.00000000E-01  8.50000000E-01  8.50000000E-01  8.50000000E-01  8.00000000E-01
  8.50000000E-01  8.50000000E-01  8.50000000E-01  8.00000000E-01  8.50000000E-01
  8.50000000E-01  8.50000000E-01  8.00000000E-01  8.50000000E-01  8.50000000E-01
  8.50000000E-01  8.00000000E-01  8.50000000E-01  8.50000000E-01  8.50000000E-01
  8.00000000E-01  8.50000000E-01  8.50000000E-01  8.50000000E-01  8.00000000E-01
  8.50000000E-01  8.50000000E-01  8.50000000E-01  8.00000000E-01  8.50000000E-01
  8.50000000E-01  8.50000000E-01  8.00000000E-01  8.50000000E-01  8.50000000E-01
  8.50000000E-01  8.00000000E-01  8.50000000E-01  8.50000000E-01  8.50000000E-01
  8.00000000E-01  8.50000000E-01  8.50000000E-01  8.50000000E-01  8.00000000E-01
  8.50000000E-01  8.50000000E-01  8.50000000E-01  8.00000000E-01  8.50000000E-01
  8.50000000E-01  8.50000000E-01  8.00000000E-01  8.50000000E-01  8.50000000E-01
  8.50000000E-01  8.00000000E-01  8.50000000E-01  8.50000000E-01  8.50000000E-01
  8.00000000E-01  8.50000000E-01  8.50000000E-01  8.50000000E-01  8.00000000E-01
  8.50000000E-01  8.50000000E-01  8.50000000E-01  8.00000000E-01  8.50000000E-01
  8.50000000E-01  8.50000000E-01  8.00000000E-01  8.50000000E-01  8.50000000E-01
  8.50000000E-01  8.00000000E-01  8.50000000E-01  8.50000000E-01  8.50000000E-01
  8.00000000E-01  8.50000000E-01  8.50000000E-01  8.50000000E-01  8.00000000E-01
  8.50000000E-01  8.50000000E-01  8.50000000E-01  8.00000000E-01  8.50000000E-01
  8.50000000E-01  8.50000000E-01  8.00000000E-01  8.50000000E-01  8.50000000E-01
  8.50000000E-01  8.00000000E-01  8.50000000E-01  8.50000000E-01  8.50000000E-01
  8.00000000E-01  8.50000000E-01  8.50000000E-01  8.50000000E-01  8.00000000E-01
  8.50000000E-01  8.50000000E-01  8.50000000E-01  8.00000000E-01  8.50000000E-01
  8.50000000E-01  8.50000000E-01  8.00000000E-01  8.50000000E-01  8.50000000E-01
  8.50000000E-01  8.00000000E-01  8.50000000E-01  8.50000000E-01  8.50000000E-01
  8.00000000E-01  8.50000000E-01  8.50000000E-01  8.50000000E-01  8.00000000E-01
  8.50000000E-01  8.50000000E-01  8.50000000E-01  8.00000000E-01  8.50000000E-01
  8.50000000E-01  8.50000000E-01  8.00000000E-01  8.50000000E-01  8.50000000E-01
  8.50000000E-01  8.00000000E-01  8.50000000E-01  8.50000000E-01  8.50000000E-01
  8.00000000E-01  8.50000000E-01  8.50000000E-01  8.50000000E-01  8.00000000E-01
  8.50000000E-01  8.50000000E-01  8.50000000E-01  8.00000000E-01  8.50000000E-01
  8.50000000E-01  8.50000000E-01  8.00000000E-01  8.50000000E-01  8.50000000E-01
  8.50000000E-01  8.00000000E-01  8.50000000E-01  8.50000000E-01  8.50000000E-01
  8.00000000E-01  8.50000000E-01  8.50000000E-01  8.50000000E-01  8.00000000E-01
  8.50000000E-01  8.50000000E-01  8.50000000E-01  8.00000000E-01  8.50000000E-01
  8.50000000E-01  8.50000000E-01  8.00000000E-01  8.50000000E-01  8.50000000E-01
  8.50000000E-01  8.00000000E-01  8.50000000E-01  8.50000000E-01  8.50000000E-01
  8.00000000E-01  8.50000000E-01  8.50000000E-01  8.50000000E-01  8.00000000E-01
  8.50000000E-01  8.50000000E-01  8.50000000E-01  8.00000000E-01  8.50000000E-01
  8.50000000E-01  8.50000000E-01  8.00000000E-01  8.50000000E-01  8.50000000E-01
  8.50000000E-01  8.00000000E-01  8.50000000E-01  8.50000000E-01  8.50000000E-01
  8.00000000E-01  8.50000000E-01  8.50000000E-01  8.50000000E-01  8.00000000E-01
  8.50000000E-01  8.50000000E-01  8.50000000E-01  8.00000000E-01  8.50000000E-01
  8.50000000E-01  8.50000000E-01  8.00000000E-01  8.50000000E-01  8.50000000E-01
  8.50000000E-01  8.00000000E-01  8.50000000E-01  8.50000000E-01  8.50000000E-01
  8.00000000E-01  8.50000000E-01  8.50000000E-01  8.50000000E-01  8.00000000E-01
  8.50000000E-01  8.50000000E-01  8.50000000E-01  8.00000000E-01  8.50000000E-01
  8.50000000E-01  8.50000000E-01  8.00000000E-01  8.50000000E-01  8.50000000E-01
  8.50000000E-01  8.00000000E-01  8.50000000E-01  8.50000000E-01  8.50000000E-01
  8.00000000E-01  8.50000000E-01  8.50000000E-01  8.50000000E-01  8.00000000E-01
  8.50000000E-01  8.50000000E-01  8.50000000E-01  8.00000000E-01  8.50000000E-01
  8.50000000E-01  8.50000000E-01  8.00000000E-01  8.50000000E-01  8.50000000E-01
  8.50000000E-01  8.00000000E-01  8.50000000E-01  8.50000000E-01  8.50000000E-01
  8.00000000E-01  8.50000000E-01  8.50000000E-01  8.50000000E-01  8.00000000E-01
  8.50000000E-01  8.50000000E-01  8.50000000E-01  8.00000000E-01  8.50000000E-01
  8.50000000E-01  8.50000000E-01  8.00000000E-01  8.50000000E-01  8.50000000E-01
  8.50000000E-01  8.00000000E-01  8.50000000E-01  8.50000000E-01  8.50000000E-01
  8.00000000E-01  8.50000000E-01  8.50000000E-01  8.50000000E-01  8.00000000E-01
  8.50000000E-01  8.50000000E-01  8.50000000E-01  8.00000000E-01  8.50000000E-01
  8.50000000E-01  8.50000000E-01  8.00000000E-01  8.50000000E-01  8.50000000E-01
  8.50000000E-01  8.00000000E-01  8.50000000E-01  8.50000000E-01  8.50000000E-01
  8.00000000E-01  8.50000000E-01  8.50000000E-01  8.50000000E-01  8.00000000E-01
  8.50000000E-01  8.50000000E-01  8.50000000E-01  8.00000000E-01  8.50000000E-01
  8.50000000E-01  8.50000000E-01  8.00000000E-01  8.50000000E-01  8.50000000E-01
  8.50000000E-01  8.00000000E-01  8.50000000E-01  8.50000000E-01  8.50000000E-01
  8.00000000E-01  8.50000000E-01  8.50000000E-01  8.50000000E-01  8.00000000E-01
  8.50000000E-01  8.50000000E-01  8.50000000E-01  8.00000000E-01  8.50000000E-01
  8.50000000E-01  8.50000000E-01  8.00000000E-01  8.50000000E-01  8.50000000E-01
  8.50000000E-01  8.00000000E-01  8.50000000E-01  8.50000000E-01  8.50000000E-01
  8.00000000E-01  8.50000000E-01  8.50000000E-01  8.50000000E-01  8.00000000E-01
  8.50000000E-01  8.50000000E-01  8.50000000E-01  8.00000000E-01  8.50000000E-01
  8.50000000E-01  8.50000000E-01  8.00000000E-01  8.50000000E-01  8.50000000E-01
  8.50000000E-01  8.00000000E-01  8.50000000E-01  8.50000000E-01  8.50000000E-01
  8.00000000E-01  8.50000000E-01  8.50000000E-01  8.50000000E-01  8.00000000E-01
  8.50000000E-01  8.50000000E-01  8.50000000E-01  8.00000000E-01  8.50000000E-01
  8.50000000E-01  8.50000000E-01  8.00000000E-01  8.50000000E-01  8.50000000E-01
  8.50000000E-01  8.00000000E-01  8.50000000E-01  8.50000000E-01  8.50000000E-01
  8.00000000E-01  8.50000000E-01  8.50000000E-01  8.50000000E-01  8.00000000E-01
  8.50000000E-01  8.50000000E-01  8.50000000E-01  8.00000000E-01  8.50000000E-01
  8.50000000E-01  8.50000000E-01  8.00000000E-01  8.50000000E-01  8.50000000E-01
  8.50000000E-01  8.00000000E-01  8.50000000E-01  8.50000000E-01  8.50000000E-01
  8.00000000E-01  8.50000000E-01  8.50000000E-01  8.50000000E-01  8.00000000E-01
  8.50000000E-01  8.50000000E-01  8.50000000E-01  8.00000000E-01  8.50000000E-01
  8.50000000E-01  8.50000000E-01  8.00000000E-01  8.50000000E-01  8.50000000E-01
  8.50000000E-01  8.00000000E-01  8.50000000E-01  8.50000000E-01  8.50000000E-01
  8.00000000E-01  8.50000000E-01  8.50000000E-01  8.50000000E-01  8.00000000E-01
  8.50000000E-01  8.50000000E-01  8.50000000E-01  8.00000000E-01  8.50000000E-01
  8.50000000E-01  8.50000000E-01  8.00000000E-01  8.50000000E-01  8.50000000E-01
  8.50000000E-01  8.00000000E-01  8.50000000E-01  8.50000000E-01  8.50000000E-01
  8.00000000E-01  8.50000000E-01  8.50000000E-01  8.50000000E-01  8.00000000E-01
  8.50000000E-01  8.50000000E-01  8.50000000E-01  8.00000000E-01  8.50000000E-01
  8.50000000E-01  8.50000000E-01  8.00000000E-01  8.50000000E-01  8.50000000E-01
  8.50000000E-01  8.00000000E-01  8.50000000E-01  8.50000000E-01  8.50000000E-01
  8.00000000E-01  8.50000000E-01  8.50000000E-01  8.50000000E-01  8.00000000E-01
  8.50000000E-01  8.50000000E-01  8.50000000E-01  8.00000000E-01  8.50000000E-01
  8.50000000E-01  8.50000000E-01  8.00000000E-01  8.50000000E-01  8.50000000E-01
  8.50000000E-01  8.00000000E-01  8.50000000E-01  8.50000000E-01  8.50000000E-01
  8.00000000E-01  8.50000000E-01  8.50000000E-01  8.50000000E-01  8.00000000E-01
  8.50000000E-01  8.50000000E-01  8.50000000E-01  8.00000000E-01  8.50000000E-01
  8.50000000E-01  8.50000000E-01  8.00000000E-01  8.50000000E-01  8.50000000E-01
  8.50000000E-01  8.00000000E-01  8.50000000E-01  8.50000000E-01  8.50000000E-01
  8.00000000E-01  8.50000000E-01  8.50000000E-01  8.50000000E-01  8.00000000E-01
  8.50000000E-01  8.50000000E-01  8.50000000E-01  8.00000000E-01  8.50000000E-01
  8.50000000E-01  8.50000000E-01  8.00000000E-01  8.50000000E-01  8.50000000E-01
  8.50000000E-01  8.00000000E-01  8.50000000E-01  8.50000000E-01  8.50000000E-01
  8.00000000E-01  8.50000000E-01  8.50000000E-01  8.50000000E-01  8.00000000E-01
  8.50000000E-01  8.50000000E-01  8.50000000E-01  8.00000000E-01  8.50000000E-01
  8.50000000E-01  8.50000000E-01  8.00000000E-01  8.50000000E-01  8.50000000E-01
  8.50000000E-01  8.00000000E-01  8.50000000E-01  8.50000000E-01  8.50000000E-01
  8.00000000E-01  8.50000000E-01  8.50000000E-01  8.50000000E-01  8.00000000E-01
  8.50000000E-01  8.50000000E-01  8.50000000E-01  8.00000000E-01  8.50000000E-01
  8.50000000E-01  8.50000000E-01  8.00000000E-01  8.50000000E-01  8.50000000E-01
  8.50000000E-01  8.00000000E-01  8.50000000E-01  8.50000000E-01  8.50000000E-01
  8.00000000E-01  8.50000000E-01  8.50000000E-01  8.50000000E-01  8.00000000E-01
  8.50000000E-01  8.50000000E-01  8.50000000E-01  8.00000000E-01  8.50000000E-01
  8.50000000E-01  8.50000000E-01  8.00000000E-01  8.50000000E-01  8.50000000E-01
  8.50000000E-01  8.00000000E-01  8.50000000E-01  8.50000000E-01  8.50000000E-01
  8.00000000E-01  8.50000000E-01  8.50000000E-01  8.50000000E-01  8.00000000E-01
  8.50000000E-01  8.50000000E-01  8.50000000E-01  8.00000000E-01  8.50000000E-01
  8.50000000E-01  8.50000000E-01  8.00000000E-01  8.50000000E-01  8.50000000E-01
  8.50000000E-01  8.00000000E-01  8.50000000E-01  8.50000000E-01  8.50000000E-01
  8.00000000E-01  8.50000000E-01  8.50000000E-01  8.50000000E-01  8.00000000E-01
  8.50000000E-01  8.50000000E-01  8.50000000E-01  8.00000000E-01  8.50000000E-01
  8.50000000E-01  8.50000000E-01  8.00000000E-01  8.50000000E-01  8.50000000E-01
  8.50000000E-01  8.00000000E-01  8.50000000E-01  8.50000000E-01  8.50000000E-01
  8.00000000E-01  8.50000000E-01  8.50000000E-01  8.50000000E-01  8.00000000E-01
  8.50000000E-01  8.50000000E-01  8.50000000E-01  8.00000000E-01  8.50000000E-01
  8.50000000E-01  8.50000000E-01  8.00000000E-01  8.50000000E-01  8.50000000E-01
  8.50000000E-01  8.00000000E-01  8.50000000E-01  8.50000000E-01  8.50000000E-01
  8.00000000E-01  8.50000000E-01  8.50000000E-01  8.50000000E-01  8.00000000E-01
  8.50000000E-01  8.50000000E-01  8.50000000E-01  8.00000000E-01  8.50000000E-01
  8.50000000E-01  8.50000000E-01  8.00000000E-01  8.50000000E-01  8.50000000E-01
  8.50000000E-01  8.00000000E-01  8.50000000E-01  8.50000000E-01  8.50000000E-01
  8.00000000E-01  8.50000000E-01  8.50000000E-01  8.50000000E-01  8.00000000E-01
  8.50000000E-01  8.50000000E-01  8.50000000E-01  8.00000000E-01  8.50000000E-01
  8.50000000E-01  8.50000000E-01  8.00000000E-01  8.50000000E-01  8.50000000E-01
  8.50000000E-01  8.00000000E-01  8.50000000E-01  8.50000000E-01  8.50000000E-01
  8.00000000E-01  8.50000000E-01  8.50000000E-01  8.50000000E-01  8.00000000E-01
  8.50000000E-01  8.50000000E-01  8.50000000E-01  8.00000000E-01  8.50000000E-01
  8.50000000E-01  8.50000000E-01  8.00000000E-01  8.50000000E-01  8.50000000E-01
  8.50000000E-01  8.00000000E-01  8.50000000E-01  8.50000000E-01  8.50000000E-01
  8.00000000E-01  8.50000000E-01  8.50000000E-01  8.50000000E-01  8.00000000E-01
  8.50000000E-01  8.50000000E-01  8.50000000E-01  8.00000000E-01  8.50000000E-01
  8.50000000E-01  8.50000000E-01  8.00000000E-01  8.50000000E-01  8.50000000E-01
  8.50000000E-01  8.00000000E-01  8.50000000E-01  8.50000000E-01  8.50000000E-01
  8.00000000E-01  8.50000000E-01  8.50000000E-01  8.50000000E-01  8.00000000E-01
  8.50000000E-01  8.50000000E-01  8.50000000E-01  8.00000000E-01  8.50000000E-01
  8.50000000E-01  8.50000000E-01  8.00000000E-01  8.50000000E-01  8.50000000E-01
  8.50000000E-01  8.00000000E-01  8.50000000E-01  8.50000000E-01  8.50000000E-01
  8.00000000E-01  8.50000000E-01  8.50000000E-01  8.50000000E-01  8.00000000E-01
  8.50000000E-01  8.50000000E-01  8.50000000E-01  8.00000000E-01  8.50000000E-01
  8.50000000E-01  8.50000000E-01  8.00000000E-01  8.50000000E-01  8.50000000E-01
  8.50000000E-01  8.00000000E-01  8.50000000E-01  8.50000000E-01  8.50000000E-01
  8.00000000E-01  8.50000000E-01  8.50000000E-01  8.50000000E-01  8.00000000E-01
  8.50000000E-01  8.50000000E-01  8.50000000E-01  8.00000000E-01  8.50000000E-01
  8.50000000E-01  8.50000000E-01  8.00000000E-01  8.50000000E-01  8.50000000E-01
  8.50000000E-01  8.00000000E-01  8.50000000E-01  8.50000000E-01  8.50000000E-01
  8.00000000E-01  8.50000000E-01  8.50000000E-01  8.50000000E-01  8.00000000E-01
  8.50000000E-01  8.50000000E-01  8.50000000E-01  8.00000000E-01  8.50000000E-01
  8.50000000E-01  8.50000000E-01  8.00000000E-01  8.50000000E-01  8.50000000E-01
  8.50000000E-01  8.00000000E-01  8.50000000E-01  8.50000000E-01  8.50000000E-01
  8.00000000E-01  8.50000000E-01  8.50000000E-01  8.50000000E-01  8.00000000E-01
  8.50000000E-01  8.50000000E-01  8.50000000E-01  8.00000000E-01  8.50000000E-01
  8.50000000E-01  8.50000000E-01  8.00000000E-01  8.50000000E-01  8.50000000E-01
  8.50000000E-01  8.00000000E-01  8.50000000E-01  8.50000000E-01  8.50000000E-01
  8.00000000E-01  8.50000000E-01  8.50000000E-01  8.50000000E-01  8.00000000E-01
  8.50000000E-01  8.50000000E-01  8.50000000E-01  8.00000000E-01  8.50000000E-01
  8.50000000E-01  8.50000000E-01  8.00000000E-01  8.50000000E-01  8.50000000E-01
  8.50000000E-01  8.00000000E-01  8.50000000E-01  8.50000000E-01  8.50000000E-01
  8.00000000E-01  8.50000000E-01  8.50000000E-01  8.50000000E-01  8.00000000E-01
  8.50000000E-01  8.50000000E-01  8.50000000E-01  8.00000000E-01  8.50000000E-01
  8.50000000E-01  8.50000000E-01  8.00000000E-01  8.50000000E-01  8.50000000E-01
  8.50000000E-01  8.00000000E-01  8.50000000E-01  8.50000000E-01  8.50000000E-01
  8.00000000E-01  8.50000000E-01  8.50000000E-01  8.50000000E-01  8.00000000E-01
  8.50000000E-01  8.50000000E-01  8.50000000E-01  8.00000000E-01  8.50000000E-01
  8.50000000E-01  8.50000000E-01  8.00000000E-01  8.50000000E-01  8.50000000E-01
  8.50000000E-01  8.00000000E-01  8.50000000E-01  8.50000000E-01  8.50000000E-01
  8.00000000E-01  8.50000000E-01  8.50000000E-01  8.50000000E-01  8.00000000E-01
  8.50000000E-01  8.50000000E-01  8.50000000E-01  8.00000000E-01  8.50000000E-01
  8.50000000E-01  8.50000000E-01  8.00000000E-01  8.50000000E-01  8.50000000E-01
  8.50000000E-01  8.00000000E-01  8.50000000E-01  8.50000000E-01  8.50000000E-01
  8.00000000E-01  8.50000000E-01  8.50000000E-01  8.50000000E-01  8.00000000E-01
  8.50000000E-01  8.50000000E-01  8.50000000E-01  8.00000000E-01  8.50000000E-01
  8.50000000E-01  8.50000000E-01  8.00000000E-01  8.50000000E-01  8.50000000E-01
  8.50000000E-01  8.00000000E-01  8.50000000E-01  8.50000000E-01  8.50000000E-01
  8.00000000E-01  8.50000000E-01  8.50000000E-01  8.50000000E-01  8.00000000E-01
  8.50000000E-01  8.50000000E-01  8.50000000E-01  8.00000000E-01  8.50000000E-01
  8.50000000E-01  8.50000000E-01  8.00000000E-01  8.50000000E-01  8.50000000E-01
  8.50000000E-01  8.00000000E-01  8.50000000E-01  8.50000000E-01  8.50000000E-01
  8.00000000E-01  8.50000000E-01  8.50000000E-01  8.50000000E-01  8.00000000E-01
  8.50000000E-01  8.50000000E-01  8.50000000E-01  8.00000000E-01  8.50000000E-01
  8.50000000E-01  8.50000000E-01  8.00000000E-01  8.50000000E-01  8.50000000E-01
  8.50000000E-01  8.00000000E-01  8.50000000E-01  8.50000000E-01  8.50000000E-01
  8.00000000E-01  8.50000000E-01  8.50000000E-01  8.50000000E-01  8.00000000E-01
  8.50000000E-01  8.50000000E-01  8.50000000E-01  8.00000000E-01  8.50000000E-01
  8.50000000E-01  8.50000000E-01  8.00000000E-01  8.50000000E-01  8.50000000E-01
  8.50000000E-01  8.00000000E-01  8.50000000E-01  8.50000000E-01  8.50000000E-01
  8.00000000E-01  8.50000000E-01  8.50000000E-01  8.50000000E-01  8.00000000E-01
  8.50000000E-01  8.50000000E-01  8.50000000E-01  8.00000000E-01  8.50000000E-01
  8.50000000E-01  8.50000000E-01  8.00000000E-01  8.50000000E-01  8.50000000E-01
  8.50000000E-01  8.00000000E-01  8.50000000E-01  8.50000000E-01  8.50000000E-01
  8.00000000E-01  8.50000000E-01  8.50000000E-01  8.50000000E-01  8.00000000E-01
  8.50000000E-01  8.50000000E-01  8.50000000E-01  8.00000000E-01  8.50000000E-01
  8.50000000E-01  8.50000000E-01  8.00000000E-01  8.50000000E-01  8.50000000E-01
  8.50000000E-01  8.00000000E-01  8.50000000E-01  8.50000000E-01  8.50000000E-01
  8.00000000E-01  8.50000000E-01  8.50000000E-01  8.50000000E-01  8.00000000E-01
  8.50000000E-01  8.50000000E-01  8.50000000E-01  8.00000000E-01  8.50000000E-01
  8.50000000E-01  8.50000000E-01  8.00000000E-01  8.50000000E-01  8.50000000E-01
  8.50000000E-01  8.00000000E-01  8.50000000E-01  8.50000000E-01  8.50000000E-01
  8.00000000E-01  8.50000000E-01  8.50000000E-01  8.50000000E-01  8.00000000E-01
  8.50000000E-01  8.50000000E-01  8.50000000E-01  8.00000000E-01  8.50000000E-01
  8.50000000E-01  8.50000000E-01  8.00000000E-01  8.50000000E-01  8.50000000E-01
  8.50000000E-01  8.00000000E-01  8.50000000E-01  8.50000000E-01  8.50000000E-01
  8.00000000E-01  8.50000000E-01  8.50000000E-01  8.50000000E-01  8.00000000E-01
  8.50000000E-01  8.50000000E-01  8.50000000E-01  8.00000000E-01  8.50000000E-01
  8.50000000E-01  8.50000000E-01  8.00000000E-01  8.50000000E-01  8.50000000E-01
  8.50000000E-01  8.00000000E-01  8.50000000E-01  8.50000000E-01  8.50000000E-01
  8.00000000E-01  8.50000000E-01  8.50000000E-01  8.50000000E-01  8.00000000E-01
  8.50000000E-01  8.50000000E-01  8.50000000E-01  8.00000000E-01  8.50000000E-01
  8.50000000E-01  8.50000000E-01  8.00000000E-01  8.50000000E-01  8.50000000E-01
  8.50000000E-01  8.00000000E-01  8.50000000E-01  8.50000000E-01  8.50000000E-01
  8.00000000E-01  8.50000000E-01  8.50000000E-01  8.50000000E-01  8.00000000E-01
  8.50000000E-01  8.50000000E-01  8.50000000E-01  8.00000000E-01  8.50000000E-01
  8.50000000E-01  8.50000000E-01  8.00000000E-01  8.50000000E-01  8.50000000E-01
  8.50000000E-01  8.00000000E-01  8.50000000E-01  8.50000000E-01  8.50000000E-01
  8.00000000E-01  8.50000000E-01  8.50000000E-01  8.50000000E-01  8.00000000E-01
  8.50000000E-01  8.50000000E-01  8.50000000E-01  8.00000000E-01  8.50000000E-01
  8.50000000E-01  8.50000000E-01  8.00000000E-01  8.50000000E-01  8.50000000E-01
  8.50000000E-01  8.00000000E-01  8.50000000E-01  8.50000000E-01  8.50000000E-01
  8.00000000E-01  8.50000000E-01  8.50000000E-01  8.50000000E-01  8.00000000E-01
  8.50000000E-01  8.50000000E-01  8.50000000E-01  8.00000000E-01  8.50000000E-01
  8.50000000E-01  8.50000000E-01  8.00000000E-01  8.50000000E-01  8.50000000E-01
  8.50000000E-01  8.00000000E-01  8.50000000E-01  8.50000000E-01  8.50000000E-01
  8.00000000E-01  8.50000000E-01  8.50000000E-01  8.50000000E-01  8.00000000E-01
  8.50000000E-01  8.50000000E-01  8.50000000E-01  8.00000000E-01  8.50000000E-01
  8.50000000E-01  8.50000000E-01  8.00000000E-01  8.50000000E-01  8.50000000E-01
  8.50000000E-01  8.00000000E-01  8.50000000E-01  8.50000000E-01  8.50000000E-01
  8.00000000E-01  8.50000000E-01  8.50000000E-01  8.50000000E-01  8.00000000E-01
  8.50000000E-01  8.50000000E-01  8.50000000E-01  8.00000000E-01  8.50000000E-01
  8.50000000E-01  8.50000000E-01  8.00000000E-01  8.50000000E-01  8.50000000E-01
  8.50000000E-01  8.00000000E-01  8.50000000E-01  8.50000000E-01  8.50000000E-01
  8.00000000E-01  8.50000000E-01  8.50000000E-01  8.50000000E-01  8.00000000E-01
  8.50000000E-01  8.50000000E-01  8.50000000E-01  8.00000000E-01  8.50000000E-01
  8.50000000E-01  8.50000000E-01  8.00000000E-01  8.50000000E-01  8.50000000E-01
  8.50000000E-01  8.00000000E-01  8.50000000E-01  8.50000000E-01  8.50000000E-01
  8.00000000E-01  8.50000000E-01  8.50000000E-01  8.50000000E-01  8.00000000E-01
  8.50000000E-01  8.50000000E-01  8.50000000E-01  8.00000000E-01  8.50000000E-01
  8.50000000E-01  8.50000000E-01  8.00000000E-01  8.50000000E-01  8.50000000E-01
  8.50000000E-01  8.00000000E-01  8.50000000E-01  8.50000000E-01  8.50000000E-01
  8.00000000E-01  8.50000000E-01  8.50000000E-01  8.50000000E-01  8.00000000E-01
  8.50000000E-01  8.50000000E-01  8.50000000E-01  8.00000000E-01  8.50000000E-01
  8.50000000E-01  8.50000000E-01  8.00000000E-01  8.50000000E-01  8.50000000E-01
  8.50000000E-01  8.00000000E-01  8.50000000E-01  8.50000000E-01  8.50000000E-01
  8.00000000E-01  8.50000000E-01  8.50000000E-01  8.50000000E-01  8.00000000E-01
  8.50000000E-01  8.50000000E-01  8.50000000E-01  8.00000000E-01  8.50000000E-01
  8.50000000E-01  8.50000000E-01  8.00000000E-01  8.50000000E-01  8.50000000E-01
  8.50000000E-01  8.00000000E-01  8.50000000E-01  8.50000000E-01  8.50000000E-01
  8.00000000E-01  8.50000000E-01  8.50000000E-01  8.50000000E-01  8.00000000E-01
  8.50000000E-01  8.50000000E-01  8.50000000E-01  8.00000000E-01  8.50000000E-01
  8.50000000E-01  8.50000000E-01  8.00000000E-01  8.50000000E-01  8.50000000E-01
  8.50000000E-01  8.00000000E-01  8.50000000E-01  8.50000000E-01  8.50000000E-01
  8.00000000E-01  8.50000000E-01  8.50000000E-01  8.50000000E-01  8.00000000E-01
  8.50000000E-01  8.50000000E-01  8.50000000E-01  8.00000000E-01  8.50000000E-01
  8.50000000E-01  8.50000000E-01  8.00000000E-01  8.50000000E-01  8.50000000E-01
  8.50000000E-01  8.00000000E-01  8.50000000E-01  8.50000000E-01  8.50000000E-01
  8.00000000E-01  8.50000000E-01  8.50000000E-01  8.50000000E-01  8.00000000E-01
  8.50000000E-01  8.50000000E-01  8.50000000E-01  8.00000000E-01  8.50000000E-01
  8.50000000E-01  8.50000000E-01  8.00000000E-01  8.50000000E-01  8.50000000E-01
  8.50000000E-01  8.00000000E-01  8.50000000E-01  8.50000000E-01  8.50000000E-01
  8.00000000E-01  8.50000000E-01  8.50000000E-01  8.50000000E-01  8.00000000E-01
  8.50000000E-01  8.50000000E-01  8.50000000E-01  8.00000000E-01  8.50000000E-01
  8.50000000E-01  8.50000000E-01  8.00000000E-01  8.50000000E-01  8.50000000E-01
  8.50000000E-01  8.00000000E-01  8.50000000E-01  8.50000000E-01  8.50000000E-01
  8.00000000E-01  8.50000000E-01  8.50000000E-01  8.50000000E-01  8.00000000E-01
  8.50000000E-01  8.50000000E-01  8.50000000E-01  8.00000000E-01  8.50000000E-01
  8.50000000E-01  8.50000000E-01  8.00000000E-01  8.50000000E-01  8.50000000E-01
  8.50000000E-01  8.00000000E-01  8.50000000E-01  8.50000000E-01  8.50000000E-01
  8.00000000E-01  8.50000000E-01  8.50000000E-01  8.50000000E-01  8.00000000E-01
  8.50000000E-01  8.50000000E-01  8.50000000E-01  8.00000000E-01  8.50000000E-01
  8.50000000E-01  8.50000000E-01  8.00000000E-01  8.50000000E-01  8.50000000E-01
  8.50000000E-01  8.00000000E-01  8.50000000E-01  8.50000000E-01  8.50000000E-01
  8.00000000E-01  8.50000000E-01  8.50000000E-01  8.50000000E-01  8.00000000E-01
  8.50000000E-01  8.50000000E-01  8.50000000E-01  8.00000000E-01  8.50000000E-01
  8.50000000E-01  8.50000000E-01  8.00000000E-01  8.50000000E-01  8.50000000E-01
  8.50000000E-01  8.00000000E-01  8.50000000E-01  8.50000000E-01  8.50000000E-01
  8.00000000E-01  8.50000000E-01  8.50000000E-01  8.50000000E-01  8.00000000E-01
  8.50000000E-01  8.50000000E-01  8.50000000E-01  8.00000000E-01  8.50000000E-01
  8.50000000E-01  8.50000000E-01  8.00000000E-01  8.50000000E-01  8.50000000E-01
  8.50000000E-01  8.00000000E-01  8.50000000E-01  8.50000000E-01  8.50000000E-01
  8.00000000E-01  8.50000000E-01  8.50000000E-01  8.50000000E-01  8.00000000E-01
  8.50000000E-01  8.50000000E-01  8.50000000E-01  8.00000000E-01  8.50000000E-01
  8.50000000E-01  8.50000000E-01  8.00000000E-01  8.50000000E-01  8.50000000E-01
  8.50000000E-01  8.00000000E-01  8.50000000E-01  8.50000000E-01  8.50000000E-01
  8.00000000E-01  8.50000000E-01  8.50000000E-01  8.50000000E-01  8.00000000E-01
  8.50000000E-01  8.50000000E-01  8.50000000E-01  8.00000000E-01  8.50000000E-01
  8.50000000E-01  8.50000000E-01  8.00000000E-01  8.50000000E-01  8.50000000E-01
  8.50000000E-01  8.00000000E-01  8.50000000E-01  8.50000000E-01  8.50000000E-01
  8.00000000E-01  8.50000000E-01  8.50000000E-01  8.50000000E-01  8.00000000E-01
  8.50000000E-01  8.50000000E-01  8.50000000E-01  8.00000000E-01  8.50000000E-01
  8.50000000E-01  8.50000000E-01  8.00000000E-01  8.50000000E-01  8.50000000E-01
  8.50000000E-01  8.00000000E-01  8.50000000E-01  8.50000000E-01  8.50000000E-01
  8.00000000E-01  8.50000000E-01  8.50000000E-01  8.50000000E-01  8.00000000E-01
  8.50000000E-01  8.50000000E-01  8.50000000E-01  8.00000000E-01  8.50000000E-01
  8.50000000E-01  8.50000000E-01  8.00000000E-01  8.50000000E-01  8.50000000E-01
  8.50000000E-01  8.00000000E-01  8.50000000E-01  8.50000000E-01  8.50000000E-01
  8.00000000E-01  8.50000000E-01  8.50000000E-01  8.50000000E-01  8.00000000E-01
  8.50000000E-01  8.50000000E-01  8.50000000E-01  8.00000000E-01  8.50000000E-01
  8.50000000E-01  8.50000000E-01  8.00000000E-01  8.50000000E-01  8.50000000E-01
  8.50000000E-01  8.00000000E-01  8.50000000E-01  8.50000000E-01  8.50000000E-01
  8.00000000E-01  8.50000000E-01  8.50000000E-01  8.50000000E-01  8.00000000E-01
  8.50000000E-01  8.50000000E-01  8.50000000E-01  8.00000000E-01  8.50000000E-01
  8.50000000E-01  8.50000000E-01  8.00000000E-01  8.50000000E-01  8.50000000E-01
  8.50000000E-01  8.00000000E-01  8.50000000E-01  8.50000000E-01  8.50000000E-01
  8.00000000E-01  8.50000000E-01  8.50000000E-01  8.50000000E-01  8.00000000E-01
  8.50000000E-01  8.50000000E-01  8.50000000E-01  8.00000000E-01  8.50000000E-01
  8.50000000E-01  8.50000000E-01  8.00000000E-01  8.50000000E-01  8.50000000E-01
  8.50000000E-01  8.00000000E-01  8.50000000E-01  8.50000000E-01  8.50000000E-01
  8.00000000E-01  8.50000000E-01  8.50000000E-01  8.50000000E-01  8.00000000E-01
  8.50000000E-01  8.50000000E-01  8.50000000E-01  8.00000000E-01  8.50000000E-01
  8.50000000E-01  8.50000000E-01  8.00000000E-01  8.50000000E-01  8.50000000E-01
  8.50000000E-01  8.00000000E-01  8.50000000E-01  8.50000000E-01  8.50000000E-01
  8.00000000E-01  8.50000000E-01  8.50000000E-01  8.50000000E-01  8.00000000E-01
  8.50000000E-01  8.50000000E-01  8.50000000E-01  8.00000000E-01  8.50000000E-01
  8.50000000E-01  8.50000000E-01  8.00000000E-01  8.50000000E-01  8.50000000E-01
  8.50000000E-01  8.00000000E-01  8.50000000E-01  8.50000000E-01  8.50000000E-01
  8.00000000E-01  8.50000000E-01  8.50000000E-01  8.50000000E-01  8.00000000E-01
  8.50000000E-01  8.50000000E-01  8.50000000E-01  8.00000000E-01  8.50000000E-01
  8.50000000E-01  8.50000000E-01  8.00000000E-01  8.50000000E-01  8.50000000E-01
  8.50000000E-01  8.00000000E-01  8.50000000E-01  8.50000000E-01  8.50000000E-01
  8.00000000E-01  8.50000000E-01  8.50000000E-01  8.50000000E-01  8.00000000E-01
  8.50000000E-01  8.50000000E-01  8.50000000E-01  8.00000000E-01  8.50000000E-01
  8.50000000E-01  8.50000000E-01  8.00000000E-01  8.50000000E-01  8.50000000E-01
  8.50000000E-01  8.00000000E-01  8.50000000E-01  8.50000000E-01  8.50000000E-01
  8.00000000E-01  8.50000000E-01  8.50000000E-01  8.50000000E-01  8.00000000E-01
  8.50000000E-01  8.50000000E-01  8.50000000E-01  8.00000000E-01  8.50000000E-01
  8.50000000E-01  8.50000000E-01  8.00000000E-01  8.50000000E-01  8.50000000E-01
  8.50000000E-01  8.00000000E-01  8.50000000E-01  8.50000000E-01  8.50000000E-01
  8.00000000E-01  8.50000000E-01  8.50000000E-01  8.50000000E-01  8.00000000E-01
  8.50000000E-01  8.50000000E-01  8.50000000E-01  8.00000000E-01  8.50000000E-01
  8.50000000E-01  8.50000000E-01  8.00000000E-01  8.50000000E-01  8.50000000E-01
  8.50000000E-01  8.00000000E-01  8.50000000E-01  8.50000000E-01  8.50000000E-01
  8.00000000E-01  8.50000000E-01  8.50000000E-01  8.50000000E-01  8.00000000E-01
  8.50000000E-01  8.50000000E-01  8.50000000E-01  8.00000000E-01  8.50000000E-01
  8.50000000E-01  8.50000000E-01  8.00000000E-01  8.50000000E-01  8.50000000E-01
  8.50000000E-01  8.00000000E-01  8.50000000E-01  8.50000000E-01  8.50000000E-01
  8.00000000E-01  8.50000000E-01  8.50000000E-01  8.50000000E-01  8.00000000E-01
  8.50000000E-01  8.50000000E-01  8.50000000E-01  8.00000000E-01  8.50000000E-01
  8.50000000E-01  8.50000000E-01  8.00000000E-01  8.50000000E-01  8.50000000E-01
  8.50000000E-01  8.00000000E-01  8.50000000E-01  8.50000000E-01  8.50000000E-01
  8.00000000E-01  8.50000000E-01  8.50000000E-01  8.50000000E-01  8.00000000E-01
  8.50000000E-01  8.50000000E-01  8.50000000E-01  8.00000000E-01  8.50000000E-01
  8.50000000E-01  8.50000000E-01  8.00000000E-01  8.50000000E-01  8.50000000E-01
  8.50000000E-01  8.00000000E-01  8.50000000E-01  8.50000000E-01  8.50000000E-01
  8.00000000E-01  8.50000000E-01  8.50000000E-01  8.50000000E-01  8.00000000E-01
  8.50000000E-01  8.50000000E-01  8.50000000E-01  8.00000000E-01  8.50000000E-01
  8.50000000E-01  8.50000000E-01  8.00000000E-01  8.50000000E-01  8.50000000E-01
  8.50000000E-01  8.00000000E-01  8.50000000E-01  8.50000000E-01  8.50000000E-01
  8.00000000E-01  8.50000000E-01  8.50000000E-01  8.50000000E-01  8.00000000E-01
  8.50000000E-01  8.50000000E-01  8.50000000E-01  8.00000000E-01  8.50000000E-01
  8.50000000E-01  8.50000000E-01  8.00000000E-01  8.50000000E-01  8.50000000E-01
  8.50000000E-01  8.00000000E-01  8.50000000E-01  8.50000000E-01  8.50000000E-01
  8.00000000E-01  8.50000000E-01  8.50000000E-01  8.50000000E-01  8.00000000E-01
  8.50000000E-01  8.50000000E-01  8.50000000E-01  8.00000000E-01  8.50000000E-01
  8.50000000E-01  8.50000000E-01  8.00000000E-01  8.50000000E-01  8.50000000E-01
  8.50000000E-01  8.00000000E-01  8.50000000E-01  8.50000000E-01  8.50000000E-01
  8.00000000E-01  8.50000000E-01  8.50000000E-01  8.50000000E-01  8.00000000E-01
  8.50000000E-01  8.50000000E-01  8.50000000E-01  8.00000000E-01  8.50000000E-01
  8.50000000E-01  8.50000000E-01  8.00000000E-01  8.50000000E-01  8.50000000E-01
  8.50000000E-01  8.00000000E-01  8.50000000E-01  8.50000000E-01  8.50000000E-01
  8.00000000E-01  8.50000000E-01  8.50000000E-01  8.50000000E-01  8.00000000E-01
  8.50000000E-01  8.50000000E-01  8.50000000E-01  8.00000000E-01  8.50000000E-01
  8.50000000E-01  8.50000000E-01  8.00000000E-01  8.50000000E-01  8.50000000E-01
  8.50000000E-01  8.00000000E-01  8.50000000E-01  8.50000000E-01  8.50000000E-01
  8.00000000E-01  8.50000000E-01  8.50000000E-01  8.50000000E-01  8.00000000E-01
  8.50000000E-01  8.50000000E-01  8.50000000E-01  8.00000000E-01  8.50000000E-01
  8.50000000E-01  8.50000000E-01  8.00000000E-01  8.50000000E-01  8.50000000E-01
  8.50000000E-01  8.00000000E-01  8.50000000E-01  8.50000000E-01  8.50000000E-01
  8.00000000E-01  8.50000000E-01  8.50000000E-01  8.50000000E-01  8.00000000E-01
  8.50000000E-01  8.50000000E-01  8.50000000E-01  8.00000000E-01  8.50000000E-01
  8.50000000E-01  8.50000000E-01  8.00000000E-01  8.50000000E-01  8.50000000E-01
  8.50000000E-01  8.00000000E-01  8.50000000E-01  8.50000000E-01  8.50000000E-01
  8.00000000E-01  8.50000000E-01  8.50000000E-01  8.50000000E-01  8.00000000E-01
  8.50000000E-01  8.50000000E-01  8.50000000E-01  8.00000000E-01  8.50000000E-01
  8.50000000E-01  8.50000000E-01  8.00000000E-01  8.50000000E-01  8.50000000E-01
  8.50000000E-01  8.00000000E-01  8.50000000E-01  8.50000000E-01  8.50000000E-01
  8.00000000E-01  8.50000000E-01  8.50000000E-01  8.50000000E-01  8.00000000E-01
  8.50000000E-01  8.50000000E-01  8.50000000E-01  8.00000000E-01  8.50000000E-01
  8.50000000E-01  8.50000000E-01  8.00000000E-01  8.50000000E-01  8.50000000E-01
  8.50000000E-01  8.00000000E-01  8.50000000E-01  8.50000000E-01  8.50000000E-01
  8.00000000E-01  8.50000000E-01  8.50000000E-01  8.50000000E-01  8.00000000E-01
  8.50000000E-01  8.50000000E-01  8.50000000E-01  8.00000000E-01  8.50000000E-01
  8.50000000E-01  8.50000000E-01  8.00000000E-01  8.50000000E-01  8.50000000E-01
  8.50000000E-01  8.00000000E-01  8.50000000E-01  8.50000000E-01  8.50000000E-01
  8.00000000E-01  8.50000000E-01  8.50000000E-01  8.50000000E-01  8.00000000E-01
  8.50000000E-01  8.50000000E-01  8.50000000E-01  8.00000000E-01  8.50000000E-01
  8.50000000E-01  8.50000000E-01  8.00000000E-01  8.50000000E-01  8.50000000E-01
  8.50000000E-01  8.00000000E-01  8.50000000E-01  8.50000000E-01  8.50000000E-01
  8.00000000E-01  8.50000000E-01  8.50000000E-01  8.50000000E-01  8.00000000E-01
  8.50000000E-01  8.50000000E-01  8.50000000E-01  8.00000000E-01  8.50000000E-01
  8.50000000E-01  8.50000000E-01  8.00000000E-01  8.50000000E-01  8.50000000E-01
  8.50000000E-01  8.00000000E-01  8.50000000E-01  8.50000000E-01  8.50000000E-01
  8.00000000E-01  8.50000000E-01  8.50000000E-01  8.50000000E-01  8.00000000E-01
  8.50000000E-01  8.50000000E-01  8.50000000E-01  8.00000000E-01  8.50000000E-01
  8.50000000E-01  8.50000000E-01  8.00000000E-01  8.50000000E-01  8.50000000E-01
  8.50000000E-01  8.00000000E-01  8.50000000E-01  8.50000000E-01  8.50000000E-01
  8.00000000E-01  8.50000000E-01  8.50000000E-01  8.50000000E-01  8.00000000E-01
  8.50000000E-01  8.50000000E-01  8.50000000E-01  8.00000000E-01  8.50000000E-01
  8.50000000E-01  8.50000000E-01  8.00000000E-01  8.50000000E-01  8.50000000E-01
  8.50000000E-01  8.00000000E-01  8.50000000E-01  8.50000000E-01  8.50000000E-01
  8.00000000E-01  8.50000000E-01  8.50000000E-01  8.50000000E-01  8.00000000E-01
  8.50000000E-01  8.50000000E-01  8.50000000E-01  8.00000000E-01  8.50000000E-01
  8.50000000E-01  8.50000000E-01  8.00000000E-01  8.50000000E-01  8.50000000E-01
  8.50000000E-01  8.00000000E-01  8.50000000E-01  8.50000000E-01  8.50000000E-01
  8.00000000E-01  8.50000000E-01  8.50000000E-01  8.50000000E-01  8.00000000E-01
  8.50000000E-01  8.50000000E-01  8.50000000E-01  8.00000000E-01  8.50000000E-01
  8.50000000E-01  8.50000000E-01  8.00000000E-01  8.50000000E-01  8.50000000E-01
  8.50000000E-01  8.00000000E-01  8.50000000E-01  8.50000000E-01  8.50000000E-01
  8.00000000E-01  8.50000000E-01  8.50000000E-01  8.50000000E-01  8.00000000E-01
  8.50000000E-01  8.50000000E-01  8.50000000E-01  8.00000000E-01  8.50000000E-01
  8.50000000E-01  8.50000000E-01  8.00000000E-01  8.50000000E-01  8.50000000E-01
  8.50000000E-01  8.00000000E-01  8.50000000E-01  8.50000000E-01  8.50000000E-01
  8.00000000E-01  8.50000000E-01  8.50000000E-01  8.50000000E-01  8.00000000E-01
  8.50000000E-01  8.50000000E-01  8.50000000E-01  8.00000000E-01  8.50000000E-01
  8.50000000E-01  8.50000000E-01  8.00000000E-01  8.50000000E-01  8.50000000E-01
  8.50000000E-01  8.00000000E-01  8.50000000E-01  8.50000000E-01  8.50000000E-01
  8.00000000E-01  8.50000000E-01  8.50000000E-01  8.50000000E-01  8.00000000E-01
  8.50000000E-01  8.50000000E-01  8.50000000E-01  8.00000000E-01  8.50000000E-01
  8.50000000E-01  8.50000000E-01  8.00000000E-01  8.50000000E-01  8.50000000E-01
  8.50000000E-01  8.00000000E-01  8.50000000E-01  8.50000000E-01  8.50000000E-01
  8.00000000E-01  8.50000000E-01  8.50000000E-01  8.50000000E-01  8.00000000E-01
  8.50000000E-01  8.50000000E-01  8.50000000E-01  8.00000000E-01  8.50000000E-01
  8.50000000E-01  8.50000000E-01  8.00000000E-01  8.50000000E-01  8.50000000E-01
  8.50000000E-01  8.00000000E-01  8.50000000E-01  8.50000000E-01  8.50000000E-01
  8.00000000E-01  8.50000000E-01  8.50000000E-01  8.50000000E-01  8.00000000E-01
  8.50000000E-01  8.50000000E-01  8.50000000E-01  8.00000000E-01  8.50000000E-01
  8.50000000E-01  8.50000000E-01  8.00000000E-01  8.50000000E-01  8.50000000E-01
  8.50000000E-01  8.00000000E-01  8.50000000E-01  8.50000000E-01  8.50000000E-01
  8.00000000E-01  8.50000000E-01  8.50000000E-01  8.50000000E-01  8.00000000E-01
  8.50000000E-01  8.50000000E-01  8.50000000E-01  8.00000000E-01  8.50000000E-01
  8.50000000E-01  8.50000000E-01  8.00000000E-01  8.50000000E-01  8.50000000E-01
  8.50000000E-01  8.00000000E-01  8.50000000E-01  8.50000000E-01  8.50000000E-01
  8.00000000E-01  8.50000000E-01  8.50000000E-01  8.50000000E-01  8.00000000E-01
  8.50000000E-01  8.50000000E-01  8.50000000E-01  8.00000000E-01  8.50000000E-01
  8.50000000E-01  8.50000000E-01  8.00000000E-01  8.50000000E-01  8.50000000E-01
  8.50000000E-01  8.00000000E-01  8.50000000E-01  8.50000000E-01  8.50000000E-01
  8.00000000E-01  8.50000000E-01  8.50000000E-01  8.50000000E-01  8.00000000E-01
  8.50000000E-01  8.50000000E-01  8.50000000E-01  8.00000000E-01  8.50000000E-01
  8.50000000E-01  8.50000000E-01  8.00000000E-01  8.50000000E-01  8.50000000E-01
  8.50000000E-01  8.00000000E-01  8.50000000E-01  8.50000000E-01  8.50000000E-01
  8.00000000E-01  8.50000000E-01  8.50000000E-01  8.50000000E-01  8.00000000E-01
  8.50000000E-01  8.50000000E-01  8.50000000E-01  8.00000000E-01  8.50000000E-01
  8.50000000E-01  8.50000000E-01  8.00000000E-01  8.50000000E-01  8.50000000E-01
  8.50000000E-01  8.00000000E-01  8.50000000E-01  8.50000000E-01  8.50000000E-01
  8.00000000E-01  8.50000000E-01  8.50000000E-01  8.50000000E-01  8.00000000E-01
  8.50000000E-01  8.50000000E-01  8.50000000E-01  8.00000000E-01  8.50000000E-01
  8.50000000E-01  8.50000000E-01  8.00000000E-01  8.50000000E-01  8.50000000E-01
  8.50000000E-01  8.00000000E-01  8.50000000E-01  8.50000000E-01  8.50000000E-01
  8.00000000E-01  8.50000000E-01  8.50000000E-01  8.50000000E-01  8.00000000E-01
  8.50000000E-01  8.50000000E-01  8.50000000E-01  8.00000000E-01  8.50000000E-01
  8.50000000E-01  8.50000000E-01  8.00000000E-01  8.50000000E-01  8.50000000E-01
  8.50000000E-01  8.00000000E-01  8.50000000E-01  8.50000000E-01  8.50000000E-01
  8.00000000E-01  8.50000000E-01  8.50000000E-01  8.50000000E-01  8.00000000E-01
  8.50000000E-01  8.50000000E-01  8.50000000E-01  8.00000000E-01  8.50000000E-01
  8.50000000E-01  8.50000000E-01  8.00000000E-01  8.50000000E-01  8.50000000E-01
  8.50000000E-01  8.00000000E-01  8.50000000E-01  8.50000000E-01  8.50000000E-01
  8.00000000E-01  8.50000000E-01  8.50000000E-01  8.50000000E-01  8.00000000E-01
  8.50000000E-01  8.50000000E-01  8.50000000E-01  8.00000000E-01  8.50000000E-01
  8.50000000E-01  8.50000000E-01  8.00000000E-01  8.50000000E-01  8.50000000E-01
  8.50000000E-01  8.00000000E-01  8.50000000E-01  8.50000000E-01  8.50000000E-01
  8.00000000E-01  8.50000000E-01  8.50000000E-01  8.50000000E-01  8.00000000E-01
  8.50000000E-01  8.50000000E-01  8.50000000E-01  8.00000000E-01  8.50000000E-01
  8.50000000E-01  8.50000000E-01  8.00000000E-01  8.50000000E-01  8.50000000E-01
  8.50000000E-01  8.00000000E-01  8.50000000E-01  8.50000000E-01  8.50000000E-01
  8.00000000E-01  8.50000000E-01  8.50000000E-01  8.50000000E-01  8.00000000E-01
  8.50000000E-01  8.50000000E-01  8.50000000E-01  8.00000000E-01  8.50000000E-01
  8.50000000E-01  8.50000000E-01  8.00000000E-01  8.50000000E-01  8.50000000E-01
  8.50000000E-01  8.00000000E-01  8.50000000E-01  8.50000000E-01  8.50000000E-01
  8.00000000E-01  8.50000000E-01  8.50000000E-01  8.50000000E-01  8.00000000E-01
  8.50000000E-01  8.50000000E-01  8.50000000E-01  8.00000000E-01  8.50000000E-01
  8.50000000E-01  8.50000000E-01  8.00000000E-01  8.50000000E-01  8.50000000E-01
  8.50000000E-01  8.00000000E-01  8.50000000E-01  8.50000000E-01  8.50000000E-01
  8.00000000E-01  8.50000000E-01  8.50000000E-01  8.50000000E-01  8.00000000E-01
  8.50000000E-01  8.50000000E-01  8.50000000E-01  8.00000000E-01  8.50000000E-01
  8.50000000E-01  8.50000000E-01  8.00000000E-01  8.50000000E-01  8.50000000E-01
  8.50000000E-01  8.00000000E-01  8.50000000E-01  8.50000000E-01  8.50000000E-01
  8.00000000E-01  8.50000000E-01  8.50000000E-01  8.50000000E-01  8.00000000E-01
  8.50000000E-01  8.50000000E-01  8.50000000E-01  8.00000000E-01  8.50000000E-01
  8.50000000E-01  8.50000000E-01  8.00000000E-01  8.50000000E-01  8.50000000E-01
  8.50000000E-01  8.00000000E-01  8.50000000E-01  8.50000000E-01  8.50000000E-01
  8.00000000E-01  8.50000000E-01  8.50000000E-01  8.50000000E-01  8.00000000E-01
  8.50000000E-01  8.50000000E-01  8.50000000E-01  8.00000000E-01  8.50000000E-01
  8.50000000E-01  8.50000000E-01  8.00000000E-01  8.50000000E-01  8.50000000E-01
  8.50000000E-01  8.00000000E-01  8.50000000E-01  8.50000000E-01  8.50000000E-01
  8.00000000E-01  8.50000000E-01  8.50000000E-01  8.50000000E-01  8.00000000E-01
  8.50000000E-01  8.50000000E-01  8.50000000E-01  8.00000000E-01  8.50000000E-01
  8.50000000E-01  8.50000000E-01  8.00000000E-01  8.50000000E-01  8.50000000E-01
  8.50000000E-01  8.00000000E-01  8.50000000E-01  8.50000000E-01  8.50000000E-01
  8.00000000E-01  8.50000000E-01  8.50000000E-01  8.50000000E-01  8.00000000E-01
  8.50000000E-01  8.50000000E-01  8.50000000E-01  8.00000000E-01  8.50000000E-01
  8.50000000E-01  8.50000000E-01  8.00000000E-01  8.50000000E-01  8.50000000E-01
  8.50000000E-01  8.00000000E-01  8.50000000E-01  8.50000000E-01  8.50000000E-01
  8.00000000E-01  8.50000000E-01  8.50000000E-01  8.50000000E-01  8.00000000E-01
  8.50000000E-01  8.50000000E-01  8.50000000E-01  8.00000000E-01  8.50000000E-01
  8.50000000E-01  8.50000000E-01  8.00000000E-01  8.50000000E-01  8.50000000E-01
  8.50000000E-01  8.00000000E-01  8.50000000E-01  8.50000000E-01  8.50000000E-01
  8.00000000E-01  8.50000000E-01  8.50000000E-01  8.50000000E-01  8.00000000E-01
  8.50000000E-01  8.50000000E-01  8.50000000E-01  8.00000000E-01  8.50000000E-01
  8.50000000E-01  8.50000000E-01  8.00000000E-01  8.50000000E-01  8.50000000E-01
  8.50000000E-01  8.00000000E-01  8.50000000E-01  8.50000000E-01  8.50000000E-01
  8.00000000E-01  8.50000000E-01  8.50000000E-01  8.50000000E-01  8.00000000E-01
  8.50000000E-01  8.50000000E-01  8.50000000E-01  8.00000000E-01  8.50000000E-01
  8.50000000E-01  8.50000000E-01  8.00000000E-01  8.50000000E-01  8.50000000E-01
  8.50000000E-01  8.00000000E-01  8.50000000E-01  8.50000000E-01  8.50000000E-01
  8.00000000E-01  8.50000000E-01  8.50000000E-01  8.50000000E-01  8.00000000E-01
  8.50000000E-01  8.50000000E-01  8.50000000E-01  8.00000000E-01  8.50000000E-01
  8.50000000E-01  8.50000000E-01  8.00000000E-01  8.50000000E-01  8.50000000E-01
  8.50000000E-01  8.00000000E-01  8.50000000E-01  8.50000000E-01  8.50000000E-01
  8.00000000E-01  8.50000000E-01  8.50000000E-01  8.50000000E-01  8.00000000E-01
  8.50000000E-01  8.50000000E-01  8.50000000E-01  8.00000000E-01  8.50000000E-01
  8.50000000E-01  8.50000000E-01  8.00000000E-01  8.50000000E-01  8.50000000E-01
  8.50000000E-01  8.00000000E-01  8.50000000E-01  8.50000000E-01  8.50000000E-01
  8.00000000E-01  8.50000000E-01  8.50000000E-01  8.50000000E-01  8.00000000E-01
  8.50000000E-01  8.50000000E-01  8.50000000E-01  8.00000000E-01  8.50000000E-01
  8.50000000E-01  8.50000000E-01  8.00000000E-01  8.50000000E-01  8.50000000E-01
  8.50000000E-01  8.00000000E-01  8.50000000E-01  8.50000000E-01  8.50000000E-01
  8.00000000E-01  8.50000000E-01  8.50000000E-01  8.50000000E-01  8.00000000E-01
  8.50000000E-01  8.50000000E-01  8.50000000E-01  8.00000000E-01  8.50000000E-01
  8.50000000E-01  8.50000000E-01  8.00000000E-01  8.50000000E-01  8.50000000E-01
  8.50000000E-01  8.00000000E-01  8.50000000E-01  8.50000000E-01  8.50000000E-01
  8.00000000E-01  8.50000000E-01  8.50000000E-01  8.50000000E-01  8.00000000E-01
  8.50000000E-01  8.50000000E-01  8.50000000E-01  8.00000000E-01  8.50000000E-01
  8.50000000E-01  8.50000000E-01  8.00000000E-01  8.50000000E-01  8.50000000E-01
  8.50000000E-01  8.00000000E-01  8.50000000E-01  8.50000000E-01  8.50000000E-01
  8.00000000E-01  8.50000000E-01  8.50000000E-01  8.50000000E-01  8.00000000E-01
  8.50000000E-01  8.50000000E-01  8.50000000E-01  8.00000000E-01  8.50000000E-01
  8.50000000E-01  8.50000000E-01  8.00000000E-01  8.50000000E-01  8.50000000E-01
  8.50000000E-01  8.00000000E-01  8.50000000E-01  8.50000000E-01  8.50000000E-01
  8.00000000E-01  8.50000000E-01  8.50000000E-01  8.50000000E-01  8.00000000E-01
  8.50000000E-01  8.50000000E-01  8.50000000E-01  8.00000000E-01  8.50000000E-01
  8.50000000E-01  8.50000000E-01  8.00000000E-01  8.50000000E-01  8.50000000E-01
  8.50000000E-01  8.00000000E-01  8.50000000E-01  8.50000000E-01  8.50000000E-01
  8.00000000E-01  8.50000000E-01  8.50000000E-01  8.50000000E-01  8.00000000E-01
  8.50000000E-01  8.50000000E-01  8.50000000E-01  8.00000000E-01  8.50000000E-01
  8.50000000E-01  8.50000000E-01  8.00000000E-01  8.50000000E-01  8.50000000E-01
  8.50000000E-01  8.00000000E-01  8.50000000E-01  8.50000000E-01  8.50000000E-01
  8.00000000E-01  8.50000000E-01  8.50000000E-01  8.50000000E-01  8.00000000E-01
  8.50000000E-01  8.50000000E-01  8.50000000E-01  8.00000000E-01  8.50000000E-01
  8.50000000E-01  8.50000000E-01  8.00000000E-01  8.50000000E-01  8.50000000E-01
  8.50000000E-01  8.00000000E-01  8.50000000E-01  8.50000000E-01  8.50000000E-01
  8.00000000E-01  8.50000000E-01  8.50000000E-01  8.50000000E-01  8.00000000E-01
  8.50000000E-01  8.50000000E-01  8.50000000E-01  8.00000000E-01  8.50000000E-01
  8.50000000E-01  8.50000000E-01  8.00000000E-01  8.50000000E-01  8.50000000E-01
  8.50000000E-01  8.00000000E-01  8.50000000E-01  8.50000000E-01  8.50000000E-01
  8.00000000E-01  8.50000000E-01  8.50000000E-01  8.50000000E-01  8.00000000E-01
  8.50000000E-01  8.50000000E-01  8.50000000E-01  8.00000000E-01  8.50000000E-01
  8.50000000E-01  8.50000000E-01  8.00000000E-01  8.50000000E-01  8.50000000E-01
  8.50000000E-01  8.00000000E-01  8.50000000E-01  8.50000000E-01  8.50000000E-01
  8.00000000E-01  8.50000000E-01  8.50000000E-01  8.50000000E-01  8.00000000E-01
  8.50000000E-01  8.50000000E-01  8.50000000E-01  8.00000000E-01  8.50000000E-01
  8.50000000E-01  8.50000000E-01  8.00000000E-01  8.50000000E-01  8.50000000E-01
  8.50000000E-01  8.00000000E-01  8.50000000E-01  8.50000000E-01  8.50000000E-01
  8.00000000E-01  8.50000000E-01  8.50000000E-01  8.50000000E-01  8.00000000E-01
  8.50000000E-01  8.50000000E-01  8.50000000E-01  8.00000000E-01  8.50000000E-01
  8.50000000E-01  8.50000000E-01  8.00000000E-01  8.50000000E-01  8.50000000E-01
  8.50000000E-01  8.00000000E-01  8.50000000E-01  8.50000000E-01  8.50000000E-01
  8.00000000E-01  8.50000000E-01  8.50000000E-01  8.50000000E-01  8.00000000E-01
  8.50000000E-01  8.50000000E-01  8.50000000E-01  8.00000000E-01  8.50000000E-01
  8.50000000E-01  8.50000000E-01  8.00000000E-01  8.50000000E-01  8.50000000E-01
  8.50000000E-01  8.00000000E-01  8.50000000E-01  8.50000000E-01  8.50000000E-01
  8.00000000E-01  8.50000000E-01  8.50000000E-01  8.50000000E-01  8.00000000E-01
  8.50000000E-01  8.50000000E-01  8.50000000E-01  8.00000000E-01  8.50000000E-01
  8.50000000E-01  8.50000000E-01  8.00000000E-01  8.50000000E-01  8.50000000E-01
  8.50000000E-01  8.00000000E-01  8.50000000E-01  8.50000000E-01  8.50000000E-01
  8.00000000E-01  8.50000000E-01  8.50000000E-01  8.50000000E-01  8.00000000E-01
  8.50000000E-01  8.50000000E-01  8.50000000E-01  8.00000000E-01  8.50000000E-01
  8.50000000E-01  8.50000000E-01  8.00000000E-01  8.50000000E-01  8.50000000E-01
  8.50000000E-01  8.00000000E-01  8.50000000E-01  8.50000000E-01  8.50000000E-01
  8.00000000E-01  8.50000000E-01  8.50000000E-01  8.50000000E-01  8.00000000E-01
  8.50000000E-01  8.50000000E-01  8.50000000E-01  8.00000000E-01  8.50000000E-01
  8.50000000E-01  8.50000000E-01  8.00000000E-01  8.50000000E-01  8.50000000E-01
  8.50000000E-01  8.00000000E-01  8.50000000E-01  8.50000000E-01  8.50000000E-01
  8.00000000E-01  8.50000000E-01  8.50000000E-01  8.50000000E-01  8.00000000E-01
  8.50000000E-01  8.50000000E-01  8.50000000E-01  8.00000000E-01  8.50000000E-01
  8.50000000E-01  8.50000000E-01  8.00000000E-01  8.50000000E-01  8.50000000E-01
  8.50000000E-01  8.00000000E-01  8.50000000E-01  8.50000000E-01  8.50000000E-01
  8.00000000E-01  8.50000000E-01  8.50000000E-01  8.50000000E-01  8.00000000E-01
  8.50000000E-01  8.50000000E-01  8.50000000E-01  8.00000000E-01  8.50000000E-01
  8.50000000E-01  8.50000000E-01  8.00000000E-01  8.50000000E-01  8.50000000E-01
  8.50000000E-01  8.00000000E-01  8.50000000E-01  8.50000000E-01  8.50000000E-01
  8.00000000E-01  8.50000000E-01  8.50000000E-01  8.50000000E-01  8.00000000E-01
  8.50000000E-01  8.50000000E-01  8.50000000E-01  8.00000000E-01  8.50000000E-01
  8.50000000E-01  8.50000000E-01  8.00000000E-01  8.50000000E-01  8.50000000E-01
  8.50000000E-01  8.00000000E-01  8.50000000E-01  8.50000000E-01  8.50000000E-01
  8.00000000E-01  8.50000000E-01  8.50000000E-01  8.50000000E-01  8.00000000E-01
  8.50000000E-01  8.50000000E-01  8.50000000E-01  8.00000000E-01  8.50000000E-01
  8.50000000E-01  8.50000000E-01  8.00000000E-01  8.50000000E-01  8.50000000E-01
  8.50000000E-01  8.00000000E-01  8.50000000E-01  8.50000000E-01  8.50000000E-01
  8.00000000E-01  8.50000000E-01  8.50000000E-01  8.50000000E-01  8.00000000E-01
  8.50000000E-01  8.50000000E-01  8.50000000E-01  8.00000000E-01  8.50000000E-01
  8.50000000E-01  8.50000000E-01  8.00000000E-01  8.50000000E-01  8.50000000E-01
  8.50000000E-01  8.00000000E-01  8.50000000E-01  8.50000000E-01  8.50000000E-01
  8.00000000E-01  8.50000000E-01  8.50000000E-01  8.50000000E-01  8.00000000E-01
  8.50000000E-01  8.50000000E-01  8.50000000E-01  8.00000000E-01  8.50000000E-01
  8.50000000E-01  8.50000000E-01  8.00000000E-01  8.50000000E-01  8.50000000E-01
  8.50000000E-01  8.00000000E-01  8.50000000E-01  8.50000000E-01  8.50000000E-01
  8.00000000E-01  8.50000000E-01  8.50000000E-01  8.50000000E-01  8.00000000E-01
  8.50000000E-01  8.50000000E-01  8.50000000E-01  8.00000000E-01  8.50000000E-01
  8.50000000E-01  8.50000000E-01  8.00000000E-01  8.50000000E-01  8.50000000E-01
  8.50000000E-01  8.00000000E-01  8.50000000E-01  8.50000000E-01  8.50000000E-01
  8.00000000E-01  8.50000000E-01  8.50000000E-01  8.50000000E-01  8.00000000E-01
  8.50000000E-01  8.50000000E-01  8.50000000E-01  8.00000000E-01  8.50000000E-01
  8.50000000E-01  8.50000000E-01  8.00000000E-01  8.50000000E-01  8.50000000E-01
  8.50000000E-01  8.00000000E-01  8.50000000E-01  8.50000000E-01  8.50000000E-01
  8.00000000E-01  8.50000000E-01  8.50000000E-01  8.50000000E-01  8.00000000E-01
  8.50000000E-01  8.50000000E-01  8.50000000E-01  8.00000000E-01  8.50000000E-01
  8.50000000E-01  8.50000000E-01  8.00000000E-01  8.50000000E-01  8.50000000E-01
  8.50000000E-01  8.00000000E-01  8.50000000E-01  8.50000000E-01  8.50000000E-01
  8.00000000E-01  8.50000000E-01  8.50000000E-01  8.50000000E-01  8.00000000E-01
  8.50000000E-01  8.50000000E-01  8.50000000E-01  8.00000000E-01  8.50000000E-01
  8.50000000E-01  8.50000000E-01  8.00000000E-01  8.50000000E-01  8.50000000E-01
  8.50000000E-01  8.00000000E-01  8.50000000E-01  8.50000000E-01  8.50000000E-01
  8.00000000E-01  8.50000000E-01  8.50000000E-01  8.50000000E-01  8.00000000E-01
  8.50000000E-01  8.50000000E-01  8.50000000E-01  8.00000000E-01  8.50000000E-01
  8.50000000E-01  8.50000000E-01  8.00000000E-01  8.50000000E-01  8.50000000E-01
  8.50000000E-01  8.00000000E-01  8.50000000E-01  8.50000000E-01  8.50000000E-01
  8.00000000E-01  8.50000000E-01  8.50000000E-01  8.50000000E-01  8.00000000E-01
  8.50000000E-01  8.50000000E-01  8.50000000E-01  8.00000000E-01  8.50000000E-01
  8.50000000E-01  8.50000000E-01  8.00000000E-01  8.50000000E-01  8.50000000E-01
  8.50000000E-01  8.00000000E-01  8.50000000E-01  8.50000000E-01  8.50000000E-01
  8.00000000E-01  8.50000000E-01  8.50000000E-01  8.50000000E-01  8.00000000E-01
  8.50000000E-01  8.50000000E-01  8.50000000E-01  8.00000000E-01  8.50000000E-01
  8.50000000E-01  8.50000000E-01  8.00000000E-01  8.50000000E-01  8.50000000E-01
  8.50000000E-01  8.00000000E-01  8.50000000E-01  8.50000000E-01  8.50000000E-01
  8.00000000E-01  8.50000000E-01  8.50000000E-01  8.50000000E-01  8.00000000E-01
  8.50000000E-01  8.50000000E-01  8.50000000E-01  8.00000000E-01  8.50000000E-01
  8.50000000E-01  8.50000000E-01  8.00000000E-01  8.50000000E-01  8.50000000E-01
  8.50000000E-01  8.00000000E-01  8.50000000E-01  8.50000000E-01  8.50000000E-01
  8.00000000E-01  8.50000000E-01  8.50000000E-01  8.50000000E-01  8.00000000E-01
  8.50000000E-01  8.50000000E-01  8.50000000E-01  8.00000000E-01  8.50000000E-01
  8.50000000E-01  8.50000000E-01  8.00000000E-01  8.50000000E-01  8.50000000E-01
  8.50000000E-01  8.00000000E-01  8.50000000E-01  8.50000000E-01  8.50000000E-01
  8.00000000E-01  8.50000000E-01  8.50000000E-01  8.50000000E-01  8.00000000E-01
  8.50000000E-01  8.50000000E-01  8.50000000E-01  8.00000000E-01  8.50000000E-01
  8.50000000E-01  8.50000000E-01  8.00000000E-01  8.50000000E-01  8.50000000E-01
  8.50000000E-01  8.00000000E-01  8.50000000E-01  8.50000000E-01  8.50000000E-01
  8.00000000E-01  8.50000000E-01  8.50000000E-01  8.50000000E-01  8.00000000E-01
  8.50000000E-01  8.50000000E-01  8.50000000E-01  8.00000000E-01  8.50000000E-01
  8.50000000E-01  8.50000000E-01  8.00000000E-01  8.50000000E-01  8.50000000E-01
  8.50000000E-01  8.00000000E-01  8.50000000E-01  8.50000000E-01  8.50000000E-01
  8.00000000E-01  8.50000000E-01  8.50000000E-01  8.50000000E-01  8.00000000E-01
  8.50000000E-01  8.50000000E-01  8.50000000E-01  8.00000000E-01  8.50000000E-01
  8.50000000E-01  8.50000000E-01  8.00000000E-01  8.50000000E-01  8.50000000E-01
  8.50000000E-01  8.00000000E-01  8.50000000E-01  8.50000000E-01  8.50000000E-01
  8.00000000E-01  8.50000000E-01  8.50000000E-01  8.50000000E-01  8.00000000E-01
  8.50000000E-01  8.50000000E-01  8.50000000E-01  8.00000000E-01  8.50000000E-01
  8.50000000E-01  8.50000000E-01  8.00000000E-01  8.50000000E-01  8.50000000E-01
  8.50000000E-01  8.00000000E-01  8.50000000E-01  8.50000000E-01  8.50000000E-01
  8.00000000E-01  8.50000000E-01  8.50000000E-01  8.50000000E-01  8.00000000E-01
  8.50000000E-01  8.50000000E-01  8.50000000E-01  8.00000000E-01  8.50000000E-01
  8.50000000E-01  8.50000000E-01  8.00000000E-01  8.50000000E-01  8.50000000E-01
  8.50000000E-01  8.00000000E-01  8.50000000E-01  8.50000000E-01  8.50000000E-01
  8.00000000E-01  8.50000000E-01  8.50000000E-01  8.50000000E-01  8.00000000E-01
  8.50000000E-01  8.50000000E-01  8.50000000E-01  8.00000000E-01  8.50000000E-01
  8.50000000E-01  8.50000000E-01  8.00000000E-01  8.50000000E-01  8.50000000E-01
  8.50000000E-01  8.00000000E-01  8.50000000E-01  8.50000000E-01  8.50000000E-01
  8.00000000E-01  8.50000000E-01  8.50000000E-01  8.50000000E-01  8.00000000E-01
  8.50000000E-01  8.50000000E-01  8.50000000E-01  8.00000000E-01  8.50000000E-01
  8.50000000E-01  8.50000000E-01  8.00000000E-01  8.50000000E-01  8.50000000E-01
  8.50000000E-01  8.00000000E-01  8.50000000E-01  8.50000000E-01  8.50000000E-01
  8.00000000E-01  8.50000000E-01  8.50000000E-01  8.50000000E-01  8.00000000E-01
  8.50000000E-01  8.50000000E-01  8.50000000E-01  8.00000000E-01  8.50000000E-01
  8.50000000E-01  8.50000000E-01  8.00000000E-01  8.50000000E-01  8.50000000E-01
  8.50000000E-01  8.00000000E-01  8.50000000E-01  8.50000000E-01  8.50000000E-01
  8.00000000E-01  8.50000000E-01  8.50000000E-01  8.50000000E-01  8.00000000E-01
  8.50000000E-01  8.50000000E-01  8.50000000E-01  8.00000000E-01  8.50000000E-01
  8.50000000E-01  8.50000000E-01  8.00000000E-01  8.50000000E-01  8.50000000E-01
  8.50000000E-01  8.00000000E-01  8.50000000E-01  8.50000000E-01  8.50000000E-01
  8.00000000E-01  8.50000000E-01  8.50000000E-01  8.50000000E-01  8.00000000E-01
  8.50000000E-01  8.50000000E-01  8.50000000E-01  8.00000000E-01  8.50000000E-01
  8.50000000E-01  8.50000000E-01  8.00000000E-01  8.50000000E-01  8.50000000E-01
  8.50000000E-01  8.00000000E-01  8.50000000E-01  8.50000000E-01  8.50000000E-01
  8.00000000E-01  8.50000000E-01  8.50000000E-01  8.50000000E-01  8.00000000E-01
  8.50000000E-01  8.50000000E-01  8.50000000E-01  8.00000000E-01  8.50000000E-01
  8.50000000E-01  8.50000000E-01  8.00000000E-01  8.50000000E-01  8.50000000E-01
  8.50000000E-01  8.00000000E-01  8.50000000E-01  8.50000000E-01  8.50000000E-01
  8.00000000E-01  8.50000000E-01  8.50000000E-01  8.50000000E-01  8.00000000E-01
  8.50000000E-01  8.50000000E-01  8.50000000E-01  8.00000000E-01  8.50000000E-01
  8.50000000E-01  8.50000000E-01  8.00000000E-01  8.50000000E-01  8.50000000E-01
  8.50000000E-01  8.00000000E-01  8.50000000E-01  8.50000000E-01  8.50000000E-01
  8.00000000E-01  8.50000000E-01  8.50000000E-01  8.50000000E-01  8.00000000E-01
  8.50000000E-01  8.50000000E-01  8.50000000E-01  8.00000000E-01  8.50000000E-01
  8.50000000E-01  8.50000000E-01  8.00000000E-01  8.50000000E-01  8.50000000E-01
  8.50000000E-01  8.00000000E-01  8.50000000E-01  8.50000000E-01  8.50000000E-01
  8.00000000E-01  8.50000000E-01  8.50000000E-01  8.50000000E-01  8.00000000E-01
  8.50000000E-01  8.50000000E-01  8.50000000E-01  8.00000000E-01  8.50000000E-01
  8.50000000E-01  8.50000000E-01  8.00000000E-01  8.50000000E-01  8.50000000E-01
  8.50000000E-01  8.00000000E-01  8.50000000E-01  8.50000000E-01  8.50000000E-01
  8.00000000E-01  8.50000000E-01  8.50000000E-01  8.50000000E-01  8.00000000E-01
  8.50000000E-01  8.50000000E-01  8.50000000E-01  8.00000000E-01  8.50000000E-01
  8.50000000E-01  8.50000000E-01  8.00000000E-01  8.50000000E-01  8.50000000E-01
  8.50000000E-01  8.00000000E-01  8.50000000E-01  8.50000000E-01  8.50000000E-01
  8.00000000E-01  8.50000000E-01  8.50000000E-01  8.50000000E-01  8.00000000E-01
  8.50000000E-01  8.50000000E-01  8.50000000E-01  8.00000000E-01  8.50000000E-01
  8.50000000E-01  8.50000000E-01  8.00000000E-01  8.50000000E-01  8.50000000E-01
  8.50000000E-01  8.00000000E-01  8.50000000E-01  8.50000000E-01  8.50000000E-01
  8.00000000E-01  8.50000000E-01  8.50000000E-01  8.50000000E-01  8.00000000E-01
  8.50000000E-01  8.50000000E-01  8.50000000E-01  8.00000000E-01  8.50000000E-01
  8.50000000E-01  8.50000000E-01  8.00000000E-01  8.50000000E-01  8.50000000E-01
  8.50000000E-01  8.00000000E-01  8.50000000E-01  8.50000000E-01  8.50000000E-01
  8.00000000E-01  8.50000000E-01  8.50000000E-01  8.50000000E-01  8.00000000E-01
  8.50000000E-01  8.50000000E-01  8.50000000E-01  8.00000000E-01  8.50000000E-01
  8.50000000E-01  8.50000000E-01  8.00000000E-01  8.50000000E-01  8.50000000E-01
  8.50000000E-01  8.00000000E-01  8.50000000E-01  8.50000000E-01  8.50000000E-01
  8.00000000E-01  8.50000000E-01  8.50000000E-01  8.50000000E-01  8.00000000E-01
  8.50000000E-01  8.50000000E-01  8.50000000E-01  8.00000000E-01  8.50000000E-01
  8.50000000E-01  8.50000000E-01  8.00000000E-01  8.50000000E-01  8.50000000E-01
  8.50000000E-01  8.00000000E-01  8.50000000E-01  8.50000000E-01  8.50000000E-01
  8.00000000E-01  8.50000000E-01  8.50000000E-01  8.50000000E-01  8.00000000E-01
  8.50000000E-01  8.50000000E-01  8.50000000E-01  8.00000000E-01  8.50000000E-01
  8.50000000E-01  8.50000000E-01  8.00000000E-01  8.50000000E-01  8.50000000E-01
  8.50000000E-01  8.00000000E-01  8.50000000E-01  8.50000000E-01  8.50000000E-01
  8.00000000E-01  8.50000000E-01  8.50000000E-01  8.50000000E-01  8.00000000E-01
  8.50000000E-01  8.50000000E-01  8.50000000E-01  8.00000000E-01  8.50000000E-01
  8.50000000E-01  8.50000000E-01  8.00000000E-01  8.50000000E-01  8.50000000E-01
  8.50000000E-01  8.00000000E-01  8.50000000E-01  8.50000000E-01  8.50000000E-01
  8.00000000E-01  8.50000000E-01  8.50000000E-01  8.50000000E-01  8.00000000E-01
  8.50000000E-01  8.50000000E-01  8.50000000E-01  8.00000000E-01  8.50000000E-01
  8.50000000E-01  8.50000000E-01  8.00000000E-01  8.50000000E-01  8.50000000E-01
  8.50000000E-01  8.00000000E-01  8.50000000E-01  8.50000000E-01  8.50000000E-01
  8.00000000E-01  8.50000000E-01  8.50000000E-01  8.50000000E-01  8.00000000E-01
  8.50000000E-01  8.50000000E-01  8.50000000E-01  8.00000000E-01  8.50000000E-01
  8.50000000E-01  8.50000000E-01  8.00000000E-01  8.50000000E-01  8.50000000E-01
  8.50000000E-01  8.00000000E-01  8.50000000E-01  8.50000000E-01  8.50000000E-01
  8.00000000E-01  8.50000000E-01  8.50000000E-01  8.50000000E-01  8.00000000E-01
  8.50000000E-01  8.50000000E-01  8.50000000E-01  8.00000000E-01  8.50000000E-01
  8.50000000E-01  8.50000000E-01  8.00000000E-01  8.50000000E-01  8.50000000E-01
  8.50000000E-01  8.00000000E-01  8.50000000E-01  8.50000000E-01  8.50000000E-01
  8.00000000E-01  8.50000000E-01  8.50000000E-01  8.50000000E-01  8.00000000E-01
  8.50000000E-01  8.50000000E-01  8.50000000E-01  8.00000000E-01  8.50000000E-01
  8.50000000E-01  8.50000000E-01  8.00000000E-01  8.50000000E-01  8.50000000E-01
  8.50000000E-01  8.00000000E-01  8.50000000E-01  8.50000000E-01  8.50000000E-01
  8.00000000E-01  8.50000000E-01  8.50000000E-01  8.50000000E-01  8.00000000E-01
  8.50000000E-01  8.50000000E-01  8.50000000E-01  8.00000000E-01  8.50000000E-01
  8.50000000E-01  8.50000000E-01  8.00000000E-01  8.50000000E-01  8.50000000E-01
  8.50000000E-01  8.00000000E-01  8.50000000E-01  8.50000000E-01  8.50000000E-01
  8.00000000E-01  8.50000000E-01  8.50000000E-01  8.50000000E-01  8.00000000E-01
  8.50000000E-01  8.50000000E-01  8.50000000E-01  8.00000000E-01  8.50000000E-01
  8.50000000E-01  8.50000000E-01  8.00000000E-01  8.50000000E-01  8.50000000E-01
  8.50000000E-01  8.00000000E-01  8.50000000E-01  8.50000000E-01  8.50000000E-01
  8.00000000E-01  8.50000000E-01  8.50000000E-01  8.50000000E-01  8.00000000E-01
  8.50000000E-01  8.50000000E-01  8.50000000E-01  8.00000000E-01  8.50000000E-01
  8.50000000E-01  8.50000000E-01  8.00000000E-01  8.50000000E-01  8.50000000E-01
  8.50000000E-01  8.00000000E-01  8.50000000E-01  8.50000000E-01  8.50000000E-01
  8.00000000E-01  8.50000000E-01  8.50000000E-01  8.50000000E-01  8.00000000E-01
  8.50000000E-01  8.50000000E-01  8.50000000E-01  8.00000000E-01  8.50000000E-01
  8.50000000E-01  8.50000000E-01  8.00000000E-01  8.50000000E-01  8.50000000E-01
  8.50000000E-01  8.00000000E-01  8.50000000E-01  8.50000000E-01  8.50000000E-01
  8.00000000E-01  8.50000000E-01  8.50000000E-01  8.50000000E-01  8.00000000E-01
  8.50000000E-01  8.50000000E-01  8.50000000E-01  8.00000000E-01  8.50000000E-01
  8.50000000E-01  8.50000000E-01  8.00000000E-01  8.50000000E-01  8.50000000E-01
  8.50000000E-01  8.00000000E-01  8.50000000E-01  8.50000000E-01  8.50000000E-01
  8.00000000E-01  8.50000000E-01  8.50000000E-01  8.50000000E-01  8.00000000E-01
  8.50000000E-01  8.50000000E-01  8.50000000E-01  8.00000000E-01  8.50000000E-01
  8.50000000E-01  8.50000000E-01  8.00000000E-01  8.50000000E-01  8.50000000E-01
  8.50000000E-01  8.00000000E-01  8.50000000E-01  8.50000000E-01  8.50000000E-01
  8.00000000E-01  8.50000000E-01  8.50000000E-01  8.50000000E-01  8.00000000E-01
  8.50000000E-01  8.50000000E-01  8.50000000E-01  8.00000000E-01  8.50000000E-01
  8.50000000E-01  8.50000000E-01  8.00000000E-01  8.50000000E-01  8.50000000E-01
  8.50000000E-01  8.00000000E-01  8.50000000E-01  8.50000000E-01  8.50000000E-01
  8.00000000E-01  8.50000000E-01  8.50000000E-01  8.50000000E-01  8.00000000E-01
  8.50000000E-01  8.50000000E-01  8.50000000E-01  8.00000000E-01  8.50000000E-01
  8.50000000E-01  8.50000000E-01  8.00000000E-01  8.50000000E-01  8.50000000E-01
  8.50000000E-01  8.00000000E-01  8.50000000E-01  8.50000000E-01  8.50000000E-01
  8.00000000E-01  8.50000000E-01  8.50000000E-01  8.50000000E-01  8.00000000E-01
  8.50000000E-01  8.50000000E-01  8.50000000E-01  8.00000000E-01  8.50000000E-01
  8.50000000E-01  8.50000000E-01  8.00000000E-01  8.50000000E-01  8.50000000E-01
  8.50000000E-01  8.00000000E-01  8.50000000E-01  8.50000000E-01  8.50000000E-01
  8.00000000E-01  8.50000000E-01  8.50000000E-01  8.50000000E-01  8.00000000E-01
  8.50000000E-01  8.50000000E-01  8.50000000E-01  8.00000000E-01  8.50000000E-01
  8.50000000E-01  8.50000000E-01  8.00000000E-01  8.50000000E-01  8.50000000E-01
  8.50000000E-01  8.00000000E-01  8.50000000E-01  8.50000000E-01  8.50000000E-01
  8.00000000E-01  8.50000000E-01  8.50000000E-01  8.50000000E-01  8.00000000E-01
  8.50000000E-01  8.50000000E-01  8.50000000E-01  8.00000000E-01  8.50000000E-01
  8.50000000E-01  8.50000000E-01  8.00000000E-01  8.50000000E-01  8.50000000E-01
  8.50000000E-01  8.00000000E-01  8.50000000E-01  8.50000000E-01  8.50000000E-01
  8.00000000E-01  8.50000000E-01  8.50000000E-01  8.50000000E-01  8.00000000E-01
  8.50000000E-01  8.50000000E-01  8.50000000E-01  8.00000000E-01  8.50000000E-01
  8.50000000E-01  8.50000000E-01  8.00000000E-01  8.50000000E-01  8.50000000E-01
  8.50000000E-01  8.00000000E-01  8.50000000E-01  8.50000000E-01  8.50000000E-01
  8.00000000E-01  8.50000000E-01  8.50000000E-01  8.50000000E-01  8.00000000E-01
  8.50000000E-01  8.50000000E-01  8.50000000E-01  8.00000000E-01  8.50000000E-01
  8.50000000E-01  8.50000000E-01  8.00000000E-01  8.50000000E-01  8.50000000E-01
  8.50000000E-01  8.00000000E-01  8.50000000E-01  8.50000000E-01  8.50000000E-01
  8.00000000E-01  8.50000000E-01  8.50000000E-01  8.50000000E-01  8.00000000E-01
  8.50000000E-01  8.50000000E-01  8.50000000E-01  8.00000000E-01  8.50000000E-01
  8.50000000E-01  8.50000000E-01  8.00000000E-01  8.50000000E-01  8.50000000E-01
  8.50000000E-01  8.00000000E-01  8.50000000E-01  8.50000000E-01  8.50000000E-01
  8.00000000E-01  8.50000000E-01  8.50000000E-01  8.50000000E-01  8.00000000E-01
  8.50000000E-01  8.50000000E-01  8.50000000E-01  8.00000000E-01  8.50000000E-01
  8.50000000E-01  8.50000000E-01  8.00000000E-01  8.50000000E-01  8.50000000E-01
  8.50000000E-01  8.00000000E-01  8.50000000E-01  8.50000000E-01  8.50000000E-01
  8.00000000E-01  8.50000000E-01  8.50000000E-01  8.50000000E-01  8.00000000E-01
  8.50000000E-01  8.50000000E-01  8.50000000E-01  8.00000000E-01  8.50000000E-01
  8.50000000E-01  8.50000000E-01  8.00000000E-01  8.50000000E-01  8.50000000E-01
  8.50000000E-01  8.00000000E-01  8.50000000E-01  8.50000000E-01  8.50000000E-01
  8.00000000E-01  8.50000000E-01  8.50000000E-01  8.50000000E-01  8.00000000E-01
  8.50000000E-01  8.50000000E-01  8.50000000E-01  8.00000000E-01  8.50000000E-01
  8.50000000E-01  8.50000000E-01  8.00000000E-01  8.50000000E-01  8.50000000E-01
  8.50000000E-01  8.00000000E-01  8.50000000E-01  8.50000000E-01  8.50000000E-01
  8.00000000E-01  8.50000000E-01  8.50000000E-01  8.50000000E-01  8.00000000E-01
  8.50000000E-01  8.50000000E-01  8.50000000E-01  8.00000000E-01  8.50000000E-01
  8.50000000E-01  8.50000000E-01  8.00000000E-01  8.50000000E-01  8.50000000E-01
  8.50000000E-01  8.00000000E-01  8.50000000E-01  8.50000000E-01  8.50000000E-01
  8.00000000E-01  8.50000000E-01  8.50000000E-01  8.50000000E-01  8.00000000E-01
  8.50000000E-01  8.50000000E-01  8.50000000E-01  8.00000000E-01  8.50000000E-01
  8.50000000E-01  8.50000000E-01  8.00000000E-01  8.50000000E-01  8.50000000E-01
  8.50000000E-01  8.00000000E-01  8.50000000E-01  8.50000000E-01  8.50000000E-01
  8.00000000E-01  8.50000000E-01  8.50000000E-01  8.50000000E-01  8.00000000E-01
  8.50000000E-01  8.50000000E-01  8.50000000E-01  8.00000000E-01  8.50000000E-01
  8.50000000E-01  8.50000000E-01  8.00000000E-01  8.50000000E-01  8.50000000E-01
  8.50000000E-01  8.00000000E-01  8.50000000E-01  8.50000000E-01  8.50000000E-01
  8.00000000E-01  8.50000000E-01  8.50000000E-01  8.50000000E-01  8.00000000E-01
  8.50000000E-01  8.50000000E-01  8.50000000E-01  8.00000000E-01  8.50000000E-01
  8.50000000E-01  8.50000000E-01  8.00000000E-01  8.50000000E-01  8.50000000E-01
  8.50000000E-01  8.00000000E-01  8.50000000E-01  8.50000000E-01  8.50000000E-01
  8.00000000E-01  8.50000000E-01  8.50000000E-01  8.50000000E-01  8.00000000E-01
  8.50000000E-01  8.50000000E-01  8.50000000E-01  8.00000000E-01  8.50000000E-01
  8.50000000E-01  8.50000000E-01  8.00000000E-01  8.50000000E-01  8.50000000E-01
  8.50000000E-01  8.00000000E-01  8.50000000E-01  8.50000000E-01  8.50000000E-01
  8.00000000E-01  8.50000000E-01  8.50000000E-01  8.50000000E-01  8.00000000E-01
  8.50000000E-01  8.50000000E-01  8.50000000E-01  8.00000000E-01  8.50000000E-01
  8.50000000E-01  8.50000000E-01  8.00000000E-01  8.50000000E-01  8.50000000E-01
  8.50000000E-01  8.00000000E-01  8.50000000E-01  8.50000000E-01  8.50000000E-01
  8.00000000E-01  8.50000000E-01  8.50000000E-01  8.50000000E-01  8.00000000E-01
  8.50000000E-01  8.50000000E-01  8.50000000E-01  8.00000000E-01  8.50000000E-01
  8.50000000E-01  8.50000000E-01  8.00000000E-01  8.50000000E-01  8.50000000E-01
  8.50000000E-01  8.00000000E-01  8.50000000E-01  8.50000000E-01  8.50000000E-01
  8.00000000E-01  8.50000000E-01  8.50000000E-01  8.50000000E-01  8.00000000E-01
  8.50000000E-01  8.50000000E-01  8.50000000E-01  8.00000000E-01  8.50000000E-01
  8.50000000E-01  8.50000000E-01  8.00000000E-01  8.50000000E-01  8.50000000E-01
  8.50000000E-01  8.00000000E-01  8.50000000E-01  8.50000000E-01  8.50000000E-01
  8.00000000E-01  8.50000000E-01  8.50000000E-01  8.50000000E-01  8.00000000E-01
  8.50000000E-01  8.50000000E-01  8.50000000E-01  8.00000000E-01  8.50000000E-01
  8.50000000E-01  8.50000000E-01  8.00000000E-01  8.50000000E-01  8.50000000E-01
  8.50000000E-01  8.00000000E-01  8.50000000E-01  8.50000000E-01  8.50000000E-01
  8.00000000E-01  8.50000000E-01  8.50000000E-01  8.50000000E-01  8.00000000E-01
  8.50000000E-01  8.50000000E-01  8.50000000E-01  8.00000000E-01  8.50000000E-01
  8.50000000E-01  8.50000000E-01  8.00000000E-01  8.50000000E-01  8.50000000E-01
  8.50000000E-01  8.00000000E-01  8.50000000E-01  8.50000000E-01  8.50000000E-01
  8.00000000E-01  8.50000000E-01  8.50000000E-01  8.50000000E-01  8.00000000E-01
  8.50000000E-01  8.50000000E-01  8.50000000E-01  8.00000000E-01  8.50000000E-01
  8.50000000E-01  8.50000000E-01  8.00000000E-01  8.50000000E-01  8.50000000E-01
  8.50000000E-01  8.00000000E-01  8.50000000E-01  8.50000000E-01  8.50000000E-01
  8.00000000E-01  8.50000000E-01  8.50000000E-01  8.50000000E-01  8.00000000E-01
  8.50000000E-01  8.50000000E-01  8.50000000E-01  8.00000000E-01  8.50000000E-01
  8.50000000E-01  8.50000000E-01  8.00000000E-01  8.50000000E-01  8.50000000E-01
  8.50000000E-01  8.00000000E-01  8.50000000E-01  8.50000000E-01  8.50000000E-01
  8.00000000E-01  8.50000000E-01  8.50000000E-01  8.50000000E-01  8.00000000E-01
  8.50000000E-01  8.50000000E-01  8.50000000E-01  8.00000000E-01  8.50000000E-01
  8.50000000E-01  8.50000000E-01  8.00000000E-01  8.50000000E-01  8.50000000E-01
  8.50000000E-01  8.00000000E-01  8.50000000E-01  8.50000000E-01  8.50000000E-01
  8.00000000E-01  8.50000000E-01  8.50000000E-01  8.50000000E-01  8.00000000E-01
  8.50000000E-01  8.50000000E-01  8.50000000E-01  8.00000000E-01  8.50000000E-01
  8.50000000E-01  8.50000000E-01  8.00000000E-01  8.50000000E-01  8.50000000E-01
  8.50000000E-01  8.00000000E-01  8.50000000E-01  8.50000000E-01  8.50000000E-01
  8.00000000E-01  8.50000000E-01  8.50000000E-01  8.50000000E-01  8.00000000E-01
  8.50000000E-01  8.50000000E-01  8.50000000E-01  8.00000000E-01  8.50000000E-01
  8.50000000E-01  8.50000000E-01  8.00000000E-01  8.50000000E-01  8.50000000E-01
  8.50000000E-01  8.00000000E-01  8.50000000E-01  8.50000000E-01  8.50000000E-01
  8.00000000E-01  8.50000000E-01  8.50000000E-01  8.50000000E-01  8.00000000E-01
  8.50000000E-01  8.50000000E-01  8.50000000E-01  8.00000000E-01  8.50000000E-01
  8.50000000E-01  8.50000000E-01  8.00000000E-01  8.50000000E-01  8.50000000E-01
  8.50000000E-01  8.00000000E-01  8.50000000E-01  8.50000000E-01  8.50000000E-01
  8.00000000E-01  8.50000000E-01  8.50000000E-01  8.50000000E-01  8.00000000E-01
  8.50000000E-01  8.50000000E-01  8.50000000E-01  8.00000000E-01  8.50000000E-01
  8.50000000E-01  8.50000000E-01  8.00000000E-01  8.50000000E-01  8.50000000E-01
  8.50000000E-01  8.00000000E-01  8.50000000E-01  8.50000000E-01  8.50000000E-01
  8.00000000E-01  8.50000000E-01  8.50000000E-01  8.50000000E-01  8.00000000E-01
  8.50000000E-01  8.50000000E-01  8.50000000E-01  8.00000000E-01  8.50000000E-01
  8.50000000E-01  8.50000000E-01  8.00000000E-01  8.50000000E-01  8.50000000E-01
  8.50000000E-01  8.00000000E-01  8.50000000E-01  8.50000000E-01  8.50000000E-01
  8.00000000E-01  8.50000000E-01  8.50000000E-01  8.50000000E-01  8.00000000E-01
  8.50000000E-01  8.50000000E-01  8.50000000E-01  8.00000000E-01  8.50000000E-01
  8.50000000E-01  8.50000000E-01  8.00000000E-01  8.50000000E-01  8.50000000E-01
  8.50000000E-01  8.00000000E-01  8.50000000E-01  8.50000000E-01  8.50000000E-01
  8.00000000E-01  8.50000000E-01  8.50000000E-01  8.50000000E-01  8.00000000E-01
  8.50000000E-01  8.50000000E-01  8.50000000E-01  8.00000000E-01  8.50000000E-01
  8.50000000E-01  8.50000000E-01  8.00000000E-01  8.50000000E-01  8.50000000E-01
  8.50000000E-01  8.00000000E-01  8.50000000E-01  8.50000000E-01  8.50000000E-01
  8.00000000E-01  8.50000000E-01  8.50000000E-01  8.50000000E-01  8.00000000E-01
  8.50000000E-01  8.50000000E-01  8.50000000E-01  8.00000000E-01  8.50000000E-01
  8.50000000E-01  8.50000000E-01  8.00000000E-01  8.50000000E-01  8.50000000E-01
  8.50000000E-01  8.00000000E-01  8.50000000E-01  8.50000000E-01  8.50000000E-01
  8.00000000E-01  8.50000000E-01  8.50000000E-01  8.50000000E-01  8.00000000E-01
  8.50000000E-01  8.50000000E-01  8.50000000E-01  8.00000000E-01  8.50000000E-01
  8.50000000E-01  8.50000000E-01  8.00000000E-01  8.50000000E-01  8.50000000E-01
  8.50000000E-01  8.00000000E-01  8.50000000E-01  8.50000000E-01  8.50000000E-01
  8.00000000E-01  8.50000000E-01  8.50000000E-01  8.50000000E-01  8.00000000E-01
  8.50000000E-01  8.50000000E-01  8.50000000E-01  8.00000000E-01  8.50000000E-01
  8.50000000E-01  8.50000000E-01  8.00000000E-01  8.50000000E-01  8.50000000E-01
  8.50000000E-01  8.00000000E-01  8.50000000E-01  8.50000000E-01  8.50000000E-01
  8.00000000E-01  8.50000000E-01  8.50000000E-01  8.50000000E-01  8.00000000E-01
  8.50000000E-01  8.50000000E-01  8.50000000E-01  8.00000000E-01  8.50000000E-01
  8.50000000E-01  8.50000000E-01  8.00000000E-01  8.50000000E-01  8.50000000E-01
  8.50000000E-01  8.00000000E-01  8.50000000E-01  8.50000000E-01  8.50000000E-01
  8.00000000E-01  8.50000000E-01  8.50000000E-01  8.50000000E-01  8.00000000E-01
  8.50000000E-01  8.50000000E-01  8.50000000E-01  8.00000000E-01  8.50000000E-01
  8.50000000E-01  8.50000000E-01  8.00000000E-01  8.50000000E-01  8.50000000E-01
  8.50000000E-01  8.00000000E-01  8.50000000E-01  8.50000000E-01  8.50000000E-01
  8.00000000E-01  8.50000000E-01  8.50000000E-01  8.50000000E-01  8.00000000E-01
  8.50000000E-01  8.50000000E-01  8.50000000E-01  8.00000000E-01  8.50000000E-01
  8.50000000E-01  8.50000000E-01  8.00000000E-01  8.50000000E-01  8.50000000E-01
  8.50000000E-01  8.00000000E-01  8.50000000E-01  8.50000000E-01  8.50000000E-01
  8.00000000E-01  8.50000000E-01  8.50000000E-01  8.50000000E-01  8.00000000E-01
  8.50000000E-01  8.50000000E-01  8.50000000E-01  8.00000000E-01  8.50000000E-01
  8.50000000E-01  8.50000000E-01  8.00000000E-01  8.50000000E-01  8.50000000E-01
  8.50000000E-01  8.00000000E-01  8.50000000E-01  8.50000000E-01  8.50000000E-01
  8.00000000E-01  8.50000000E-01  8.50000000E-01  8.50000000E-01  8.00000000E-01
  8.50000000E-01  8.50000000E-01  8.50000000E-01  8.00000000E-01  8.50000000E-01
  8.50000000E-01  8.50000000E-01  8.00000000E-01  8.50000000E-01  8.50000000E-01
  8.50000000E-01  8.00000000E-01  8.50000000E-01  8.50000000E-01  8.50000000E-01
  8.00000000E-01  8.50000000E-01  8.50000000E-01  8.50000000E-01  8.00000000E-01
  8.50000000E-01  8.50000000E-01  8.50000000E-01  8.00000000E-01  8.50000000E-01
  8.50000000E-01  8.50000000E-01  8.00000000E-01  8.50000000E-01  8.50000000E-01
  8.50000000E-01  8.00000000E-01  8.50000000E-01  8.50000000E-01  8.50000000E-01
  8.00000000E-01  8.50000000E-01  8.50000000E-01  8.50000000E-01  8.00000000E-01
  8.50000000E-01  8.50000000E-01  8.50000000E-01  8.00000000E-01  8.50000000E-01
  8.50000000E-01  8.50000000E-01  8.00000000E-01  8.50000000E-01  8.50000000E-01
  8.50000000E-01  8.00000000E-01  8.50000000E-01  8.50000000E-01  8.50000000E-01
  8.00000000E-01  8.50000000E-01  8.50000000E-01  8.50000000E-01  8.00000000E-01
  8.50000000E-01  8.50000000E-01  8.50000000E-01  8.00000000E-01  8.50000000E-01
  8.50000000E-01  8.50000000E-01  8.00000000E-01  8.50000000E-01  8.50000000E-01
  8.50000000E-01  8.00000000E-01  8.50000000E-01  8.50000000E-01  8.50000000E-01
  8.00000000E-01  8.50000000E-01  8.50000000E-01  8.50000000E-01  8.00000000E-01
  8.50000000E-01  8.50000000E-01  8.50000000E-01  8.00000000E-01  8.50000000E-01
  8.50000000E-01  8.50000000E-01  8.00000000E-01  8.50000000E-01  8.50000000E-01
  8.50000000E-01  8.00000000E-01  8.50000000E-01  8.50000000E-01  8.50000000E-01
  8.00000000E-01  8.50000000E-01  8.50000000E-01  8.50000000E-01  8.00000000E-01
  8.50000000E-01  8.50000000E-01  8.50000000E-01  8.00000000E-01  8.50000000E-01
  8.50000000E-01  8.50000000E-01  8.00000000E-01  8.50000000E-01  8.50000000E-01
  8.50000000E-01  8.00000000E-01  8.50000000E-01  8.50000000E-01  8.50000000E-01
  8.00000000E-01  8.50000000E-01  8.50000000E-01  8.50000000E-01  8.00000000E-01
  8.50000000E-01  8.50000000E-01  8.50000000E-01  8.00000000E-01  8.50000000E-01
  8.50000000E-01  8.50000000E-01  8.00000000E-01  8.50000000E-01  8.50000000E-01
  8.50000000E-01  8.00000000E-01  8.50000000E-01  8.50000000E-01  8.50000000E-01
  8.00000000E-01  8.50000000E-01  8.50000000E-01  8.50000000E-01  8.00000000E-01
  8.50000000E-01  8.50000000E-01  8.50000000E-01  8.00000000E-01  8.50000000E-01
  8.50000000E-01  8.50000000E-01  8.00000000E-01  8.50000000E-01  8.50000000E-01
  8.50000000E-01  8.00000000E-01  8.50000000E-01  8.50000000E-01  8.50000000E-01
  8.00000000E-01  8.50000000E-01  8.50000000E-01  8.50000000E-01  8.00000000E-01
  8.50000000E-01  8.50000000E-01  8.50000000E-01  8.00000000E-01  8.50000000E-01
  8.50000000E-01  8.50000000E-01  8.00000000E-01  8.50000000E-01  8.50000000E-01
  8.50000000E-01  8.00000000E-01  8.50000000E-01  8.50000000E-01  8.50000000E-01
  8.00000000E-01  8.50000000E-01  8.50000000E-01  8.50000000E-01  8.00000000E-01
  8.50000000E-01  8.50000000E-01  8.50000000E-01  8.00000000E-01  8.50000000E-01
  8.50000000E-01  8.50000000E-01  8.00000000E-01  8.50000000E-01  8.50000000E-01
  8.50000000E-01  8.00000000E-01  8.50000000E-01  8.50000000E-01  8.50000000E-01
  8.00000000E-01  8.50000000E-01  8.50000000E-01  8.50000000E-01  8.00000000E-01
  8.50000000E-01  8.50000000E-01  8.50000000E-01  8.00000000E-01  8.50000000E-01
  8.50000000E-01  8.50000000E-01  8.00000000E-01  8.50000000E-01  8.50000000E-01
  8.50000000E-01  8.00000000E-01  8.50000000E-01  8.50000000E-01  8.50000000E-01
  8.00000000E-01  8.50000000E-01  8.50000000E-01  8.50000000E-01  8.00000000E-01
  8.50000000E-01  8.50000000E-01  8.50000000E-01  8.00000000E-01  8.50000000E-01
  8.50000000E-01  8.50000000E-01  8.00000000E-01  8.50000000E-01  8.50000000E-01
  8.50000000E-01  8.00000000E-01  8.50000000E-01  8.50000000E-01  8.50000000E-01
  8.00000000E-01  8.50000000E-01  8.50000000E-01  8.50000000E-01  8.00000000E-01
  8.50000000E-01  8.50000000E-01  8.50000000E-01  8.00000000E-01  8.50000000E-01
  8.50000000E-01  8.50000000E-01  8.00000000E-01  8.50000000E-01  8.50000000E-01
  8.50000000E-01  8.00000000E-01  8.50000000E-01  8.50000000E-01  8.50000000E-01
  8.00000000E-01  8.50000000E-01  8.50000000E-01  8.50000000E-01  8.00000000E-01
  8.50000000E-01  8.50000000E-01  8.50000000E-01  8.00000000E-01  8.50000000E-01
  8.50000000E-01  8.50000000E-01  8.00000000E-01  8.50000000E-01  8.50000000E-01
  8.50000000E-01  8.00000000E-01  8.50000000E-01  8.50000000E-01  8.50000000E-01
  8.00000000E-01  8.50000000E-01  8.50000000E-01  8.50000000E-01  8.00000000E-01
  8.50000000E-01  8.50000000E-01  8.50000000E-01  8.00000000E-01  8.50000000E-01
  8.50000000E-01  8.50000000E-01  8.00000000E-01  8.50000000E-01  8.50000000E-01
  8.50000000E-01  8.00000000E-01  8.50000000E-01  8.50000000E-01  8.50000000E-01
  8.00000000E-01  8.50000000E-01  8.50000000E-01  8.50000000E-01  8.00000000E-01
  8.50000000E-01  8.50000000E-01  8.50000000E-01  8.00000000E-01  8.50000000E-01
  8.50000000E-01  8.50000000E-01  8.00000000E-01  8.50000000E-01  8.50000000E-01
  8.50000000E-01  8.00000000E-01  8.50000000E-01  8.50000000E-01  8.50000000E-01
  8.00000000E-01  8.50000000E-01  8.50000000E-01  8.50000000E-01  8.00000000E-01
  8.50000000E-01  8.50000000E-01  8.50000000E-01  8.00000000E-01  8.50000000E-01
  8.50000000E-01  8.50000000E-01  8.00000000E-01  8.50000000E-01  8.50000000E-01
  8.50000000E-01  8.00000000E-01  8.50000000E-01  8.50000000E-01  8.50000000E-01
  8.00000000E-01  8.50000000E-01  8.50000000E-01  8.50000000E-01  8.00000000E-01
  8.50000000E-01  8.50000000E-01  8.50000000E-01  8.00000000E-01  8.50000000E-01
  8.50000000E-01  8.50000000E-01  8.00000000E-01  8.50000000E-01  8.50000000E-01
  8.50000000E-01  8.00000000E-01  8.50000000E-01  8.50000000E-01  8.50000000E-01
  8.00000000E-01  8.50000000E-01  8.50000000E-01  8.50000000E-01  8.00000000E-01
  8.50000000E-01  8.50000000E-01  8.50000000E-01  8.00000000E-01  8.50000000E-01
  8.50000000E-01  8.50000000E-01  8.00000000E-01  8.50000000E-01  8.50000000E-01
  8.50000000E-01  8.00000000E-01  8.50000000E-01  8.50000000E-01  8.50000000E-01
  8.00000000E-01  8.50000000E-01  8.50000000E-01  8.50000000E-01  8.00000000E-01
  8.50000000E-01  8.50000000E-01  8.50000000E-01  8.00000000E-01  8.50000000E-01
  8.50000000E-01  8.50000000E-01  8.00000000E-01  8.50000000E-01  8.50000000E-01
  8.50000000E-01  8.00000000E-01  8.50000000E-01  8.50000000E-01  8.50000000E-01
  8.00000000E-01  8.50000000E-01  8.50000000E-01  8.50000000E-01  8.00000000E-01
  8.50000000E-01  8.50000000E-01  8.50000000E-01  8.00000000E-01  8.50000000E-01
  8.50000000E-01  8.50000000E-01  8.00000000E-01  8.50000000E-01  8.50000000E-01
  8.50000000E-01  8.00000000E-01  8.50000000E-01  8.50000000E-01  8.50000000E-01
  8.00000000E-01  8.50000000E-01  8.50000000E-01  8.50000000E-01  8.00000000E-01
  8.50000000E-01  8.50000000E-01  8.50000000E-01  8.00000000E-01  8.50000000E-01
  8.50000000E-01  8.50000000E-01  8.00000000E-01  8.50000000E-01  8.50000000E-01
  8.50000000E-01  8.00000000E-01  8.50000000E-01  8.50000000E-01  8.50000000E-01
  8.00000000E-01  8.50000000E-01  8.50000000E-01  8.50000000E-01  8.00000000E-01
  8.50000000E-01  8.50000000E-01  8.50000000E-01  8.00000000E-01  8.50000000E-01
  8.50000000E-01  8.50000000E-01  8.00000000E-01  8.50000000E-01  8.50000000E-01
  8.50000000E-01  8.00000000E-01  8.50000000E-01  8.50000000E-01  8.50000000E-01
  8.00000000E-01  8.50000000E-01  8.50000000E-01  8.50000000E-01  8.00000000E-01
  8.50000000E-01  8.50000000E-01  8.50000000E-01  8.00000000E-01  8.50000000E-01
  8.50000000E-01  8.50000000E-01  8.00000000E-01  8.50000000E-01  8.50000000E-01
  8.50000000E-01  8.00000000E-01  8.50000000E-01  8.50000000E-01  8.50000000E-01
  8.00000000E-01  8.50000000E-01  8.50000000E-01  8.50000000E-01  8.00000000E-01
  8.50000000E-01  8.50000000E-01  8.50000000E-01  8.00000000E-01  8.50000000E-01
  8.50000000E-01  8.50000000E-01  8.00000000E-01  8.50000000E-01  8.50000000E-01
  8.50000000E-01  8.00000000E-01  8.50000000E-01  8.50000000E-01  8.50000000E-01
  8.00000000E-01  8.50000000E-01  8.50000000E-01  8.50000000E-01  8.00000000E-01
  8.50000000E-01  8.50000000E-01  8.50000000E-01  8.00000000E-01  8.50000000E-01
  8.50000000E-01  8.50000000E-01  8.00000000E-01  8.50000000E-01  8.50000000E-01
  8.50000000E-01  8.00000000E-01  8.50000000E-01  8.50000000E-01  8.50000000E-01
  8.00000000E-01  8.50000000E-01  8.50000000E-01  8.50000000E-01  8.00000000E-01
  8.50000000E-01  8.50000000E-01  8.50000000E-01  8.00000000E-01  8.50000000E-01
  8.50000000E-01  8.50000000E-01  8.00000000E-01  8.50000000E-01  8.50000000E-01
  8.50000000E-01  8.00000000E-01  8.50000000E-01  8.50000000E-01  8.50000000E-01
  8.00000000E-01  8.50000000E-01  8.50000000E-01  8.50000000E-01  8.00000000E-01
  8.50000000E-01  8.50000000E-01  8.50000000E-01  8.00000000E-01  8.50000000E-01
  8.50000000E-01  8.50000000E-01  8.00000000E-01  8.50000000E-01  8.50000000E-01
  8.50000000E-01  8.00000000E-01  8.50000000E-01  8.50000000E-01  8.50000000E-01
  8.00000000E-01  8.50000000E-01  8.50000000E-01  8.50000000E-01  8.00000000E-01
  8.50000000E-01  8.50000000E-01  8.50000000E-01  8.00000000E-01  8.50000000E-01
  8.50000000E-01  8.50000000E-01  8.00000000E-01  8.50000000E-01  8.50000000E-01
  8.50000000E-01  8.00000000E-01  8.50000000E-01  8.50000000E-01  8.50000000E-01
  8.00000000E-01  8.50000000E-01  8.50000000E-01  8.50000000E-01  8.00000000E-01
  8.50000000E-01  8.50000000E-01  8.50000000E-01  8.00000000E-01  8.50000000E-01
  8.50000000E-01  8.50000000E-01  8.00000000E-01  8.50000000E-01  8.50000000E-01
  8.50000000E-01  8.00000000E-01  8.50000000E-01  8.50000000E-01  8.50000000E-01
  8.00000000E-01  8.50000000E-01  8.50000000E-01  8.50000000E-01  8.00000000E-01
  8.50000000E-01  8.50000000E-01  8.50000000E-01  8.00000000E-01  8.50000000E-01
  8.50000000E-01  8.50000000E-01  8.00000000E-01  8.50000000E-01  8.50000000E-01
  8.50000000E-01  8.00000000E-01  8.50000000E-01  8.50000000E-01  8.50000000E-01
  8.00000000E-01  8.50000000E-01  8.50000000E-01  8.50000000E-01  8.00000000E-01
  8.50000000E-01  8.50000000E-01  8.50000000E-01  8.00000000E-01  8.50000000E-01
  8.50000000E-01  8.50000000E-01  8.00000000E-01  8.50000000E-01  8.50000000E-01
  8.50000000E-01  8.00000000E-01  8.50000000E-01  8.50000000E-01  8.50000000E-01
  8.00000000E-01  8.50000000E-01  8.50000000E-01  8.50000000E-01  8.00000000E-01
  8.50000000E-01  8.50000000E-01  8.50000000E-01  8.00000000E-01  8.50000000E-01
  8.50000000E-01  8.50000000E-01  8.00000000E-01  8.50000000E-01  8.50000000E-01
  8.50000000E-01  8.00000000E-01  8.50000000E-01  8.50000000E-01  8.50000000E-01
  8.00000000E-01  8.50000000E-01  8.50000000E-01  8.50000000E-01  8.00000000E-01
  8.50000000E-01  8.50000000E-01  8.50000000E-01  8.00000000E-01  8.50000000E-01
  8.50000000E-01  8.50000000E-01  8.00000000E-01  8.50000000E-01  8.50000000E-01
  8.50000000E-01  8.00000000E-01  8.50000000E-01  8.50000000E-01  8.50000000E-01
  8.00000000E-01  8.50000000E-01  8.50000000E-01  8.50000000E-01  8.00000000E-01
  8.50000000E-01  8.50000000E-01  8.50000000E-01  8.00000000E-01  8.50000000E-01
  8.50000000E-01  8.50000000E-01  8.00000000E-01  8.50000000E-01  8.50000000E-01
  8.50000000E-01  8.00000000E-01  8.50000000E-01  8.50000000E-01  8.50000000E-01
  8.00000000E-01  8.50000000E-01  8.50000000E-01  8.50000000E-01  8.00000000E-01
  8.50000000E-01  8.50000000E-01  8.50000000E-01  8.00000000E-01  8.50000000E-01
  8.50000000E-01  8.50000000E-01  8.00000000E-01  8.50000000E-01  8.50000000E-01
  8.50000000E-01  8.00000000E-01  8.50000000E-01  8.50000000E-01  8.50000000E-01
  8.00000000E-01  8.50000000E-01  8.50000000E-01  8.50000000E-01  8.00000000E-01
  8.50000000E-01  8.50000000E-01  8.50000000E-01  8.00000000E-01  8.50000000E-01
  8.50000000E-01  8.50000000E-01  8.00000000E-01  8.50000000E-01  8.50000000E-01
  8.50000000E-01  8.00000000E-01  8.50000000E-01  8.50000000E-01  8.50000000E-01
  8.00000000E-01  8.50000000E-01  8.50000000E-01  8.50000000E-01  8.00000000E-01
  8.50000000E-01  8.50000000E-01  8.50000000E-01  8.00000000E-01  8.50000000E-01
  8.50000000E-01  8.50000000E-01  8.00000000E-01  8.50000000E-01  8.50000000E-01
  8.50000000E-01  8.00000000E-01  8.50000000E-01  8.50000000E-01  8.50000000E-01
  8.00000000E-01  8.50000000E-01  8.50000000E-01  8.50000000E-01  8.00000000E-01
  8.50000000E-01  8.50000000E-01  8.50000000E-01  8.00000000E-01  8.50000000E-01
  8.50000000E-01  8.50000000E-01  8.00000000E-01  8.50000000E-01  8.50000000E-01
  8.50000000E-01  8.00000000E-01  8.50000000E-01  8.50000000E-01  8.50000000E-01
  8.00000000E-01  8.50000000E-01  8.50000000E-01  8.50000000E-01  8.00000000E-01
  8.50000000E-01  8.50000000E-01  8.50000000E-01  8.00000000E-01  8.50000000E-01
  8.50000000E-01  8.50000000E-01  8.00000000E-01  8.50000000E-01  8.50000000E-01
  8.50000000E-01  8.00000000E-01  8.50000000E-01  8.50000000E-01  8.50000000E-01
  8.00000000E-01  8.50000000E-01  8.50000000E-01  8.50000000E-01  8.00000000E-01
  8.50000000E-01  8.50000000E-01  8.50000000E-01  8.00000000E-01  8.50000000E-01
  8.50000000E-01  8.50000000E-01  8.00000000E-01  8.50000000E-01  8.50000000E-01
  8.50000000E-01  8.00000000E-01  8.50000000E-01  8.50000000E-01  8.50000000E-01
  8.00000000E-01  8.50000000E-01  8.50000000E-01  8.50000000E-01  8.00000000E-01
  8.50000000E-01  8.50000000E-01  8.50000000E-01  8.00000000E-01  8.50000000E-01
  8.50000000E-01  8.50000000E-01  8.00000000E-01  8.50000000E-01  8.50000000E-01
  8.50000000E-01  8.00000000E-01  8.50000000E-01  8.50000000E-01  8.50000000E-01
  8.00000000E-01  8.50000000E-01  8.50000000E-01  8.50000000E-01  8.00000000E-01
  8.50000000E-01  8.50000000E-01  8.50000000E-01  8.00000000E-01  8.50000000E-01
  8.50000000E-01  8.50000000E-01  8.00000000E-01  8.50000000E-01  8.50000000E-01
  8.50000000E-01  8.00000000E-01  8.50000000E-01  8.50000000E-01  8.50000000E-01
  8.00000000E-01  8.50000000E-01  8.50000000E-01  8.50000000E-01  8.00000000E-01
  8.50000000E-01  8.50000000E-01  8.50000000E-01  8.00000000E-01  8.50000000E-01
  8.50000000E-01  8.50000000E-01  8.00000000E-01  8.50000000E-01  8.50000000E-01
  8.50000000E-01  8.00000000E-01  8.50000000E-01  8.50000000E-01  8.50000000E-01
  8.00000000E-01  8.50000000E-01  8.50000000E-01  8.50000000E-01  8.00000000E-01
  8.50000000E-01  8.50000000E-01  8.50000000E-01  8.00000000E-01  8.50000000E-01
  8.50000000E-01  8.50000000E-01  8.00000000E-01  8.50000000E-01  8.50000000E-01
  8.50000000E-01  8.00000000E-01  8.50000000E-01  8.50000000E-01  8.50000000E-01
  8.00000000E-01  8.50000000E-01  8.50000000E-01  8.50000000E-01  8.00000000E-01
  8.50000000E-01  8.50000000E-01  8.50000000E-01  8.00000000E-01  8.50000000E-01
  8.50000000E-01  8.50000000E-01  8.00000000E-01  8.50000000E-01  8.50000000E-01
  8.50000000E-01  8.00000000E-01  8.50000000E-01  8.50000000E-01  8.50000000E-01
  8.00000000E-01  8.50000000E-01  8.50000000E-01  8.50000000E-01  8.00000000E-01
  8.50000000E-01  8.50000000E-01  8.50000000E-01  8.00000000E-01  8.50000000E-01
  8.50000000E-01  8.50000000E-01  8.00000000E-01  8.50000000E-01  8.50000000E-01
  8.50000000E-01  8.00000000E-01  8.50000000E-01  8.50000000E-01  8.50000000E-01
  8.00000000E-01  8.50000000E-01  8.50000000E-01  8.50000000E-01  8.00000000E-01
  8.50000000E-01  8.50000000E-01  8.50000000E-01  8.00000000E-01  8.50000000E-01
  8.50000000E-01  8.50000000E-01  8.00000000E-01  8.50000000E-01  8.50000000E-01
  8.50000000E-01  8.00000000E-01  8.50000000E-01  8.50000000E-01  8.50000000E-01
  8.00000000E-01  8.50000000E-01  8.50000000E-01  8.50000000E-01  8.00000000E-01
  8.50000000E-01  8.50000000E-01  8.50000000E-01  8.00000000E-01  8.50000000E-01
  8.50000000E-01  8.50000000E-01  8.00000000E-01  8.50000000E-01  8.50000000E-01
  8.50000000E-01  8.00000000E-01  8.50000000E-01  8.50000000E-01  8.50000000E-01
  8.00000000E-01  8.50000000E-01  8.50000000E-01  8.50000000E-01  8.00000000E-01
  8.50000000E-01  8.50000000E-01  8.50000000E-01  8.00000000E-01  8.50000000E-01
  8.50000000E-01  8.50000000E-01  8.00000000E-01  8.50000000E-01  8.50000000E-01
  8.50000000E-01  8.00000000E-01  8.50000000E-01  8.50000000E-01  8.50000000E-01
  8.00000000E-01  8.50000000E-01  8.50000000E-01  8.50000000E-01  8.00000000E-01
  8.50000000E-01  8.50000000E-01  8.50000000E-01  8.00000000E-01  8.50000000E-01
  8.50000000E-01  8.50000000E-01  8.00000000E-01  8.50000000E-01  8.50000000E-01
  8.50000000E-01  8.00000000E-01  8.50000000E-01  8.50000000E-01  8.50000000E-01
  8.00000000E-01  8.50000000E-01  8.50000000E-01  8.50000000E-01  8.00000000E-01
  8.50000000E-01  8.50000000E-01  8.50000000E-01  8.00000000E-01  8.50000000E-01
  8.50000000E-01  8.50000000E-01  8.00000000E-01  8.50000000E-01  8.50000000E-01
  8.50000000E-01  8.00000000E-01  8.50000000E-01  8.50000000E-01  8.50000000E-01
  8.00000000E-01  8.50000000E-01  8.50000000E-01  8.50000000E-01  8.00000000E-01
  8.50000000E-01  8.50000000E-01  8.50000000E-01  8.00000000E-01  8.50000000E-01
  8.50000000E-01  8.50000000E-01  8.00000000E-01  8.50000000E-01  8.50000000E-01
  8.50000000E-01  8.00000000E-01  8.50000000E-01  8.50000000E-01  8.50000000E-01
  8.00000000E-01  8.50000000E-01  8.50000000E-01  8.50000000E-01  8.00000000E-01
  8.50000000E-01  8.50000000E-01  8.50000000E-01  8.00000000E-01  8.50000000E-01
  8.50000000E-01  8.50000000E-01  8.00000000E-01  8.50000000E-01  8.50000000E-01
  8.50000000E-01  8.00000000E-01  8.50000000E-01  8.50000000E-01  8.50000000E-01
  8.00000000E-01  8.50000000E-01  8.50000000E-01  8.50000000E-01  8.00000000E-01
  8.50000000E-01  8.50000000E-01  8.50000000E-01  8.00000000E-01  8.50000000E-01
  8.50000000E-01  8.50000000E-01  8.00000000E-01  8.50000000E-01  8.50000000E-01
  8.50000000E-01  8.00000000E-01  8.50000000E-01  8.50000000E-01  8.50000000E-01
  8.00000000E-01  8.50000000E-01  8.50000000E-01  8.50000000E-01  8.00000000E-01
  8.50000000E-01  8.50000000E-01  8.50000000E-01  8.00000000E-01  8.50000000E-01
  8.50000000E-01  8.50000000E-01  8.00000000E-01  8.50000000E-01  8.50000000E-01
  8.50000000E-01  8.00000000E-01  8.50000000E-01  8.50000000E-01  8.50000000E-01
  8.00000000E-01  8.50000000E-01  8.50000000E-01  8.50000000E-01  8.00000000E-01
  8.50000000E-01  8.50000000E-01  8.50000000E-01  8.00000000E-01  8.50000000E-01
  8.50000000E-01  8.50000000E-01  8.00000000E-01  8.50000000E-01  8.50000000E-01
  8.50000000E-01  8.00000000E-01  8.50000000E-01  8.50000000E-01  8.50000000E-01
  8.00000000E-01  8.50000000E-01  8.50000000E-01  8.50000000E-01  8.00000000E-01
  8.50000000E-01  8.50000000E-01  8.50000000E-01  8.00000000E-01  8.50000000E-01
  8.50000000E-01  8.50000000E-01  8.00000000E-01  8.50000000E-01  8.50000000E-01
  8.50000000E-01  8.00000000E-01  8.50000000E-01  8.50000000E-01  8.50000000E-01
  8.00000000E-01  8.50000000E-01  8.50000000E-01  8.50000000E-01  8.00000000E-01
  8.50000000E-01  8.50000000E-01  8.50000000E-01  8.00000000E-01  8.50000000E-01
  8.50000000E-01  8.50000000E-01  8.00000000E-01  8.50000000E-01  8.50000000E-01
  8.50000000E-01  8.00000000E-01  8.50000000E-01  8.50000000E-01  8.50000000E-01
  8.00000000E-01  8.50000000E-01  8.50000000E-01  8.50000000E-01  8.00000000E-01
  8.50000000E-01  8.50000000E-01  8.50000000E-01  8.00000000E-01  8.50000000E-01
  8.50000000E-01  8.50000000E-01  8.00000000E-01  8.50000000E-01  8.50000000E-01
  8.50000000E-01  8.00000000E-01  8.50000000E-01  8.50000000E-01  8.50000000E-01
  8.00000000E-01  8.50000000E-01  8.50000000E-01  8.50000000E-01  8.00000000E-01
  8.50000000E-01  8.50000000E-01  8.50000000E-01  8.00000000E-01  8.50000000E-01
  8.50000000E-01  8.50000000E-01  8.00000000E-01  8.50000000E-01  8.50000000E-01
  8.50000000E-01  8.00000000E-01  8.50000000E-01  8.50000000E-01  8.50000000E-01
  8.00000000E-01  8.50000000E-01  8.50000000E-01  8.50000000E-01  8.00000000E-01
  8.50000000E-01  8.50000000E-01  8.50000000E-01  8.00000000E-01  8.50000000E-01
  8.50000000E-01  8.50000000E-01  8.00000000E-01  8.50000000E-01  8.50000000E-01
  8.50000000E-01  8.00000000E-01  8.50000000E-01  8.50000000E-01  8.50000000E-01
  8.00000000E-01  8.50000000E-01  8.50000000E-01  8.50000000E-01  8.00000000E-01
  8.50000000E-01  8.50000000E-01  8.50000000E-01  8.00000000E-01  8.50000000E-01
  8.50000000E-01  8.50000000E-01  8.00000000E-01  8.50000000E-01  8.50000000E-01
  8.50000000E-01  8.00000000E-01  8.50000000E-01  8.50000000E-01  8.50000000E-01
  8.00000000E-01  8.50000000E-01  8.50000000E-01  8.50000000E-01  8.00000000E-01
  8.50000000E-01  8.50000000E-01  8.50000000E-01  8.00000000E-01  8.50000000E-01
  8.50000000E-01  8.50000000E-01  8.00000000E-01  8.50000000E-01  8.50000000E-01
  8.50000000E-01  8.00000000E-01  8.50000000E-01  8.50000000E-01  8.50000000E-01
  8.00000000E-01  8.50000000E-01  8.50000000E-01  8.50000000E-01  8.00000000E-01
  8.50000000E-01  8.50000000E-01  8.50000000E-01  8.00000000E-01  8.50000000E-01
  8.50000000E-01  8.50000000E-01  8.00000000E-01  8.50000000E-01  8.50000000E-01
  8.50000000E-01  8.00000000E-01  8.50000000E-01  8.50000000E-01  8.50000000E-01
  8.00000000E-01  8.50000000E-01  8.50000000E-01  8.50000000E-01  8.00000000E-01
  8.50000000E-01  8.50000000E-01  8.50000000E-01  8.00000000E-01  8.50000000E-01
  8.50000000E-01  8.50000000E-01  8.00000000E-01  8.50000000E-01  8.50000000E-01
  8.50000000E-01  8.00000000E-01  8.50000000E-01  8.50000000E-01  8.50000000E-01
  8.00000000E-01  8.50000000E-01  8.50000000E-01  8.50000000E-01  8.00000000E-01
  8.50000000E-01  8.50000000E-01  8.50000000E-01  8.00000000E-01  8.50000000E-01
  8.50000000E-01  8.50000000E-01  8.00000000E-01  8.50000000E-01  8.50000000E-01
  8.50000000E-01  8.00000000E-01  8.50000000E-01  8.50000000E-01  8.50000000E-01
  8.00000000E-01  8.50000000E-01  8.50000000E-01  8.50000000E-01  8.00000000E-01
  8.50000000E-01  8.50000000E-01  8.50000000E-01  8.00000000E-01  8.50000000E-01
  8.50000000E-01  8.50000000E-01  8.00000000E-01  8.50000000E-01  8.50000000E-01
  8.50000000E-01  8.00000000E-01  8.50000000E-01  8.50000000E-01  8.50000000E-01
  8.00000000E-01  8.50000000E-01  8.50000000E-01  8.50000000E-01  8.00000000E-01
  8.50000000E-01  8.50000000E-01  8.50000000E-01  8.00000000E-01  8.50000000E-01
  8.50000000E-01  8.50000000E-01  8.00000000E-01  8.50000000E-01  8.50000000E-01
  8.50000000E-01  8.00000000E-01  8.50000000E-01  8.50000000E-01  8.50000000E-01
  8.00000000E-01  8.50000000E-01  8.50000000E-01  8.50000000E-01  8.00000000E-01
  8.50000000E-01  8.50000000E-01  8.50000000E-01  8.00000000E-01  8.50000000E-01
  8.50000000E-01  8.50000000E-01  8.00000000E-01  8.50000000E-01  8.50000000E-01
  8.50000000E-01  8.00000000E-01  8.50000000E-01  8.50000000E-01  8.50000000E-01
  8.00000000E-01  8.50000000E-01  8.50000000E-01  8.50000000E-01  8.00000000E-01
  8.50000000E-01  8.50000000E-01  8.50000000E-01  8.00000000E-01  8.50000000E-01
  8.50000000E-01  8.50000000E-01  8.00000000E-01  8.50000000E-01  8.50000000E-01
  8.50000000E-01  8.00000000E-01  8.50000000E-01  8.50000000E-01  8.50000000E-01
  8.00000000E-01  8.50000000E-01  8.50000000E-01  8.50000000E-01  8.00000000E-01
  8.50000000E-01  8.50000000E-01  8.50000000E-01  8.00000000E-01  8.50000000E-01
  8.50000000E-01  8.50000000E-01  8.00000000E-01  8.50000000E-01  8.50000000E-01
  8.50000000E-01  8.00000000E-01  8.50000000E-01  8.50000000E-01  8.50000000E-01
  8.00000000E-01  8.50000000E-01  8.50000000E-01  8.50000000E-01  8.00000000E-01
  8.50000000E-01  8.50000000E-01  8.50000000E-01  8.00000000E-01  8.50000000E-01
  8.50000000E-01  8.50000000E-01  8.00000000E-01  8.50000000E-01  8.50000000E-01
  8.50000000E-01  8.00000000E-01  8.50000000E-01  8.50000000E-01  8.50000000E-01
  8.00000000E-01  8.50000000E-01  8.50000000E-01  8.50000000E-01  8.00000000E-01
  8.50000000E-01  8.50000000E-01  8.50000000E-01  8.00000000E-01  8.50000000E-01
  8.50000000E-01  8.50000000E-01  8.00000000E-01  8.50000000E-01  8.50000000E-01
  8.50000000E-01  8.00000000E-01  8.50000000E-01  8.50000000E-01  8.50000000E-01
  8.00000000E-01  8.50000000E-01  8.50000000E-01  8.50000000E-01  8.00000000E-01
  8.50000000E-01  8.50000000E-01  8.50000000E-01  8.00000000E-01  8.50000000E-01
  8.50000000E-01  8.50000000E-01  8.00000000E-01  8.50000000E-01  8.50000000E-01
  8.50000000E-01  8.00000000E-01  8.50000000E-01  8.50000000E-01  8.50000000E-01
  8.00000000E-01  8.50000000E-01  8.50000000E-01  8.50000000E-01  8.00000000E-01
  8.50000000E-01  8.50000000E-01  8.50000000E-01  8.00000000E-01  8.50000000E-01
  8.50000000E-01  8.50000000E-01  8.00000000E-01  8.50000000E-01  8.50000000E-01
  8.50000000E-01  8.00000000E-01  8.50000000E-01  8.50000000E-01  8.50000000E-01
  8.00000000E-01  8.50000000E-01  8.50000000E-01  8.50000000E-01  8.00000000E-01
  8.50000000E-01  8.50000000E-01  8.50000000E-01  8.00000000E-01  8.50000000E-01
  8.50000000E-01  8.50000000E-01  8.00000000E-01  8.50000000E-01  8.50000000E-01
  8.50000000E-01  8.00000000E-01  8.50000000E-01  8.50000000E-01  8.50000000E-01
  8.00000000E-01  8.50000000E-01  8.50000000E-01  8.50000000E-01  8.00000000E-01
  8.50000000E-01  8.50000000E-01  8.50000000E-01  8.00000000E-01  8.50000000E-01
  8.50000000E-01  8.50000000E-01  8.00000000E-01  8.50000000E-01  8.50000000E-01
  8.50000000E-01  8.00000000E-01  8.50000000E-01  8.50000000E-01  8.50000000E-01
  8.00000000E-01  8.50000000E-01  8.50000000E-01  8.50000000E-01  8.00000000E-01
  8.50000000E-01  8.50000000E-01  8.50000000E-01  8.00000000E-01  8.50000000E-01
  8.50000000E-01  8.50000000E-01  8.00000000E-01  8.50000000E-01  8.50000000E-01
  8.50000000E-01  8.00000000E-01  8.50000000E-01  8.50000000E-01  8.50000000E-01
  8.00000000E-01  8.50000000E-01  8.50000000E-01  8.50000000E-01  8.00000000E-01
  8.50000000E-01  8.50000000E-01  8.50000000E-01  8.00000000E-01  8.50000000E-01
  8.50000000E-01  8.50000000E-01  8.00000000E-01  8.50000000E-01  8.50000000E-01
  8.50000000E-01  8.00000000E-01  8.50000000E-01  8.50000000E-01  8.50000000E-01
  8.00000000E-01  8.50000000E-01  8.50000000E-01  8.50000000E-01  8.00000000E-01
  8.50000000E-01  8.50000000E-01  8.50000000E-01  8.00000000E-01  8.50000000E-01
  8.50000000E-01  8.50000000E-01  8.00000000E-01  8.50000000E-01  8.50000000E-01
  8.50000000E-01  8.00000000E-01  8.50000000E-01  8.50000000E-01  8.50000000E-01
  8.00000000E-01  8.50000000E-01  8.50000000E-01  8.50000000E-01  8.00000000E-01
  8.50000000E-01  8.50000000E-01  8.50000000E-01  8.00000000E-01  8.50000000E-01
  8.50000000E-01  8.50000000E-01  8.00000000E-01  8.50000000E-01  8.50000000E-01
  8.50000000E-01  8.00000000E-01  8.50000000E-01  8.50000000E-01  8.50000000E-01
  8.00000000E-01  8.50000000E-01  8.50000000E-01  8.50000000E-01  8.00000000E-01
  8.50000000E-01  8.50000000E-01  8.50000000E-01  8.00000000E-01  8.50000000E-01
  8.50000000E-01  8.50000000E-01  8.00000000E-01  8.50000000E-01  8.50000000E-01
  8.50000000E-01  8.00000000E-01  8.50000000E-01  8.50000000E-01  8.50000000E-01
  8.00000000E-01  8.50000000E-01  8.50000000E-01  8.50000000E-01  8.00000000E-01
  8.50000000E-01  8.50000000E-01  8.50000000E-01  8.00000000E-01  8.50000000E-01
  8.50000000E-01  8.50000000E-01  8.00000000E-01  8.50000000E-01  8.50000000E-01
  8.50000000E-01  8.00000000E-01  8.50000000E-01  8.50000000E-01  8.50000000E-01
  8.00000000E-01  8.50000000E-01  8.50000000E-01  8.50000000E-01  8.00000000E-01
  8.50000000E-01  8.50000000E-01  8.50000000E-01  8.00000000E-01  8.50000000E-01
  8.50000000E-01  8.50000000E-01  8.00000000E-01  8.50000000E-01  8.50000000E-01
  8.50000000E-01  8.00000000E-01  8.50000000E-01  8.50000000E-01  8.50000000E-01
  8.00000000E-01  8.50000000E-01  8.50000000E-01  8.50000000E-01  8.00000000E-01
  8.50000000E-01  8.50000000E-01  8.50000000E-01  8.00000000E-01  8.50000000E-01
  8.50000000E-01  8.50000000E-01  8.00000000E-01  8.50000000E-01  8.50000000E-01
  8.50000000E-01  8.00000000E-01  8.50000000E-01  8.50000000E-01  8.50000000E-01
  8.00000000E-01  8.50000000E-01  8.50000000E-01  8.50000000E-01  8.00000000E-01
  8.50000000E-01  8.50000000E-01  8.50000000E-01  8.00000000E-01  8.50000000E-01
  8.50000000E-01  8.50000000E-01  8.00000000E-01  8.50000000E-01  8.50000000E-01
  8.50000000E-01  8.00000000E-01  8.50000000E-01  8.50000000E-01  8.50000000E-01
  8.00000000E-01  8.50000000E-01  8.50000000E-01  8.50000000E-01  8.00000000E-01
  8.50000000E-01  8.50000000E-01  8.50000000E-01  8.00000000E-01  8.50000000E-01
  8.50000000E-01  8.50000000E-01  8.00000000E-01  8.50000000E-01  8.50000000E-01
  8.50000000E-01  8.00000000E-01  8.50000000E-01  8.50000000E-01  8.50000000E-01
  8.00000000E-01  8.50000000E-01  8.50000000E-01  8.50000000E-01  8.00000000E-01
  8.50000000E-01  8.50000000E-01  8.50000000E-01  8.00000000E-01  8.50000000E-01
  8.50000000E-01  8.50000000E-01  8.00000000E-01  8.50000000E-01  8.50000000E-01
  8.50000000E-01  8.00000000E-01  8.50000000E-01  8.50000000E-01  8.50000000E-01
  8.00000000E-01  8.50000000E-01  8.50000000E-01  8.50000000E-01  8.00000000E-01
  8.50000000E-01  8.50000000E-01  8.50000000E-01  8.00000000E-01  8.50000000E-01
  8.50000000E-01  8.50000000E-01  8.00000000E-01  8.50000000E-01  8.50000000E-01
  8.50000000E-01  8.00000000E-01  8.50000000E-01  8.50000000E-01  8.50000000E-01
  8.00000000E-01  8.50000000E-01  8.50000000E-01  8.50000000E-01  8.00000000E-01
  8.50000000E-01  8.50000000E-01  8.50000000E-01  8.00000000E-01  8.50000000E-01
  8.50000000E-01  8.50000000E-01  8.00000000E-01  8.50000000E-01  8.50000000E-01
  8.50000000E-01  8.00000000E-01  8.50000000E-01  8.50000000E-01  8.50000000E-01
  8.00000000E-01  8.50000000E-01  8.50000000E-01  8.50000000E-01  8.00000000E-01
  8.50000000E-01  8.50000000E-01  8.50000000E-01  8.00000000E-01  8.50000000E-01
  8.50000000E-01  8.50000000E-01  8.00000000E-01  8.50000000E-01  8.50000000E-01
  8.50000000E-01  8.00000000E-01  8.50000000E-01  8.50000000E-01  8.50000000E-01
  8.00000000E-01  8.50000000E-01  8.50000000E-01  8.50000000E-01  8.00000000E-01
  8.50000000E-01  8.50000000E-01  8.50000000E-01  8.00000000E-01  8.50000000E-01
  8.50000000E-01  8.50000000E-01  8.00000000E-01  8.50000000E-01  8.50000000E-01
  8.50000000E-01  8.00000000E-01  8.50000000E-01  8.50000000E-01  8.50000000E-01
  8.00000000E-01  8.50000000E-01  8.50000000E-01  8.50000000E-01  8.00000000E-01
  8.50000000E-01  8.50000000E-01  8.50000000E-01  8.00000000E-01  8.50000000E-01
  8.50000000E-01  8.50000000E-01  8.00000000E-01  8.50000000E-01  8.50000000E-01
  8.50000000E-01  8.00000000E-01  8.50000000E-01  8.50000000E-01  8.50000000E-01
  8.00000000E-01  8.50000000E-01  8.50000000E-01  8.50000000E-01  8.00000000E-01
  8.50000000E-01  8.50000000E-01  8.50000000E-01  8.00000000E-01  8.50000000E-01
  8.50000000E-01  8.50000000E-01  8.00000000E-01  8.50000000E-01  8.50000000E-01
  8.50000000E-01  8.00000000E-01  8.50000000E-01  8.50000000E-01  8.50000000E-01
  8.00000000E-01  8.50000000E-01  8.50000000E-01  8.50000000E-01  8.00000000E-01
  8.50000000E-01  8.50000000E-01  8.50000000E-01  8.00000000E-01  8.50000000E-01
  8.50000000E-01  8.50000000E-01  8.00000000E-01  8.50000000E-01  8.50000000E-01
  8.50000000E-01  8.00000000E-01  8.50000000E-01  8.50000000E-01  8.50000000E-01
  8.00000000E-01  8.50000000E-01  8.50000000E-01  8.50000000E-01  8.00000000E-01
  8.50000000E-01  8.50000000E-01  8.50000000E-01  8.00000000E-01  8.50000000E-01
  8.50000000E-01  8.50000000E-01  8.00000000E-01  8.50000000E-01  8.50000000E-01
  8.50000000E-01  8.00000000E-01  8.50000000E-01  8.50000000E-01  8.50000000E-01
  8.00000000E-01  8.50000000E-01  8.50000000E-01  8.50000000E-01  8.00000000E-01
  8.50000000E-01  8.50000000E-01  8.50000000E-01  8.00000000E-01  8.50000000E-01
  8.50000000E-01  8.50000000E-01  8.00000000E-01  8.50000000E-01  8.50000000E-01
  8.50000000E-01  8.00000000E-01  8.50000000E-01  8.50000000E-01  8.50000000E-01
  8.00000000E-01  8.50000000E-01  8.50000000E-01  8.50000000E-01  8.00000000E-01
  8.50000000E-01  8.50000000E-01  8.50000000E-01  8.00000000E-01  8.50000000E-01
  8.50000000E-01  8.50000000E-01  8.00000000E-01  8.50000000E-01  8.50000000E-01
  8.50000000E-01  8.00000000E-01  8.50000000E-01  8.50000000E-01  8.50000000E-01
  8.00000000E-01  8.50000000E-01  8.50000000E-01  8.50000000E-01  8.00000000E-01
  8.50000000E-01  8.50000000E-01  8.50000000E-01  8.00000000E-01  8.50000000E-01
  8.50000000E-01  8.50000000E-01  8.00000000E-01  8.50000000E-01  8.50000000E-01
  8.50000000E-01  8.00000000E-01  8.50000000E-01  8.50000000E-01  8.50000000E-01
  8.00000000E-01  8.50000000E-01  8.50000000E-01  8.50000000E-01  8.00000000E-01
  8.50000000E-01  8.50000000E-01  8.50000000E-01  8.00000000E-01  8.50000000E-01
  8.50000000E-01  8.50000000E-01  8.00000000E-01  8.50000000E-01  8.50000000E-01
  8.50000000E-01  8.00000000E-01  8.50000000E-01  8.50000000E-01  8.50000000E-01
  8.00000000E-01  8.50000000E-01  8.50000000E-01  8.50000000E-01  8.00000000E-01
  8.50000000E-01  8.50000000E-01  8.50000000E-01  8.00000000E-01  8.50000000E-01
  8.50000000E-01  8.50000000E-01  8.00000000E-01  8.50000000E-01  8.50000000E-01
  8.50000000E-01  8.00000000E-01  8.50000000E-01  8.50000000E-01  8.50000000E-01
  8.00000000E-01  8.50000000E-01  8.50000000E-01  8.50000000E-01  8.00000000E-01
  8.50000000E-01  8.50000000E-01  8.50000000E-01  8.00000000E-01  8.50000000E-01
  8.50000000E-01  8.50000000E-01  8.00000000E-01  8.50000000E-01  8.50000000E-01
  8.50000000E-01  8.00000000E-01  8.50000000E-01  8.50000000E-01  8.50000000E-01
  8.00000000E-01  8.50000000E-01  8.50000000E-01  8.50000000E-01  8.00000000E-01
  8.50000000E-01  8.50000000E-01  8.50000000E-01  8.00000000E-01  8.50000000E-01
  8.50000000E-01  8.50000000E-01  8.00000000E-01  8.50000000E-01  8.50000000E-01
  8.50000000E-01  8.00000000E-01  8.50000000E-01  8.50000000E-01  8.50000000E-01
  8.00000000E-01  8.50000000E-01  8.50000000E-01  8.50000000E-01  8.00000000E-01
  8.50000000E-01  8.50000000E-01  8.50000000E-01  8.00000000E-01  8.50000000E-01
  8.50000000E-01  8.50000000E-01  8.00000000E-01  8.50000000E-01  8.50000000E-01
  8.50000000E-01  8.00000000E-01  8.50000000E-01  8.50000000E-01  8.50000000E-01
  8.00000000E-01  8.50000000E-01  8.50000000E-01  8.50000000E-01  8.00000000E-01
  8.50000000E-01  8.50000000E-01  8.50000000E-01  8.00000000E-01  8.50000000E-01
  8.50000000E-01  8.50000000E-01  8.00000000E-01  8.50000000E-01  8.50000000E-01
  8.50000000E-01  8.00000000E-01  8.50000000E-01  8.50000000E-01  8.50000000E-01
  8.00000000E-01  8.50000000E-01  8.50000000E-01  8.50000000E-01  8.00000000E-01
  8.50000000E-01  8.50000000E-01  8.50000000E-01  8.00000000E-01  8.50000000E-01
  8.50000000E-01  8.50000000E-01  8.00000000E-01  8.50000000E-01  8.50000000E-01
  8.50000000E-01  8.00000000E-01  8.50000000E-01  8.50000000E-01  8.50000000E-01
  8.00000000E-01  8.50000000E-01  8.50000000E-01  8.50000000E-01  8.00000000E-01
  8.50000000E-01  8.50000000E-01  8.50000000E-01  8.00000000E-01  8.50000000E-01
  8.50000000E-01  8.50000000E-01  8.00000000E-01  8.50000000E-01  8.50000000E-01
  8.50000000E-01  8.00000000E-01  8.50000000E-01  8.50000000E-01  8.50000000E-01
  8.00000000E-01  8.50000000E-01  8.50000000E-01  8.50000000E-01  8.00000000E-01
  8.50000000E-01  8.50000000E-01  8.50000000E-01  8.00000000E-01  8.50000000E-01
  8.50000000E-01  8.50000000E-01  8.00000000E-01  8.50000000E-01  8.50000000E-01
  8.50000000E-01  8.00000000E-01  8.50000000E-01  8.50000000E-01  8.50000000E-01
  8.00000000E-01  8.50000000E-01  8.50000000E-01  8.50000000E-01  8.00000000E-01
  8.50000000E-01  8.50000000E-01  8.50000000E-01  8.00000000E-01  8.50000000E-01
  8.50000000E-01  8.50000000E-01  8.00000000E-01  8.50000000E-01  8.50000000E-01
  8.50000000E-01  8.00000000E-01  8.50000000E-01  8.50000000E-01  8.50000000E-01
  8.00000000E-01  8.50000000E-01  8.50000000E-01  8.50000000E-01  8.00000000E-01
  8.50000000E-01  8.50000000E-01  8.50000000E-01  8.00000000E-01  8.50000000E-01
  8.50000000E-01  8.50000000E-01  8.00000000E-01  8.50000000E-01  8.50000000E-01
  8.50000000E-01  8.00000000E-01  8.50000000E-01  8.50000000E-01  8.50000000E-01
  8.00000000E-01  8.50000000E-01  8.50000000E-01  8.50000000E-01  8.00000000E-01
  8.50000000E-01  8.50000000E-01  8.50000000E-01  8.00000000E-01  8.50000000E-01
  8.50000000E-01  8.50000000E-01  8.00000000E-01  8.50000000E-01  8.50000000E-01
  8.50000000E-01  8.00000000E-01  8.50000000E-01  8.50000000E-01  8.50000000E-01
  8.00000000E-01  8.50000000E-01  8.50000000E-01  8.50000000E-01  8.00000000E-01
  8.50000000E-01  8.50000000E-01  8.50000000E-01  8.00000000E-01  8.50000000E-01
  8.50000000E-01  8.50000000E-01  8.00000000E-01  8.50000000E-01  8.50000000E-01
  8.50000000E-01  8.00000000E-01  8.50000000E-01  8.50000000E-01  8.50000000E-01
  8.00000000E-01  8.50000000E-01  8.50000000E-01  8.50000000E-01  8.00000000E-01
  8.50000000E-01  8.50000000E-01  8.50000000E-01  8.00000000E-01  8.50000000E-01
  8.50000000E-01  8.50000000E-01  8.00000000E-01  8.50000000E-01  8.50000000E-01
  8.50000000E-01  8.00000000E-01  8.50000000E-01  8.50000000E-01  8.50000000E-01
  8.00000000E-01  8.50000000E-01  8.50000000E-01  8.50000000E-01  8.00000000E-01
  8.50000000E-01  8.50000000E-01  8.50000000E-01  8.00000000E-01  8.50000000E-01
  8.50000000E-01  8.50000000E-01  8.00000000E-01  8.50000000E-01  8.50000000E-01
  8.50000000E-01  8.00000000E-01  8.50000000E-01  8.50000000E-01  8.50000000E-01
  8.00000000E-01  8.50000000E-01  8.50000000E-01  8.50000000E-01  8.00000000E-01
  8.50000000E-01  8.50000000E-01  8.50000000E-01  8.00000000E-01  8.50000000E-01
  8.50000000E-01  8.50000000E-01  8.00000000E-01  8.50000000E-01  8.50000000E-01
  8.50000000E-01  8.00000000E-01  8.50000000E-01  8.50000000E-01  8.50000000E-01
  8.00000000E-01  8.50000000E-01  8.50000000E-01  8.50000000E-01  8.00000000E-01
  8.50000000E-01  8.50000000E-01  8.50000000E-01  8.00000000E-01  8.50000000E-01
  8.50000000E-01  8.50000000E-01  8.00000000E-01  8.50000000E-01  8.50000000E-01
  8.50000000E-01  8.00000000E-01  8.50000000E-01  8.50000000E-01  8.50000000E-01
  8.00000000E-01  8.50000000E-01  8.50000000E-01  8.50000000E-01  8.00000000E-01
  8.50000000E-01  8.50000000E-01  8.50000000E-01  8.00000000E-01  8.50000000E-01
  8.50000000E-01  8.50000000E-01  8.00000000E-01  8.50000000E-01  8.50000000E-01
  8.50000000E-01  8.00000000E-01  8.50000000E-01  8.50000000E-01  8.50000000E-01
  8.00000000E-01  8.50000000E-01  8.50000000E-01  8.50000000E-01  8.00000000E-01
  8.50000000E-01  8.50000000E-01  8.50000000E-01  8.00000000E-01  8.50000000E-01
  8.50000000E-01  8.50000000E-01  8.00000000E-01  8.50000000E-01  8.50000000E-01
  8.50000000E-01  8.00000000E-01  8.50000000E-01  8.50000000E-01  8.50000000E-01
  8.00000000E-01  8.50000000E-01  8.50000000E-01  8.50000000E-01  8.00000000E-01
  8.50000000E-01  8.50000000E-01  8.50000000E-01  8.00000000E-01  8.50000000E-01
  8.50000000E-01  8.50000000E-01  8.00000000E-01  8.50000000E-01  8.50000000E-01
  8.50000000E-01  8.00000000E-01  8.50000000E-01  8.50000000E-01  8.50000000E-01
  8.00000000E-01  8.50000000E-01  8.50000000E-01  8.50000000E-01  8.00000000E-01
  8.50000000E-01  8.50000000E-01  8.50000000E-01  8.00000000E-01  8.50000000E-01
  8.50000000E-01  8.50000000E-01  8.00000000E-01  8.50000000E-01  8.50000000E-01
  8.50000000E-01  8.00000000E-01  8.50000000E-01  8.50000000E-01  8.50000000E-01
  8.00000000E-01  8.50000000E-01  8.50000000E-01  8.50000000E-01  8.00000000E-01
  8.50000000E-01  8.50000000E-01  8.50000000E-01  8.00000000E-01  8.50000000E-01
  8.50000000E-01  8.50000000E-01  8.00000000E-01  8.50000000E-01  8.50000000E-01
  8.50000000E-01  8.00000000E-01  8.50000000E-01  8.50000000E-01  8.50000000E-01
  8.00000000E-01  8.50000000E-01  8.50000000E-01  8.50000000E-01  8.00000000E-01
  8.50000000E-01  8.50000000E-01  8.50000000E-01  8.00000000E-01  8.50000000E-01
  8.50000000E-01  8.50000000E-01  8.00000000E-01  8.50000000E-01  8.50000000E-01
  8.50000000E-01  8.00000000E-01  8.50000000E-01  8.50000000E-01  8.50000000E-01
  8.00000000E-01  8.50000000E-01  8.50000000E-01  8.50000000E-01  8.00000000E-01
  8.50000000E-01  8.50000000E-01  8.50000000E-01  8.00000000E-01  8.50000000E-01
  8.50000000E-01  8.50000000E-01  8.00000000E-01  8.50000000E-01  8.50000000E-01
  8.50000000E-01  8.00000000E-01  8.50000000E-01  8.50000000E-01  8.50000000E-01
  8.00000000E-01  8.50000000E-01  8.50000000E-01  8.50000000E-01  8.00000000E-01
  8.50000000E-01  8.50000000E-01  8.50000000E-01  8.00000000E-01  8.50000000E-01
  8.50000000E-01  8.50000000E-01  8.00000000E-01  8.50000000E-01  8.50000000E-01
  8.50000000E-01  8.00000000E-01  8.50000000E-01  8.50000000E-01  8.50000000E-01
  8.00000000E-01  8.50000000E-01  8.50000000E-01  8.50000000E-01  8.00000000E-01
  8.50000000E-01  8.50000000E-01  8.50000000E-01  8.00000000E-01  8.50000000E-01
  8.50000000E-01  8.50000000E-01  8.00000000E-01  8.50000000E-01  8.50000000E-01
  8.50000000E-01  8.00000000E-01  8.50000000E-01  8.50000000E-01  8.50000000E-01
  8.00000000E-01  8.50000000E-01  8.50000000E-01  8.50000000E-01  8.00000000E-01
  8.50000000E-01  8.50000000E-01  8.50000000E-01  8.00000000E-01  8.50000000E-01
  8.50000000E-01  8.50000000E-01  8.00000000E-01  8.50000000E-01  8.50000000E-01
  8.50000000E-01  8.00000000E-01  8.50000000E-01  8.50000000E-01  8.50000000E-01
  8.00000000E-01  8.50000000E-01  8.50000000E-01  8.50000000E-01  8.00000000E-01
  8.50000000E-01  8.50000000E-01  8.50000000E-01  8.00000000E-01  8.50000000E-01
  8.50000000E-01  8.50000000E-01  8.00000000E-01  8.50000000E-01  8.50000000E-01
  8.50000000E-01  8.00000000E-01  8.50000000E-01  8.50000000E-01  8.50000000E-01
  8.00000000E-01  8.50000000E-01  8.50000000E-01  8.50000000E-01  8.00000000E-01
  8.50000000E-01  8.50000000E-01  8.50000000E-01  8.00000000E-01  8.50000000E-01
  8.50000000E-01  8.50000000E-01  8.00000000E-01  8.50000000E-01  8.50000000E-01
  8.50000000E-01  8.00000000E-01  8.50000000E-01  8.50000000E-01  8.50000000E-01
  8.00000000E-01  8.50000000E-01  8.50000000E-01  8.50000000E-01  8.00000000E-01
  8.50000000E-01  8.50000000E-01  8.50000000E-01  8.00000000E-01  8.50000000E-01
  8.50000000E-01  8.50000000E-01  8.00000000E-01  8.50000000E-01  8.50000000E-01
  8.50000000E-01  8.00000000E-01  8.50000000E-01  8.50000000E-01  8.50000000E-01
  8.00000000E-01  8.50000000E-01  8.50000000E-01  8.50000000E-01  8.00000000E-01
  8.50000000E-01  8.50000000E-01  8.50000000E-01  8.00000000E-01  8.50000000E-01
  8.50000000E-01  8.50000000E-01  8.00000000E-01  8.50000000E-01  8.50000000E-01
  8.50000000E-01  8.00000000E-01  8.50000000E-01  8.50000000E-01  8.50000000E-01
  8.00000000E-01  8.50000000E-01  8.50000000E-01  8.50000000E-01  8.00000000E-01
  8.50000000E-01  8.50000000E-01  8.50000000E-01  8.00000000E-01  8.50000000E-01
  8.50000000E-01  8.50000000E-01  8.00000000E-01  8.50000000E-01  8.50000000E-01
  8.50000000E-01  8.00000000E-01  8.50000000E-01  8.50000000E-01  8.50000000E-01
  8.00000000E-01  8.50000000E-01  8.50000000E-01  8.50000000E-01  8.00000000E-01
  8.50000000E-01  8.50000000E-01  8.50000000E-01  8.00000000E-01  8.50000000E-01
  8.50000000E-01  8.50000000E-01  8.00000000E-01  8.50000000E-01  8.50000000E-01
  8.50000000E-01  8.00000000E-01  8.50000000E-01  8.50000000E-01  8.50000000E-01
  8.00000000E-01  8.50000000E-01  8.50000000E-01  8.50000000E-01  8.00000000E-01
  8.50000000E-01  8.50000000E-01  8.50000000E-01  8.00000000E-01  8.50000000E-01
  8.50000000E-01  8.50000000E-01  8.00000000E-01  8.50000000E-01  8.50000000E-01
  8.50000000E-01  8.00000000E-01  8.50000000E-01  8.50000000E-01  8.50000000E-01
  8.00000000E-01  8.50000000E-01  8.50000000E-01  8.50000000E-01  8.00000000E-01
  8.50000000E-01  8.50000000E-01  8.50000000E-01  8.00000000E-01  8.50000000E-01
  8.50000000E-01  8.50000000E-01  8.00000000E-01  8.50000000E-01  8.50000000E-01
  8.50000000E-01  8.00000000E-01  8.50000000E-01  8.50000000E-01  8.50000000E-01
  8.00000000E-01  8.50000000E-01  8.50000000E-01  8.50000000E-01  8.00000000E-01
  8.50000000E-01  8.50000000E-01  8.50000000E-01  8.00000000E-01  8.50000000E-01
  8.50000000E-01  8.50000000E-01  8.00000000E-01  8.50000000E-01  8.50000000E-01
  8.50000000E-01  8.00000000E-01  8.50000000E-01  8.50000000E-01  8.50000000E-01
  8.00000000E-01  8.50000000E-01  8.50000000E-01  8.50000000E-01  8.00000000E-01
  8.50000000E-01  8.50000000E-01  8.50000000E-01  8.00000000E-01  8.50000000E-01
  8.50000000E-01  8.50000000E-01  8.00000000E-01  8.50000000E-01  8.50000000E-01
  8.50000000E-01  8.00000000E-01  8.50000000E-01  8.50000000E-01  8.50000000E-01
  8.00000000E-01  8.50000000E-01  8.50000000E-01  8.50000000E-01  8.00000000E-01
  8.50000000E-01  8.50000000E-01  8.50000000E-01  8.00000000E-01  8.50000000E-01
  8.50000000E-01  8.50000000E-01  8.00000000E-01  8.50000000E-01  8.50000000E-01
  8.50000000E-01  8.00000000E-01  8.50000000E-01  8.50000000E-01  8.50000000E-01
  8.00000000E-01  8.50000000E-01  8.50000000E-01  8.50000000E-01  8.00000000E-01
  8.50000000E-01  8.50000000E-01  8.50000000E-01  8.00000000E-01  8.50000000E-01
  8.50000000E-01  8.50000000E-01  8.00000000E-01  8.50000000E-01  8.50000000E-01
  8.50000000E-01  8.00000000E-01  8.50000000E-01  8.50000000E-01  8.50000000E-01
  8.00000000E-01  8.50000000E-01  8.50000000E-01  8.50000000E-01  8.00000000E-01
  8.50000000E-01  8.50000000E-01  8.50000000E-01  8.00000000E-01  8.50000000E-01
  8.50000000E-01  8.50000000E-01  8.00000000E-01  8.50000000E-01  8.50000000E-01
  8.50000000E-01  8.00000000E-01  8.50000000E-01  8.50000000E-01  8.50000000E-01
  8.00000000E-01  8.50000000E-01  8.50000000E-01  8.50000000E-01  8.00000000E-01
  8.50000000E-01  8.50000000E-01  8.50000000E-01  8.00000000E-01  8.50000000E-01
  8.50000000E-01  8.50000000E-01  8.00000000E-01  8.50000000E-01  8.50000000E-01
  8.50000000E-01  8.00000000E-01  8.50000000E-01  8.50000000E-01  8.50000000E-01
  8.00000000E-01  8.50000000E-01  8.50000000E-01  8.50000000E-01  8.00000000E-01
  8.50000000E-01  8.50000000E-01  8.50000000E-01  8.00000000E-01  8.50000000E-01
  8.50000000E-01  8.50000000E-01  8.00000000E-01  8.50000000E-01  8.50000000E-01
  8.50000000E-01  8.00000000E-01  8.50000000E-01  8.50000000E-01  8.50000000E-01
  8.00000000E-01  8.50000000E-01  8.50000000E-01  8.50000000E-01  8.00000000E-01
  8.50000000E-01  8.50000000E-01  8.50000000E-01  8.00000000E-01  8.50000000E-01
  8.50000000E-01  8.50000000E-01  8.00000000E-01  8.50000000E-01  8.50000000E-01
  8.50000000E-01  8.00000000E-01  8.50000000E-01  8.50000000E-01  8.50000000E-01
  8.00000000E-01  8.50000000E-01  8.50000000E-01  8.50000000E-01  8.00000000E-01
  8.50000000E-01  8.50000000E-01  8.50000000E-01  8.00000000E-01  8.50000000E-01
  8.50000000E-01  8.50000000E-01  8.00000000E-01  8.50000000E-01  8.50000000E-01
  8.50000000E-01  8.00000000E-01  8.50000000E-01  8.50000000E-01  8.50000000E-01
  8.00000000E-01  8.50000000E-01  8.50000000E-01  8.50000000E-01  8.00000000E-01
  8.50000000E-01  8.50000000E-01  8.50000000E-01  8.00000000E-01  8.50000000E-01
  8.50000000E-01  8.50000000E-01  8.00000000E-01  8.50000000E-01  8.50000000E-01
  8.50000000E-01  8.00000000E-01  8.50000000E-01  8.50000000E-01  8.50000000E-01
  8.00000000E-01  8.50000000E-01  8.50000000E-01  8.50000000E-01  8.00000000E-01
  8.50000000E-01  8.50000000E-01  8.50000000E-01  8.00000000E-01  8.50000000E-01
  8.50000000E-01  8.50000000E-01  8.00000000E-01  8.50000000E-01  8.50000000E-01
  8.50000000E-01  8.00000000E-01  8.50000000E-01  8.50000000E-01  8.50000000E-01
  8.00000000E-01  8.50000000E-01  8.50000000E-01  8.50000000E-01  8.00000000E-01
  8.50000000E-01  8.50000000E-01  8.50000000E-01  8.00000000E-01  8.50000000E-01
  8.50000000E-01  8.50000000E-01  8.00000000E-01  8.50000000E-01  8.50000000E-01
  8.50000000E-01  8.00000000E-01  8.50000000E-01  8.50000000E-01  8.50000000E-01
  8.00000000E-01  8.50000000E-01  8.50000000E-01  8.50000000E-01  8.00000000E-01
  8.50000000E-01  8.50000000E-01  8.50000000E-01  8.00000000E-01  8.50000000E-01
  8.50000000E-01  8.50000000E-01  8.00000000E-01  8.50000000E-01  8.50000000E-01
  8.50000000E-01  8.00000000E-01  8.50000000E-01  8.50000000E-01  8.50000000E-01
  8.00000000E-01  8.50000000E-01  8.50000000E-01  8.50000000E-01  8.00000000E-01
  8.50000000E-01  8.50000000E-01  8.50000000E-01  8.00000000E-01  8.50000000E-01
  8.50000000E-01  8.50000000E-01  8.00000000E-01  8.50000000E-01  8.50000000E-01
  8.50000000E-01  8.00000000E-01  8.50000000E-01  8.50000000E-01  8.50000000E-01
  8.00000000E-01  8.50000000E-01  8.50000000E-01  8.50000000E-01  8.00000000E-01
  8.50000000E-01  8.50000000E-01  8.50000000E-01  8.00000000E-01  8.50000000E-01
  8.50000000E-01  8.50000000E-01  8.00000000E-01  8.50000000E-01  8.50000000E-01
  8.50000000E-01  8.00000000E-01  8.50000000E-01  8.50000000E-01  8.50000000E-01
  8.00000000E-01  8.50000000E-01  8.50000000E-01  8.50000000E-01  8.00000000E-01
  8.50000000E-01  8.50000000E-01  8.50000000E-01  8.00000000E-01  8.50000000E-01
  8.50000000E-01  8.50000000E-01  8.00000000E-01  8.50000000E-01  8.50000000E-01
  8.50000000E-01  8.00000000E-01  8.50000000E-01  8.50000000E-01  8.50000000E-01
  8.00000000E-01  8.50000000E-01  8.50000000E-01  8.50000000E-01  8.00000000E-01
  8.50000000E-01  8.50000000E-01  8.50000000E-01  8.00000000E-01  8.50000000E-01
  8.50000000E-01  8.50000000E-01  8.00000000E-01  8.50000000E-01  8.50000000E-01
  8.50000000E-01  8.00000000E-01  8.50000000E-01  8.50000000E-01  8.50000000E-01
  8.00000000E-01  8.50000000E-01  8.50000000E-01  8.50000000E-01  8.00000000E-01
  8.50000000E-01  8.50000000E-01  8.50000000E-01  8.00000000E-01  8.50000000E-01
  8.50000000E-01  8.50000000E-01  8.00000000E-01  8.50000000E-01  8.50000000E-01
  8.50000000E-01  8.00000000E-01  8.50000000E-01  8.50000000E-01  8.50000000E-01
  8.00000000E-01  8.50000000E-01  8.50000000E-01  8.50000000E-01  8.00000000E-01
  8.50000000E-01  8.50000000E-01  8.50000000E-01  8.00000000E-01  8.50000000E-01
  8.50000000E-01  8.50000000E-01  8.00000000E-01  8.50000000E-01  8.50000000E-01
  8.50000000E-01  8.00000000E-01  8.50000000E-01  8.50000000E-01  8.50000000E-01
  8.00000000E-01  8.50000000E-01  8.50000000E-01  8.50000000E-01  8.00000000E-01
  8.50000000E-01  8.50000000E-01  8.50000000E-01  8.00000000E-01  8.50000000E-01
  8.50000000E-01  8.50000000E-01  8.00000000E-01  8.50000000E-01  8.50000000E-01
  8.50000000E-01  8.00000000E-01  8.50000000E-01  8.50000000E-01  8.50000000E-01
  8.00000000E-01  8.50000000E-01  8.50000000E-01  8.50000000E-01  8.00000000E-01
  8.50000000E-01  8.50000000E-01  8.50000000E-01  8.00000000E-01  8.50000000E-01
  8.50000000E-01  8.50000000E-01  8.00000000E-01  8.50000000E-01  8.50000000E-01
  8.50000000E-01  8.00000000E-01  8.50000000E-01  8.50000000E-01  8.50000000E-01
  8.00000000E-01  8.50000000E-01  8.50000000E-01  8.50000000E-01  8.00000000E-01
  8.50000000E-01  8.50000000E-01  8.50000000E-01  8.00000000E-01  8.50000000E-01
  8.50000000E-01  8.50000000E-01  8.00000000E-01  8.50000000E-01  8.50000000E-01
  8.50000000E-01  8.00000000E-01  8.50000000E-01  8.50000000E-01  8.50000000E-01
  8.00000000E-01  8.50000000E-01  8.50000000E-01  8.50000000E-01  8.00000000E-01
  8.50000000E-01  8.50000000E-01  8.50000000E-01  8.00000000E-01  8.50000000E-01
  8.50000000E-01  8.50000000E-01  8.00000000E-01  8.50000000E-01  8.50000000E-01
  8.50000000E-01  8.00000000E-01  8.50000000E-01  8.50000000E-01  8.50000000E-01
  8.00000000E-01  8.50000000E-01  8.50000000E-01  8.50000000E-01  8.00000000E-01
  8.50000000E-01  8.50000000E-01  8.50000000E-01  8.00000000E-01  8.50000000E-01
  8.50000000E-01  8.50000000E-01  8.00000000E-01  8.50000000E-01  8.50000000E-01
  8.50000000E-01  8.00000000E-01  8.50000000E-01  8.50000000E-01  8.50000000E-01
  8.00000000E-01  8.50000000E-01  8.50000000E-01  8.50000000E-01  8.00000000E-01
  8.50000000E-01  8.50000000E-01  8.50000000E-01  8.00000000E-01  8.50000000E-01
  8.50000000E-01  8.50000000E-01  8.00000000E-01  8.50000000E-01  8.50000000E-01
  8.50000000E-01  8.00000000E-01  8.50000000E-01  8.50000000E-01  8.50000000E-01
  8.00000000E-01  8.50000000E-01  8.50000000E-01  8.50000000E-01  8.00000000E-01
  8.50000000E-01  8.50000000E-01  8.50000000E-01  8.00000000E-01  8.50000000E-01
  8.50000000E-01  8.50000000E-01  8.00000000E-01  8.50000000E-01  8.50000000E-01
  8.50000000E-01  8.00000000E-01  8.50000000E-01  8.50000000E-01  8.50000000E-01
  8.00000000E-01  8.50000000E-01  8.50000000E-01  8.50000000E-01  8.00000000E-01
  8.50000000E-01  8.50000000E-01  8.50000000E-01  8.00000000E-01  8.50000000E-01
  8.50000000E-01  8.50000000E-01  8.00000000E-01  8.50000000E-01  8.50000000E-01
  8.50000000E-01  8.00000000E-01  8.50000000E-01  8.50000000E-01  8.50000000E-01
  8.00000000E-01  8.50000000E-01  8.50000000E-01  8.50000000E-01  8.00000000E-01
  8.50000000E-01  8.50000000E-01  8.50000000E-01  8.00000000E-01  8.50000000E-01
  8.50000000E-01  8.50000000E-01  8.00000000E-01  8.50000000E-01  8.50000000E-01
  8.50000000E-01  8.00000000E-01  8.50000000E-01  8.50000000E-01  8.50000000E-01
  8.00000000E-01  8.50000000E-01  8.50000000E-01  8.50000000E-01  8.00000000E-01
  8.50000000E-01  8.50000000E-01  8.50000000E-01  8.00000000E-01  8.50000000E-01
  8.50000000E-01  8.50000000E-01  8.00000000E-01  8.50000000E-01  8.50000000E-01
  8.50000000E-01  8.00000000E-01  8.50000000E-01  8.50000000E-01  8.50000000E-01
  8.00000000E-01  8.50000000E-01  8.50000000E-01  8.50000000E-01  8.00000000E-01
  8.50000000E-01  8.50000000E-01  8.50000000E-01  8.00000000E-01  8.50000000E-01
  8.50000000E-01  8.50000000E-01  8.00000000E-01  8.50000000E-01  8.50000000E-01
  8.50000000E-01  8.00000000E-01  8.50000000E-01  8.50000000E-01  8.50000000E-01
  8.00000000E-01  8.50000000E-01  8.50000000E-01  8.50000000E-01  8.00000000E-01
  8.50000000E-01  8.50000000E-01  8.50000000E-01  8.00000000E-01  8.50000000E-01
  8.50000000E-01  8.50000000E-01  8.00000000E-01  8.50000000E-01  8.50000000E-01
  8.50000000E-01  8.00000000E-01  8.50000000E-01  8.50000000E-01  8.50000000E-01
  8.00000000E-01  8.50000000E-01  8.50000000E-01  8.50000000E-01  8.00000000E-01
  8.50000000E-01  8.50000000E-01  8.50000000E-01  8.00000000E-01  8.50000000E-01
  8.50000000E-01  8.50000000E-01  8.00000000E-01  8.50000000E-01  8.50000000E-01
  8.50000000E-01  8.00000000E-01  8.50000000E-01  8.50000000E-01  8.50000000E-01
  8.00000000E-01  8.50000000E-01  8.50000000E-01  8.50000000E-01  8.00000000E-01
  8.50000000E-01  8.50000000E-01  8.50000000E-01  8.00000000E-01  8.50000000E-01
  8.50000000E-01  8.50000000E-01  8.00000000E-01  8.50000000E-01  8.50000000E-01
  8.50000000E-01  8.00000000E-01  8.50000000E-01  8.50000000E-01  8.50000000E-01
  8.00000000E-01  8.50000000E-01  8.50000000E-01  8.50000000E-01  8.00000000E-01
  8.50000000E-01  8.50000000E-01  8.50000000E-01  8.00000000E-01  8.50000000E-01
  8.50000000E-01  8.50000000E-01  8.00000000E-01  8.50000000E-01  8.50000000E-01
  8.50000000E-01  8.00000000E-01  8.50000000E-01  8.50000000E-01  8.50000000E-01
  8.00000000E-01  8.50000000E-01  8.50000000E-01  8.50000000E-01  8.00000000E-01
  8.50000000E-01  8.50000000E-01  8.50000000E-01  8.00000000E-01  8.50000000E-01
  8.50000000E-01  8.50000000E-01  8.00000000E-01  8.50000000E-01  8.50000000E-01
  8.50000000E-01  8.00000000E-01  8.50000000E-01  8.50000000E-01  8.50000000E-01
  8.00000000E-01  8.50000000E-01  8.50000000E-01  8.50000000E-01  8.00000000E-01
  8.50000000E-01  8.50000000E-01  8.50000000E-01  8.00000000E-01  8.50000000E-01
  8.50000000E-01  8.50000000E-01  8.00000000E-01  8.50000000E-01  8.50000000E-01
  8.50000000E-01  8.00000000E-01  8.50000000E-01  8.50000000E-01  8.50000000E-01
  8.00000000E-01  8.50000000E-01  8.50000000E-01  8.50000000E-01  8.00000000E-01
  8.50000000E-01  8.50000000E-01  8.50000000E-01  8.00000000E-01  8.50000000E-01
  8.50000000E-01  8.50000000E-01  8.00000000E-01  8.50000000E-01  8.50000000E-01
  8.50000000E-01  8.00000000E-01  8.50000000E-01  8.50000000E-01  8.50000000E-01
  8.00000000E-01  8.50000000E-01  8.50000000E-01  8.50000000E-01  8.00000000E-01
  8.50000000E-01  8.50000000E-01  8.50000000E-01  8.00000000E-01  8.50000000E-01
  8.50000000E-01  8.50000000E-01  8.00000000E-01  8.50000000E-01  8.50000000E-01
  8.50000000E-01  8.00000000E-01  8.50000000E-01  8.50000000E-01  8.50000000E-01
  8.00000000E-01  8.50000000E-01  8.50000000E-01  8.50000000E-01  8.00000000E-01
  8.50000000E-01  8.50000000E-01  8.50000000E-01  8.00000000E-01  8.50000000E-01
  8.50000000E-01  8.50000000E-01  8.00000000E-01  8.50000000E-01  8.50000000E-01
  8.50000000E-01  8.00000000E-01  8.50000000E-01  8.50000000E-01  8.50000000E-01
  8.00000000E-01  8.50000000E-01  8.50000000E-01  8.50000000E-01  8.00000000E-01
  8.50000000E-01  8.50000000E-01  8.50000000E-01  8.00000000E-01  8.50000000E-01
  8.50000000E-01  8.50000000E-01  8.00000000E-01  8.50000000E-01  8.50000000E-01
  8.50000000E-01  8.00000000E-01  8.50000000E-01  8.50000000E-01  8.50000000E-01
  8.00000000E-01  8.50000000E-01  8.50000000E-01  8.50000000E-01  8.00000000E-01
  8.50000000E-01  8.50000000E-01  8.50000000E-01  8.00000000E-01  8.50000000E-01
  8.50000000E-01  8.50000000E-01  8.00000000E-01  8.50000000E-01  8.50000000E-01
  8.50000000E-01  8.00000000E-01  8.50000000E-01  8.50000000E-01  8.50000000E-01
  8.00000000E-01  8.50000000E-01  8.50000000E-01  8.50000000E-01  8.00000000E-01
  8.50000000E-01  8.50000000E-01  8.50000000E-01  8.00000000E-01  8.50000000E-01
  8.50000000E-01  8.50000000E-01  8.00000000E-01  8.50000000E-01  8.50000000E-01
  8.50000000E-01  8.00000000E-01  8.50000000E-01  8.50000000E-01  8.50000000E-01
  8.00000000E-01  8.50000000E-01  8.50000000E-01  8.50000000E-01  8.00000000E-01
  8.50000000E-01  8.50000000E-01  8.50000000E-01  8.00000000E-01  8.50000000E-01
  8.50000000E-01  8.50000000E-01  8.00000000E-01  8.50000000E-01  8.50000000E-01
  8.50000000E-01  8.00000000E-01  8.50000000E-01  8.50000000E-01  8.50000000E-01
  8.00000000E-01  8.50000000E-01  8.50000000E-01  8.50000000E-01  8.00000000E-01
  8.50000000E-01  8.50000000E-01  8.50000000E-01  8.00000000E-01  8.50000000E-01
  8.50000000E-01  8.50000000E-01  8.00000000E-01  8.50000000E-01  8.50000000E-01
  8.50000000E-01  8.00000000E-01  8.50000000E-01  8.50000000E-01  8.50000000E-01
  8.00000000E-01  8.50000000E-01  8.50000000E-01  8.50000000E-01  8.00000000E-01
  8.50000000E-01  8.50000000E-01  8.50000000E-01  8.00000000E-01  8.50000000E-01
  8.50000000E-01  8.50000000E-01  8.00000000E-01  8.50000000E-01  8.50000000E-01
  8.50000000E-01  8.00000000E-01  8.50000000E-01  8.50000000E-01  8.50000000E-01
  8.00000000E-01  8.50000000E-01  8.50000000E-01  8.50000000E-01  8.00000000E-01
  8.50000000E-01  8.50000000E-01  8.50000000E-01  8.00000000E-01  8.50000000E-01
  8.50000000E-01  8.50000000E-01  8.00000000E-01  8.50000000E-01  8.50000000E-01
  8.50000000E-01  8.00000000E-01  8.50000000E-01  8.50000000E-01  8.50000000E-01
  8.00000000E-01  8.50000000E-01  8.50000000E-01  8.50000000E-01  8.00000000E-01
  8.50000000E-01  8.50000000E-01  8.50000000E-01  8.00000000E-01  8.50000000E-01
  8.50000000E-01  8.50000000E-01  8.00000000E-01  8.50000000E-01  8.50000000E-01
  8.50000000E-01  8.00000000E-01  8.50000000E-01  8.50000000E-01  8.50000000E-01
  8.00000000E-01  8.50000000E-01  8.50000000E-01  8.50000000E-01  8.00000000E-01
  8.50000000E-01  8.50000000E-01  8.50000000E-01  8.00000000E-01  8.50000000E-01
  8.50000000E-01  8.50000000E-01  8.00000000E-01  8.50000000E-01  8.50000000E-01
  8.50000000E-01  8.00000000E-01  8.50000000E-01  8.50000000E-01  8.50000000E-01
  8.00000000E-01  8.50000000E-01  8.50000000E-01  8.50000000E-01  8.00000000E-01
  8.50000000E-01  8.50000000E-01  8.50000000E-01  8.00000000E-01  8.50000000E-01
  8.50000000E-01  8.50000000E-01  8.00000000E-01  8.50000000E-01  8.50000000E-01
  8.50000000E-01  8.00000000E-01  8.50000000E-01  8.50000000E-01  8.50000000E-01
  8.00000000E-01  8.50000000E-01  8.50000000E-01  8.50000000E-01  8.00000000E-01
  8.50000000E-01  8.50000000E-01  8.50000000E-01  8.00000000E-01  8.50000000E-01
  8.50000000E-01  8.50000000E-01  8.00000000E-01  8.50000000E-01  8.50000000E-01
  8.50000000E-01  8.00000000E-01  8.50000000E-01  8.50000000E-01  8.50000000E-01
  8.00000000E-01  8.50000000E-01  8.50000000E-01  8.50000000E-01  8.00000000E-01
  8.50000000E-01  8.50000000E-01  8.50000000E-01  8.00000000E-01  8.50000000E-01
  8.50000000E-01  8.50000000E-01  8.00000000E-01  8.50000000E-01  8.50000000E-01
  8.50000000E-01  8.00000000E-01  8.50000000E-01  8.50000000E-01  8.50000000E-01
  8.00000000E-01  8.50000000E-01  8.50000000E-01  8.50000000E-01  8.00000000E-01
  8.50000000E-01  8.50000000E-01  8.50000000E-01  8.00000000E-01  8.50000000E-01
  8.50000000E-01  8.50000000E-01  8.00000000E-01  8.50000000E-01  8.50000000E-01
  8.50000000E-01  8.00000000E-01  8.50000000E-01  8.50000000E-01  8.50000000E-01
  8.00000000E-01  8.50000000E-01  8.50000000E-01  8.50000000E-01  8.00000000E-01
  8.50000000E-01  8.50000000E-01  8.50000000E-01  8.00000000E-01  8.50000000E-01
  8.50000000E-01  8.50000000E-01  8.00000000E-01  8.50000000E-01  8.50000000E-01
  8.50000000E-01  8.00000000E-01  8.50000000E-01  8.50000000E-01  8.50000000E-01
  8.00000000E-01  8.50000000E-01  8.50000000E-01  8.50000000E-01  8.00000000E-01
  8.50000000E-01  8.50000000E-01  8.50000000E-01  8.00000000E-01  8.50000000E-01
  8.50000000E-01  8.50000000E-01  8.00000000E-01  8.50000000E-01  8.50000000E-01
  8.50000000E-01  8.00000000E-01  8.50000000E-01  8.50000000E-01  8.50000000E-01
  8.00000000E-01  8.50000000E-01  8.50000000E-01  8.50000000E-01  8.00000000E-01
  8.50000000E-01  8.50000000E-01  8.50000000E-01  8.00000000E-01  8.50000000E-01
  8.50000000E-01  8.50000000E-01  8.00000000E-01  8.50000000E-01  8.50000000E-01
  8.50000000E-01  8.00000000E-01  8.50000000E-01  8.50000000E-01  8.50000000E-01
  8.00000000E-01  8.50000000E-01  8.50000000E-01  8.50000000E-01  8.00000000E-01
  8.50000000E-01  8.50000000E-01  8.50000000E-01  8.00000000E-01  8.50000000E-01
  8.50000000E-01  8.50000000E-01  8.00000000E-01  8.50000000E-01  8.50000000E-01
  8.50000000E-01  8.00000000E-01  8.50000000E-01  8.50000000E-01  8.50000000E-01
  8.00000000E-01  8.50000000E-01  8.50000000E-01  8.50000000E-01  8.00000000E-01
  8.50000000E-01  8.50000000E-01  8.50000000E-01  8.00000000E-01  8.50000000E-01
  8.50000000E-01  8.50000000E-01  8.00000000E-01  8.50000000E-01  8.50000000E-01
  8.50000000E-01  8.00000000E-01  8.50000000E-01  8.50000000E-01  8.50000000E-01
  8.00000000E-01  8.50000000E-01  8.50000000E-01  8.50000000E-01  8.00000000E-01
  8.50000000E-01  8.50000000E-01  8.50000000E-01  8.00000000E-01  8.50000000E-01
  8.50000000E-01  8.50000000E-01  8.00000000E-01  8.50000000E-01  8.50000000E-01
  8.50000000E-01  8.00000000E-01  8.50000000E-01  8.50000000E-01  8.50000000E-01
  8.00000000E-01  8.50000000E-01  8.50000000E-01  8.50000000E-01  8.00000000E-01
  8.50000000E-01  8.50000000E-01  8.50000000E-01  8.00000000E-01  8.50000000E-01
  8.50000000E-01  8.50000000E-01  8.00000000E-01  8.50000000E-01  8.50000000E-01
  8.50000000E-01  8.00000000E-01  8.50000000E-01  8.50000000E-01  8.50000000E-01
  8.00000000E-01  8.50000000E-01  8.50000000E-01  8.50000000E-01  8.00000000E-01
  8.50000000E-01  8.50000000E-01  8.50000000E-01  8.00000000E-01  8.50000000E-01
  8.50000000E-01  8.50000000E-01  8.00000000E-01  8.50000000E-01  8.50000000E-01
  8.50000000E-01  8.00000000E-01  8.50000000E-01  8.50000000E-01  8.50000000E-01
  8.00000000E-01  8.50000000E-01  8.50000000E-01  8.50000000E-01  8.00000000E-01
  8.50000000E-01  8.50000000E-01  8.50000000E-01  8.00000000E-01  8.50000000E-01
  8.50000000E-01  8.50000000E-01  8.00000000E-01  8.50000000E-01  8.50000000E-01
  8.50000000E-01  8.00000000E-01  8.50000000E-01  8.50000000E-01  8.50000000E-01
  8.00000000E-01  8.50000000E-01  8.50000000E-01  8.50000000E-01  8.00000000E-01
  8.50000000E-01  8.50000000E-01  8.50000000E-01  8.00000000E-01  8.50000000E-01
  8.50000000E-01  8.50000000E-01  8.00000000E-01  8.50000000E-01  8.50000000E-01
  8.50000000E-01  8.00000000E-01  8.50000000E-01  8.50000000E-01  8.50000000E-01
  8.00000000E-01  8.50000000E-01  8.50000000E-01  8.50000000E-01  8.00000000E-01
  8.50000000E-01  8.50000000E-01  8.50000000E-01  8.00000000E-01  8.50000000E-01
  8.50000000E-01  8.50000000E-01  8.00000000E-01  8.50000000E-01  8.50000000E-01
  8.50000000E-01  8.00000000E-01  8.50000000E-01  8.50000000E-01  8.50000000E-01
  8.00000000E-01  8.50000000E-01  8.50000000E-01  8.50000000E-01  8.00000000E-01
  8.50000000E-01  8.50000000E-01  8.50000000E-01  8.00000000E-01  8.50000000E-01
  8.50000000E-01  8.50000000E-01  8.00000000E-01  8.50000000E-01  8.50000000E-01
  8.50000000E-01  8.00000000E-01  8.50000000E-01  8.50000000E-01  8.50000000E-01
  8.00000000E-01  8.50000000E-01  8.50000000E-01  8.50000000E-01  8.00000000E-01
  8.50000000E-01  8.50000000E-01  8.50000000E-01  8.00000000E-01  8.50000000E-01
  8.50000000E-01  8.50000000E-01  8.00000000E-01  8.50000000E-01  8.50000000E-01
  8.50000000E-01  8.00000000E-01  8.50000000E-01  8.50000000E-01  8.50000000E-01
  8.00000000E-01  8.50000000E-01  8.50000000E-01  8.50000000E-01  8.00000000E-01
  8.50000000E-01  8.50000000E-01  8.50000000E-01  8.00000000E-01  8.50000000E-01
  8.50000000E-01  8.50000000E-01  8.00000000E-01  8.50000000E-01  8.50000000E-01
  8.50000000E-01  8.00000000E-01  8.50000000E-01  8.50000000E-01  8.50000000E-01
  8.00000000E-01  8.50000000E-01  8.50000000E-01  8.50000000E-01  8.00000000E-01
  8.50000000E-01  8.50000000E-01  8.50000000E-01  8.00000000E-01  8.50000000E-01
  8.50000000E-01  8.50000000E-01  8.00000000E-01  8.50000000E-01  8.50000000E-01
  8.50000000E-01  8.00000000E-01  8.50000000E-01  8.50000000E-01  8.50000000E-01
  8.00000000E-01  8.50000000E-01  8.50000000E-01  8.50000000E-01  8.00000000E-01
  8.50000000E-01  8.50000000E-01  8.50000000E-01  8.00000000E-01  8.50000000E-01
  8.50000000E-01  8.50000000E-01  8.00000000E-01  8.50000000E-01  8.50000000E-01
  8.50000000E-01  8.00000000E-01  8.50000000E-01  8.50000000E-01  8.50000000E-01
  8.00000000E-01  8.50000000E-01  8.50000000E-01  8.50000000E-01  8.00000000E-01
  8.50000000E-01  8.50000000E-01  8.50000000E-01  8.00000000E-01  8.50000000E-01
  8.50000000E-01  8.50000000E-01  8.00000000E-01  8.50000000E-01  8.50000000E-01
  8.50000000E-01  8.00000000E-01  8.50000000E-01  8.50000000E-01  8.50000000E-01
  8.00000000E-01  8.50000000E-01  8.50000000E-01  8.50000000E-01  8.00000000E-01
  8.50000000E-01  8.50000000E-01  8.50000000E-01  8.00000000E-01  8.50000000E-01
  8.50000000E-01  8.50000000E-01  8.00000000E-01  8.50000000E-01  8.50000000E-01
  8.50000000E-01  8.00000000E-01  8.50000000E-01  8.50000000E-01  8.50000000E-01
  8.00000000E-01  8.50000000E-01  8.50000000E-01  8.50000000E-01  8.00000000E-01
  8.50000000E-01  8.50000000E-01  8.50000000E-01  8.00000000E-01  8.50000000E-01
  8.50000000E-01  8.50000000E-01  8.00000000E-01  8.50000000E-01  8.50000000E-01
  8.50000000E-01  8.00000000E-01  8.50000000E-01  8.50000000E-01  8.50000000E-01
  8.00000000E-01  8.50000000E-01  8.50000000E-01  8.50000000E-01  8.00000000E-01
  8.50000000E-01  8.50000000E-01  8.50000000E-01  8.00000000E-01  8.50000000E-01
  8.50000000E-01  8.50000000E-01  8.00000000E-01  8.50000000E-01  8.50000000E-01
  8.50000000E-01  8.00000000E-01  8.50000000E-01  8.50000000E-01  8.50000000E-01
  8.00000000E-01  8.50000000E-01  8.50000000E-01  8.50000000E-01  8.00000000E-01
  8.50000000E-01  8.50000000E-01  8.50000000E-01  8.00000000E-01  8.50000000E-01
  8.50000000E-01  8.50000000E-01  8.00000000E-01  8.50000000E-01  8.50000000E-01
  8.50000000E-01  8.00000000E-01  8.50000000E-01  8.50000000E-01  8.50000000E-01
  8.00000000E-01  8.50000000E-01  8.50000000E-01  8.50000000E-01  8.00000000E-01
  8.50000000E-01  8.50000000E-01  8.50000000E-01  8.00000000E-01  8.50000000E-01
  8.50000000E-01  8.50000000E-01  8.00000000E-01  8.50000000E-01  8.50000000E-01
  8.50000000E-01  8.00000000E-01  8.50000000E-01  8.50000000E-01  8.50000000E-01
  8.00000000E-01  8.50000000E-01  8.50000000E-01  8.50000000E-01  8.00000000E-01
  8.50000000E-01  8.50000000E-01  8.50000000E-01  8.00000000E-01  8.50000000E-01
  8.50000000E-01  8.50000000E-01  8.00000000E-01  8.50000000E-01  8.50000000E-01
  8.50000000E-01  8.00000000E-01  8.50000000E-01  8.50000000E-01  8.50000000E-01
  8.00000000E-01  8.50000000E-01  8.50000000E-01  8.50000000E-01  8.00000000E-01
  8.50000000E-01  8.50000000E-01  8.50000000E-01  8.00000000E-01  8.50000000E-01
  8.50000000E-01  8.50000000E-01  8.00000000E-01  8.50000000E-01  8.50000000E-01
  8.50000000E-01  8.00000000E-01  8.50000000E-01  8.50000000E-01  8.50000000E-01
  8.00000000E-01  8.50000000E-01  8.50000000E-01  8.50000000E-01  8.00000000E-01
  8.50000000E-01  8.50000000E-01  8.50000000E-01  8.00000000E-01  8.50000000E-01
  8.50000000E-01  8.50000000E-01  8.00000000E-01  8.50000000E-01  8.50000000E-01
  8.50000000E-01  8.00000000E-01  8.50000000E-01  8.50000000E-01  8.50000000E-01
  8.00000000E-01  8.50000000E-01  8.50000000E-01  8.50000000E-01  8.00000000E-01
  8.50000000E-01  8.50000000E-01  8.50000000E-01  8.00000000E-01  8.50000000E-01
  8.50000000E-01  8.50000000E-01  8.00000000E-01  8.50000000E-01  8.50000000E-01
  8.50000000E-01  8.00000000E-01  8.50000000E-01  8.50000000E-01  8.50000000E-01
  8.00000000E-01  8.50000000E-01  8.50000000E-01  8.50000000E-01  8.00000000E-01
  8.50000000E-01  8.50000000E-01  8.50000000E-01  8.00000000E-01  8.50000000E-01
  8.50000000E-01  8.50000000E-01  8.00000000E-01  8.50000000E-01  8.50000000E-01
  8.50000000E-01  8.00000000E-01  8.50000000E-01  8.50000000E-01  8.50000000E-01
  8.00000000E-01  8.50000000E-01  8.50000000E-01  8.50000000E-01  8.00000000E-01
  8.50000000E-01  8.50000000E-01  8.50000000E-01  8.00000000E-01  8.50000000E-01
  8.50000000E-01  8.50000000E-01  8.00000000E-01  8.50000000E-01  8.50000000E-01
  8.50000000E-01  8.00000000E-01  8.50000000E-01  8.50000000E-01  8.50000000E-01
  8.00000000E-01  8.50000000E-01  8.50000000E-01  8.50000000E-01  8.00000000E-01
  8.50000000E-01  8.50000000E-01  8.50000000E-01  8.00000000E-01  8.50000000E-01
  8.50000000E-01  8.50000000E-01  8.00000000E-01  8.50000000E-01  8.50000000E-01
  8.50000000E-01  8.00000000E-01  8.50000000E-01  8.50000000E-01  8.50000000E-01
  8.00000000E-01  8.50000000E-01  8.50000000E-01  8.50000000E-01  8.00000000E-01
  8.50000000E-01  8.50000000E-01  8.50000000E-01  8.00000000E-01  8.50000000E-01
  8.50000000E-01  8.50000000E-01  8.00000000E-01  8.50000000E-01  8.50000000E-01
  8.50000000E-01  8.00000000E-01  8.50000000E-01  8.50000000E-01  8.50000000E-01
  8.00000000E-01  8.50000000E-01  8.50000000E-01  8.50000000E-01  8.00000000E-01
  8.50000000E-01  8.50000000E-01  8.50000000E-01  8.00000000E-01  8.50000000E-01
  8.50000000E-01  8.50000000E-01  8.00000000E-01  8.50000000E-01  8.50000000E-01
  8.50000000E-01  8.00000000E-01  8.50000000E-01  8.50000000E-01  8.50000000E-01
  8.00000000E-01  8.50000000E-01  8.50000000E-01  8.50000000E-01  8.00000000E-01
  8.50000000E-01  8.50000000E-01  8.50000000E-01  8.00000000E-01  8.50000000E-01
  8.50000000E-01  8.50000000E-01  8.00000000E-01  8.50000000E-01  8.50000000E-01
  8.50000000E-01  8.00000000E-01  8.50000000E-01  8.50000000E-01  8.50000000E-01
  8.00000000E-01  8.50000000E-01  8.50000000E-01  8.50000000E-01  8.00000000E-01
  8.50000000E-01  8.50000000E-01  8.50000000E-01  8.00000000E-01  8.50000000E-01
  8.50000000E-01  8.50000000E-01  8.00000000E-01  8.50000000E-01  8.50000000E-01
  8.50000000E-01  8.00000000E-01  8.50000000E-01  8.50000000E-01  8.50000000E-01
  8.00000000E-01  8.50000000E-01  8.50000000E-01  8.50000000E-01  8.00000000E-01
  8.50000000E-01  8.50000000E-01  8.50000000E-01  8.00000000E-01  8.50000000E-01
  8.50000000E-01  8.50000000E-01  8.00000000E-01  8.50000000E-01  8.50000000E-01
  8.50000000E-01  8.00000000E-01  8.50000000E-01  8.50000000E-01  8.50000000E-01
  8.00000000E-01  8.50000000E-01  8.50000000E-01  8.50000000E-01  8.00000000E-01
  8.50000000E-01  8.50000000E-01  8.50000000E-01  8.00000000E-01  8.50000000E-01
  8.50000000E-01  8.50000000E-01  8.00000000E-01  8.50000000E-01  8.50000000E-01
  8.50000000E-01  8.00000000E-01  8.50000000E-01  8.50000000E-01  8.50000000E-01
  8.00000000E-01  8.50000000E-01  8.50000000E-01  8.50000000E-01  8.00000000E-01
  8.50000000E-01  8.50000000E-01  8.50000000E-01  8.00000000E-01  8.50000000E-01
  8.50000000E-01  8.50000000E-01  8.00000000E-01  8.50000000E-01  8.50000000E-01
  8.50000000E-01  8.00000000E-01  8.50000000E-01  8.50000000E-01  8.50000000E-01
  8.00000000E-01  8.50000000E-01  8.50000000E-01  8.50000000E-01  8.00000000E-01
  8.50000000E-01  8.50000000E-01  8.50000000E-01  8.00000000E-01  8.50000000E-01
  8.50000000E-01  8.50000000E-01  8.00000000E-01  8.50000000E-01  8.50000000E-01
  8.50000000E-01  8.00000000E-01  8.50000000E-01  8.50000000E-01  8.50000000E-01
  8.00000000E-01  8.50000000E-01  8.50000000E-01  8.50000000E-01  8.00000000E-01
  8.50000000E-01  8.50000000E-01  8.50000000E-01  8.00000000E-01  8.50000000E-01
  8.50000000E-01  8.50000000E-01  8.00000000E-01  8.50000000E-01  8.50000000E-01
  8.50000000E-01  8.00000000E-01  8.50000000E-01  8.50000000E-01  8.50000000E-01
  8.00000000E-01  8.50000000E-01  8.50000000E-01  8.50000000E-01  8.00000000E-01
  8.50000000E-01  8.50000000E-01  8.50000000E-01  8.00000000E-01  8.50000000E-01
  8.50000000E-01  8.50000000E-01  8.00000000E-01  8.50000000E-01  8.50000000E-01
  8.50000000E-01  8.00000000E-01  8.50000000E-01  8.50000000E-01  8.50000000E-01
  8.00000000E-01  8.50000000E-01  8.50000000E-01  8.50000000E-01  8.00000000E-01
  8.50000000E-01  8.50000000E-01  8.50000000E-01  8.00000000E-01  8.50000000E-01
  8.50000000E-01  8.50000000E-01  8.00000000E-01  8.50000000E-01  8.50000000E-01
  8.50000000E-01  8.00000000E-01  8.50000000E-01  8.50000000E-01  8.50000000E-01
  8.00000000E-01  8.50000000E-01  8.50000000E-01  8.50000000E-01  8.00000000E-01
  8.50000000E-01  8.50000000E-01  8.50000000E-01  8.00000000E-01  8.50000000E-01
  8.50000000E-01  8.50000000E-01  8.00000000E-01  8.50000000E-01  8.50000000E-01
  8.50000000E-01  8.00000000E-01  8.50000000E-01  8.50000000E-01  8.50000000E-01
  8.00000000E-01  8.50000000E-01  8.50000000E-01  8.50000000E-01  8.00000000E-01
  8.50000000E-01  8.50000000E-01  8.50000000E-01  8.00000000E-01  8.50000000E-01
  8.50000000E-01  8.50000000E-01  8.00000000E-01  8.50000000E-01  8.50000000E-01
  8.50000000E-01  8.00000000E-01  8.50000000E-01  8.50000000E-01  8.50000000E-01
  8.00000000E-01  8.50000000E-01  8.50000000E-01  8.50000000E-01  8.00000000E-01
  8.50000000E-01  8.50000000E-01  8.50000000E-01  8.00000000E-01  8.50000000E-01
  8.50000000E-01  8.50000000E-01  8.00000000E-01  8.50000000E-01  8.50000000E-01
  8.50000000E-01  8.00000000E-01  8.50000000E-01  8.50000000E-01  8.50000000E-01
  8.00000000E-01  8.50000000E-01  8.50000000E-01  8.50000000E-01  8.00000000E-01
  8.50000000E-01  8.50000000E-01  8.50000000E-01  8.00000000E-01  8.50000000E-01
  8.50000000E-01  8.50000000E-01  8.00000000E-01  8.50000000E-01  8.50000000E-01
  8.50000000E-01  8.00000000E-01  8.50000000E-01  8.50000000E-01  8.50000000E-01
  8.00000000E-01  8.50000000E-01  8.50000000E-01  8.50000000E-01  8.00000000E-01
  8.50000000E-01  8.50000000E-01  8.50000000E-01  8.00000000E-01  8.50000000E-01
  8.50000000E-01  8.50000000E-01  8.00000000E-01  8.50000000E-01  8.50000000E-01
  8.50000000E-01  8.00000000E-01  8.50000000E-01  8.50000000E-01  8.50000000E-01
  8.00000000E-01  8.50000000E-01  8.50000000E-01  8.50000000E-01  8.00000000E-01
  8.50000000E-01  8.50000000E-01  8.50000000E-01  8.00000000E-01  8.50000000E-01
  8.50000000E-01  8.50000000E-01  8.00000000E-01  8.50000000E-01  8.50000000E-01
  8.50000000E-01  8.00000000E-01  8.50000000E-01  8.50000000E-01  8.50000000E-01
  8.00000000E-01  8.50000000E-01  8.50000000E-01  8.50000000E-01  8.00000000E-01
  8.50000000E-01  8.50000000E-01  8.50000000E-01  8.00000000E-01  8.50000000E-01
  8.50000000E-01  8.50000000E-01  8.00000000E-01  8.50000000E-01  8.50000000E-01
  8.50000000E-01  8.00000000E-01  8.50000000E-01  8.50000000E-01  8.50000000E-01
  8.00000000E-01  8.50000000E-01  8.50000000E-01  8.50000000E-01  8.00000000E-01
  8.50000000E-01  8.50000000E-01  8.50000000E-01  8.00000000E-01  8.50000000E-01
  8.50000000E-01  8.50000000E-01  8.00000000E-01  8.50000000E-01  8.50000000E-01
  8.50000000E-01  8.00000000E-01  8.50000000E-01  8.50000000E-01  8.50000000E-01
  8.00000000E-01  8.50000000E-01  8.50000000E-01  8.50000000E-01  8.00000000E-01
  8.50000000E-01  8.50000000E-01  8.50000000E-01  8.00000000E-01  8.50000000E-01
  8.50000000E-01  8.50000000E-01  8.00000000E-01  8.50000000E-01  8.50000000E-01
  8.50000000E-01  8.00000000E-01  8.50000000E-01  8.50000000E-01  8.50000000E-01
  8.00000000E-01  8.50000000E-01  8.50000000E-01  8.50000000E-01  8.00000000E-01
  8.50000000E-01  8.50000000E-01  8.50000000E-01  8.00000000E-01  8.50000000E-01
  8.50000000E-01  8.50000000E-01  8.00000000E-01  8.50000000E-01  8.50000000E-01
  8.50000000E-01  8.00000000E-01  8.50000000E-01  8.50000000E-01  8.50000000E-01
  8.00000000E-01  8.50000000E-01  8.50000000E-01  8.50000000E-01  8.00000000E-01
  8.50000000E-01  8.50000000E-01  8.50000000E-01  8.00000000E-01  8.50000000E-01
  8.50000000E-01  8.50000000E-01  8.00000000E-01  8.50000000E-01  8.50000000E-01
  8.50000000E-01  8.00000000E-01  8.50000000E-01  8.50000000E-01  8.50000000E-01
  8.00000000E-01  8.50000000E-01  8.50000000E-01  8.50000000E-01  8.00000000E-01
  8.50000000E-01  8.50000000E-01  8.50000000E-01  8.00000000E-01  8.50000000E-01
  8.50000000E-01  8.50000000E-01  8.00000000E-01  8.50000000E-01  8.50000000E-01
  8.50000000E-01  8.00000000E-01  8.50000000E-01  8.50000000E-01  8.50000000E-01
  8.00000000E-01  8.50000000E-01  8.50000000E-01  8.50000000E-01  8.00000000E-01
  8.50000000E-01  8.50000000E-01  8.50000000E-01  8.00000000E-01  8.50000000E-01
  8.50000000E-01  8.50000000E-01  8.00000000E-01  8.50000000E-01  8.50000000E-01
  8.50000000E-01  8.00000000E-01  8.50000000E-01  8.50000000E-01  8.50000000E-01
  8.00000000E-01  8.50000000E-01  8.50000000E-01  8.50000000E-01  8.00000000E-01
  8.50000000E-01  8.50000000E-01  8.50000000E-01  8.00000000E-01  8.50000000E-01
  8.50000000E-01  8.50000000E-01  8.00000000E-01  8.50000000E-01  8.50000000E-01
  8.50000000E-01  8.00000000E-01  8.50000000E-01  8.50000000E-01  8.50000000E-01
  8.00000000E-01  8.50000000E-01  8.50000000E-01  8.50000000E-01  8.00000000E-01
  8.50000000E-01  8.50000000E-01  8.50000000E-01  8.00000000E-01  8.50000000E-01
  8.50000000E-01  8.50000000E-01  8.00000000E-01  8.50000000E-01  8.50000000E-01
  8.50000000E-01  8.00000000E-01  8.50000000E-01  8.50000000E-01  8.50000000E-01
  8.00000000E-01  8.50000000E-01  8.50000000E-01  8.50000000E-01  8.00000000E-01
  8.50000000E-01  8.50000000E-01  8.50000000E-01  8.00000000E-01  8.50000000E-01
  8.50000000E-01  8.50000000E-01  8.00000000E-01  8.50000000E-01  8.50000000E-01
  8.50000000E-01  8.00000000E-01  8.50000000E-01  8.50000000E-01  8.50000000E-01
  8.00000000E-01  8.50000000E-01  8.50000000E-01  8.50000000E-01  8.00000000E-01
  8.50000000E-01  8.50000000E-01  8.50000000E-01  8.00000000E-01  8.50000000E-01
  8.50000000E-01  8.50000000E-01  8.00000000E-01  8.50000000E-01  8.50000000E-01
  8.50000000E-01  8.00000000E-01  8.50000000E-01  8.50000000E-01  8.50000000E-01
  8.00000000E-01  8.50000000E-01  8.50000000E-01  8.50000000E-01  8.00000000E-01
  8.50000000E-01  8.50000000E-01  8.50000000E-01  8.00000000E-01  8.50000000E-01
  8.50000000E-01  8.50000000E-01  8.00000000E-01  8.50000000E-01  8.50000000E-01
  8.50000000E-01  8.00000000E-01  8.50000000E-01  8.50000000E-01  8.50000000E-01
  8.00000000E-01  8.50000000E-01  8.50000000E-01  8.50000000E-01  8.00000000E-01
  8.50000000E-01  8.50000000E-01  8.50000000E-01  8.00000000E-01  8.50000000E-01
  8.50000000E-01  8.50000000E-01  8.00000000E-01  8.50000000E-01  8.50000000E-01
  8.50000000E-01  8.00000000E-01  8.50000000E-01  8.50000000E-01  8.50000000E-01
  8.00000000E-01  8.50000000E-01  8.50000000E-01  8.50000000E-01  8.00000000E-01
  8.50000000E-01  8.50000000E-01  8.50000000E-01  8.00000000E-01  8.50000000E-01
  8.50000000E-01  8.50000000E-01  8.00000000E-01  8.50000000E-01  8.50000000E-01
  8.50000000E-01  8.00000000E-01  8.50000000E-01  8.50000000E-01  8.50000000E-01
  8.00000000E-01  8.50000000E-01  8.50000000E-01  8.50000000E-01  8.00000000E-01
  8.50000000E-01  8.50000000E-01  8.50000000E-01  8.00000000E-01  8.50000000E-01
  8.50000000E-01  8.50000000E-01  8.00000000E-01  8.50000000E-01  8.50000000E-01
  8.50000000E-01  8.00000000E-01  8.50000000E-01  8.50000000E-01  8.50000000E-01
  8.00000000E-01  8.50000000E-01  8.50000000E-01  8.50000000E-01  8.00000000E-01
  8.50000000E-01  8.50000000E-01  8.50000000E-01  8.00000000E-01  8.50000000E-01
  8.50000000E-01  8.50000000E-01  8.00000000E-01  8.50000000E-01  8.50000000E-01
  8.50000000E-01  8.00000000E-01  8.50000000E-01  8.50000000E-01  8.50000000E-01
  8.00000000E-01  8.50000000E-01  8.50000000E-01  8.50000000E-01  8.00000000E-01
  8.50000000E-01  8.50000000E-01  8.50000000E-01  8.00000000E-01  8.50000000E-01
  8.50000000E-01  8.50000000E-01  8.00000000E-01  8.50000000E-01  8.50000000E-01
  8.50000000E-01  8.00000000E-01  8.50000000E-01  8.50000000E-01  8.50000000E-01
  8.00000000E-01  8.50000000E-01  8.50000000E-01  8.50000000E-01  8.00000000E-01
  8.50000000E-01  8.50000000E-01  8.50000000E-01  8.00000000E-01  8.50000000E-01
  8.50000000E-01  8.50000000E-01  8.00000000E-01  8.50000000E-01  8.50000000E-01
  8.50000000E-01  8.00000000E-01  8.50000000E-01  8.50000000E-01  8.50000000E-01
  8.00000000E-01  8.50000000E-01  8.50000000E-01  8.50000000E-01  8.00000000E-01
  8.50000000E-01  8.50000000E-01  8.50000000E-01  8.00000000E-01  8.50000000E-01
  8.50000000E-01  8.50000000E-01  8.00000000E-01  8.50000000E-01  8.50000000E-01
  8.50000000E-01  8.00000000E-01  8.50000000E-01  8.50000000E-01  8.50000000E-01
  8.00000000E-01  8.50000000E-01  8.50000000E-01  8.50000000E-01  8.00000000E-01
  8.50000000E-01  8.50000000E-01  8.50000000E-01  8.00000000E-01  8.50000000E-01
  8.50000000E-01  8.50000000E-01  8.00000000E-01  8.50000000E-01  8.50000000E-01
  8.50000000E-01  8.00000000E-01  8.50000000E-01  8.50000000E-01  8.50000000E-01
  8.00000000E-01  8.50000000E-01  8.50000000E-01  8.50000000E-01  8.00000000E-01
  8.50000000E-01  8.50000000E-01  8.50000000E-01  8.00000000E-01  8.50000000E-01
  8.50000000E-01  8.50000000E-01  8.00000000E-01  8.50000000E-01  8.50000000E-01
  8.50000000E-01  8.00000000E-01  8.50000000E-01  8.50000000E-01  8.50000000E-01
  8.00000000E-01  8.50000000E-01  8.50000000E-01  8.50000000E-01  8.00000000E-01
  8.50000000E-01  8.50000000E-01  8.50000000E-01  8.00000000E-01  8.50000000E-01
  8.50000000E-01  8.50000000E-01  8.00000000E-01  8.50000000E-01  8.50000000E-01
  8.50000000E-01  8.00000000E-01  8.50000000E-01  8.50000000E-01  8.50000000E-01
  8.00000000E-01  8.50000000E-01  8.50000000E-01  8.50000000E-01  8.00000000E-01
  8.50000000E-01  8.50000000E-01  8.50000000E-01  8.00000000E-01  8.50000000E-01
  8.50000000E-01  8.50000000E-01  8.00000000E-01  8.50000000E-01  8.50000000E-01
  8.50000000E-01  8.00000000E-01  8.50000000E-01  8.50000000E-01  8.50000000E-01
  8.00000000E-01  8.50000000E-01  8.50000000E-01  8.50000000E-01  8.00000000E-01
  8.50000000E-01  8.50000000E-01  8.50000000E-01  8.00000000E-01  8.50000000E-01
  8.50000000E-01  8.50000000E-01  8.00000000E-01  8.50000000E-01  8.50000000E-01
  8.50000000E-01  8.00000000E-01  8.50000000E-01  8.50000000E-01  8.50000000E-01
  8.00000000E-01  8.50000000E-01  8.50000000E-01  8.50000000E-01  8.00000000E-01
  8.50000000E-01  8.50000000E-01  8.50000000E-01  8.00000000E-01  8.50000000E-01
  8.50000000E-01  8.50000000E-01  8.00000000E-01  8.50000000E-01  8.50000000E-01
  8.50000000E-01  8.00000000E-01  8.50000000E-01  8.50000000E-01  8.50000000E-01
  8.00000000E-01  8.50000000E-01  8.50000000E-01  8.50000000E-01  8.00000000E-01
  8.50000000E-01  8.50000000E-01  8.50000000E-01  8.00000000E-01  8.50000000E-01
  8.50000000E-01  8.50000000E-01  8.00000000E-01  8.50000000E-01  8.50000000E-01
  8.50000000E-01  8.00000000E-01  8.50000000E-01  8.50000000E-01  8.50000000E-01
  8.00000000E-01  8.50000000E-01  8.50000000E-01  8.50000000E-01  8.00000000E-01
  8.50000000E-01  8.50000000E-01  8.50000000E-01  8.00000000E-01  8.50000000E-01
  8.50000000E-01  8.50000000E-01  8.00000000E-01  8.50000000E-01  8.50000000E-01
  8.50000000E-01  8.00000000E-01  8.50000000E-01  8.50000000E-01  8.50000000E-01
  8.00000000E-01  8.50000000E-01  8.50000000E-01  8.50000000E-01  8.00000000E-01
  8.50000000E-01  8.50000000E-01  8.50000000E-01  8.00000000E-01  8.50000000E-01
  8.50000000E-01  8.50000000E-01  8.00000000E-01  8.50000000E-01  8.50000000E-01
  8.50000000E-01  8.00000000E-01  8.50000000E-01  8.50000000E-01  8.50000000E-01
  8.00000000E-01  8.50000000E-01  8.50000000E-01  8.50000000E-01  8.00000000E-01
  8.50000000E-01  8.50000000E-01  8.50000000E-01  8.00000000E-01  8.50000000E-01
  8.50000000E-01  8.50000000E-01  8.00000000E-01  8.50000000E-01  8.50000000E-01
  8.50000000E-01  8.00000000E-01  8.50000000E-01  8.50000000E-01  8.50000000E-01
  8.00000000E-01  8.50000000E-01  8.50000000E-01  8.50000000E-01  8.00000000E-01
  8.50000000E-01  8.50000000E-01  8.50000000E-01  8.00000000E-01  8.50000000E-01
  8.50000000E-01  8.50000000E-01  8.00000000E-01  8.50000000E-01  8.50000000E-01
  8.50000000E-01  8.00000000E-01  8.50000000E-01  8.50000000E-01  8.50000000E-01
  8.00000000E-01  8.50000000E-01  8.50000000E-01  8.50000000E-01  8.00000000E-01
  8.50000000E-01  8.50000000E-01  8.50000000E-01  8.00000000E-01  8.50000000E-01
  8.50000000E-01  8.50000000E-01  8.00000000E-01  8.50000000E-01  8.50000000E-01
  8.50000000E-01  8.00000000E-01  8.50000000E-01  8.50000000E-01  8.50000000E-01
  8.00000000E-01  8.50000000E-01  8.50000000E-01  8.50000000E-01  8.00000000E-01
  8.50000000E-01  8.50000000E-01  8.50000000E-01  8.00000000E-01  8.50000000E-01
  8.50000000E-01  8.50000000E-01  8.00000000E-01  8.50000000E-01  8.50000000E-01
  8.50000000E-01  8.00000000E-01  8.50000000E-01  8.50000000E-01  8.50000000E-01
  8.00000000E-01  8.50000000E-01  8.50000000E-01  8.50000000E-01  8.00000000E-01
  8.50000000E-01  8.50000000E-01  8.50000000E-01  8.00000000E-01  8.50000000E-01
  8.50000000E-01  8.50000000E-01  8.00000000E-01  8.50000000E-01  8.50000000E-01
  8.50000000E-01  8.00000000E-01  8.50000000E-01  8.50000000E-01  8.50000000E-01
  8.00000000E-01  8.50000000E-01  8.50000000E-01  8.50000000E-01  8.00000000E-01
  8.50000000E-01  8.50000000E-01  8.50000000E-01  8.00000000E-01  8.50000000E-01
  8.50000000E-01  8.50000000E-01  8.00000000E-01  8.50000000E-01  8.50000000E-01
  8.50000000E-01  8.00000000E-01  8.50000000E-01  8.50000000E-01  8.50000000E-01
  8.00000000E-01  8.50000000E-01  8.50000000E-01  8.50000000E-01  8.00000000E-01
  8.50000000E-01  8.50000000E-01  8.50000000E-01  8.00000000E-01  8.50000000E-01
  8.50000000E-01  8.50000000E-01  8.00000000E-01  8.50000000E-01  8.50000000E-01
  8.50000000E-01  8.00000000E-01  8.50000000E-01  8.50000000E-01  8.50000000E-01
  8.00000000E-01  8.50000000E-01  8.50000000E-01  8.50000000E-01  8.00000000E-01
  8.50000000E-01  8.50000000E-01  8.50000000E-01  8.00000000E-01  8.50000000E-01
  8.50000000E-01  8.50000000E-01  8.00000000E-01  8.50000000E-01  8.50000000E-01
  8.50000000E-01  8.00000000E-01  8.50000000E-01  8.50000000E-01  8.50000000E-01
  8.00000000E-01  8.50000000E-01  8.50000000E-01  8.50000000E-01  8.00000000E-01
  8.50000000E-01  8.50000000E-01  8.50000000E-01  8.00000000E-01  8.50000000E-01
  8.50000000E-01  8.50000000E-01  8.00000000E-01  8.50000000E-01  8.50000000E-01
  8.50000000E-01  8.00000000E-01  8.50000000E-01  8.50000000E-01  8.50000000E-01
  8.00000000E-01  8.50000000E-01  8.50000000E-01  8.50000000E-01  8.00000000E-01
  8.50000000E-01  8.50000000E-01  8.50000000E-01  8.00000000E-01  8.50000000E-01
  8.50000000E-01  8.50000000E-01  8.00000000E-01  8.50000000E-01  8.50000000E-01
  8.50000000E-01  8.00000000E-01  8.50000000E-01  8.50000000E-01  8.50000000E-01
  8.00000000E-01  8.50000000E-01  8.50000000E-01  8.50000000E-01  8.00000000E-01
  8.50000000E-01  8.50000000E-01  8.50000000E-01  8.00000000E-01  8.50000000E-01
  8.50000000E-01  8.50000000E-01  8.00000000E-01  8.50000000E-01  8.50000000E-01
  8.50000000E-01  8.00000000E-01  8.50000000E-01  8.50000000E-01  8.50000000E-01
  8.00000000E-01  8.50000000E-01  8.50000000E-01  8.50000000E-01  8.00000000E-01
  8.50000000E-01  8.50000000E-01  8.50000000E-01  8.00000000E-01  8.50000000E-01
  8.50000000E-01  8.50000000E-01  8.00000000E-01  8.50000000E-01  8.50000000E-01
  8.50000000E-01  8.00000000E-01  8.50000000E-01  8.50000000E-01  8.50000000E-01
  8.00000000E-01  8.50000000E-01  8.50000000E-01  8.50000000E-01  8.00000000E-01
  8.50000000E-01  8.50000000E-01  8.50000000E-01  8.00000000E-01  8.50000000E-01
  8.50000000E-01  8.50000000E-01  8.00000000E-01  8.50000000E-01  8.50000000E-01
  8.50000000E-01  8.00000000E-01  8.50000000E-01  8.50000000E-01  8.50000000E-01
  8.00000000E-01  8.50000000E-01  8.50000000E-01  8.50000000E-01  8.00000000E-01
  8.50000000E-01  8.50000000E-01  8.50000000E-01  8.00000000E-01  8.50000000E-01
  8.50000000E-01  8.50000000E-01  8.00000000E-01  8.50000000E-01  8.50000000E-01
  8.50000000E-01  8.00000000E-01  8.50000000E-01  8.50000000E-01  8.50000000E-01
  8.00000000E-01  8.50000000E-01  8.50000000E-01  8.50000000E-01  8.00000000E-01
  8.50000000E-01  8.50000000E-01  8.50000000E-01  8.00000000E-01  8.50000000E-01
  8.50000000E-01  8.50000000E-01  8.00000000E-01  8.50000000E-01  8.50000000E-01
  8.50000000E-01  8.00000000E-01  8.50000000E-01  8.50000000E-01  8.50000000E-01
  8.00000000E-01  8.50000000E-01  8.50000000E-01  8.50000000E-01  8.00000000E-01
  8.50000000E-01  8.50000000E-01  8.50000000E-01  8.00000000E-01  8.50000000E-01
  8.50000000E-01  8.50000000E-01  8.00000000E-01  8.50000000E-01  8.50000000E-01
  8.50000000E-01  8.00000000E-01  8.50000000E-01  8.50000000E-01  8.50000000E-01
  8.00000000E-01  8.50000000E-01  8.50000000E-01  8.50000000E-01  8.00000000E-01
  8.50000000E-01  8.50000000E-01  8.50000000E-01  8.00000000E-01  8.50000000E-01
  8.50000000E-01  8.50000000E-01  8.00000000E-01  8.50000000E-01  8.50000000E-01
  8.50000000E-01  8.00000000E-01  8.50000000E-01  8.50000000E-01  8.50000000E-01
  8.00000000E-01  8.50000000E-01  8.50000000E-01  8.50000000E-01  8.00000000E-01
  8.50000000E-01  8.50000000E-01  8.50000000E-01  8.00000000E-01  8.50000000E-01
  8.50000000E-01  8.50000000E-01  8.00000000E-01  8.50000000E-01  8.50000000E-01
  8.50000000E-01  8.00000000E-01  8.50000000E-01  8.50000000E-01  8.50000000E-01
  8.00000000E-01  8.50000000E-01  8.50000000E-01  8.50000000E-01  8.00000000E-01
  8.50000000E-01  8.50000000E-01  8.50000000E-01  8.00000000E-01  8.50000000E-01
  8.50000000E-01  8.50000000E-01  8.00000000E-01  8.50000000E-01  8.50000000E-01
  8.50000000E-01  8.00000000E-01  8.50000000E-01  8.50000000E-01  8.50000000E-01
  8.00000000E-01  8.50000000E-01  8.50000000E-01  8.50000000E-01  8.00000000E-01
  8.50000000E-01  8.50000000E-01  8.50000000E-01  8.00000000E-01  8.50000000E-01
  8.50000000E-01  8.50000000E-01  8.00000000E-01  8.50000000E-01  8.50000000E-01
  8.50000000E-01  8.00000000E-01  8.50000000E-01  8.50000000E-01  8.50000000E-01
  8.00000000E-01  8.50000000E-01  8.50000000E-01  8.50000000E-01  8.00000000E-01
  8.50000000E-01  8.50000000E-01  8.50000000E-01  8.00000000E-01  8.50000000E-01
  8.50000000E-01  8.50000000E-01  8.00000000E-01  8.50000000E-01  8.50000000E-01
  8.50000000E-01  8.00000000E-01  8.50000000E-01  8.50000000E-01  8.50000000E-01
  8.00000000E-01  8.50000000E-01  8.50000000E-01  8.50000000E-01  8.00000000E-01
  8.50000000E-01  8.50000000E-01  8.50000000E-01  8.00000000E-01  8.50000000E-01
  8.50000000E-01  8.50000000E-01  8.00000000E-01  8.50000000E-01  8.50000000E-01
  8.50000000E-01  8.00000000E-01  8.50000000E-01  8.50000000E-01  8.50000000E-01
  8.00000000E-01  8.50000000E-01  8.50000000E-01  8.50000000E-01  8.00000000E-01
  8.50000000E-01  8.50000000E-01  8.50000000E-01  8.00000000E-01  8.50000000E-01
  8.50000000E-01  8.50000000E-01  8.00000000E-01  8.50000000E-01  8.50000000E-01
  8.50000000E-01  8.00000000E-01  8.50000000E-01  8.50000000E-01  8.50000000E-01
  8.00000000E-01  8.50000000E-01  8.50000000E-01  8.50000000E-01  8.00000000E-01
  8.50000000E-01  8.50000000E-01  8.50000000E-01  8.00000000E-01  8.50000000E-01
  8.50000000E-01  8.50000000E-01  8.00000000E-01  8.50000000E-01  8.50000000E-01
  8.50000000E-01  8.00000000E-01  8.50000000E-01  8.50000000E-01  8.50000000E-01
  8.00000000E-01  8.50000000E-01  8.50000000E-01  8.50000000E-01  8.00000000E-01
  8.50000000E-01  8.50000000E-01  8.50000000E-01  8.00000000E-01  8.50000000E-01
  8.50000000E-01  8.50000000E-01  8.00000000E-01  8.50000000E-01  8.50000000E-01
  8.50000000E-01  8.00000000E-01  8.50000000E-01  8.50000000E-01  8.50000000E-01
  8.00000000E-01  8.50000000E-01  8.50000000E-01  8.50000000E-01  8.00000000E-01
  8.50000000E-01  8.50000000E-01  8.50000000E-01  8.00000000E-01  8.50000000E-01
  8.50000000E-01  8.50000000E-01  8.00000000E-01  8.50000000E-01  8.50000000E-01
  8.50000000E-01  8.00000000E-01  8.50000000E-01  8.50000000E-01  8.50000000E-01
  8.00000000E-01  8.50000000E-01  8.50000000E-01  8.50000000E-01  8.00000000E-01
  8.50000000E-01  8.50000000E-01  8.50000000E-01  8.00000000E-01  8.50000000E-01
  8.50000000E-01  8.50000000E-01  8.00000000E-01  8.50000000E-01  8.50000000E-01
  8.50000000E-01  8.00000000E-01  8.50000000E-01  8.50000000E-01  8.50000000E-01
  8.00000000E-01  8.50000000E-01  8.50000000E-01  8.50000000E-01  8.00000000E-01
  8.50000000E-01  8.50000000E-01  8.50000000E-01  8.00000000E-01  8.50000000E-01
  8.50000000E-01  8.50000000E-01  8.00000000E-01  8.50000000E-01  8.50000000E-01
  8.50000000E-01  8.00000000E-01  8.50000000E-01  8.50000000E-01  8.50000000E-01
  8.00000000E-01  8.50000000E-01  8.50000000E-01  8.50000000E-01  8.00000000E-01
  8.50000000E-01  8.50000000E-01  8.50000000E-01  8.00000000E-01  8.50000000E-01
  8.50000000E-01  8.50000000E-01  8.00000000E-01  8.50000000E-01  8.50000000E-01
  8.50000000E-01  8.00000000E-01  8.50000000E-01  8.50000000E-01  8.50000000E-01
  8.00000000E-01  8.50000000E-01  8.50000000E-01  8.50000000E-01  8.00000000E-01
  8.50000000E-01  8.50000000E-01  8.50000000E-01  8.00000000E-01  8.50000000E-01
  8.50000000E-01  8.50000000E-01  8.00000000E-01  8.50000000E-01  8.50000000E-01
  8.50000000E-01  8.00000000E-01  8.50000000E-01  8.50000000E-01  8.50000000E-01
  8.00000000E-01  8.50000000E-01  8.50000000E-01  8.50000000E-01  8.00000000E-01
  8.50000000E-01  8.50000000E-01  8.50000000E-01  8.00000000E-01  8.50000000E-01
  8.50000000E-01  8.50000000E-01  8.00000000E-01  8.50000000E-01  8.50000000E-01
  8.50000000E-01  8.00000000E-01  8.50000000E-01  8.50000000E-01  8.50000000E-01
  8.00000000E-01  8.50000000E-01  8.50000000E-01  8.50000000E-01  8.00000000E-01
  8.50000000E-01  8.50000000E-01  8.50000000E-01  8.00000000E-01  8.50000000E-01
  8.50000000E-01  8.50000000E-01  8.00000000E-01  8.50000000E-01  8.50000000E-01
  8.50000000E-01  8.00000000E-01  8.50000000E-01  8.50000000E-01  8.50000000E-01
  8.00000000E-01  8.50000000E-01  8.50000000E-01  8.50000000E-01  8.00000000E-01
  8.50000000E-01  8.50000000E-01  8.50000000E-01  8.00000000E-01  8.50000000E-01
  8.50000000E-01  8.50000000E-01  8.00000000E-01  8.50000000E-01  8.50000000E-01
  8.50000000E-01  8.00000000E-01  8.50000000E-01  8.50000000E-01  8.50000000E-01
  8.00000000E-01  8.50000000E-01  8.50000000E-01  8.50000000E-01  8.00000000E-01
  8.50000000E-01  8.50000000E-01  8.50000000E-01  8.00000000E-01  8.50000000E-01
  8.50000000E-01  8.50000000E-01  8.00000000E-01  8.50000000E-01  8.50000000E-01
  8.50000000E-01  8.00000000E-01  8.50000000E-01  8.50000000E-01  8.50000000E-01
  8.00000000E-01  8.50000000E-01  8.50000000E-01  8.50000000E-01  8.00000000E-01
  8.50000000E-01  8.50000000E-01  8.50000000E-01  8.00000000E-01  8.50000000E-01
  8.50000000E-01  8.50000000E-01  8.00000000E-01  8.50000000E-01  8.50000000E-01
  8.50000000E-01  8.00000000E-01  8.50000000E-01  8.50000000E-01  8.50000000E-01
  8.00000000E-01  8.50000000E-01  8.50000000E-01  8.50000000E-01  8.00000000E-01
  8.50000000E-01  8.50000000E-01  8.50000000E-01  8.00000000E-01  8.50000000E-01
  8.50000000E-01  8.50000000E-01  8.00000000E-01  8.50000000E-01  8.50000000E-01
  8.50000000E-01  8.00000000E-01  8.50000000E-01  8.50000000E-01  8.50000000E-01
  8.00000000E-01  8.50000000E-01  8.50000000E-01  8.50000000E-01  8.00000000E-01
  8.50000000E-01  8.50000000E-01  8.50000000E-01  8.00000000E-01  8.50000000E-01
  8.50000000E-01  8.50000000E-01  8.00000000E-01  8.50000000E-01  8.50000000E-01
  8.50000000E-01  8.00000000E-01  8.50000000E-01  8.50000000E-01  8.50000000E-01
  8.00000000E-01  8.50000000E-01  8.50000000E-01  8.50000000E-01  8.00000000E-01
  8.50000000E-01  8.50000000E-01  8.50000000E-01  8.00000000E-01  8.50000000E-01
  8.50000000E-01  8.50000000E-01  8.00000000E-01  8.50000000E-01  8.50000000E-01
  8.50000000E-01  8.00000000E-01  8.50000000E-01  8.50000000E-01  8.50000000E-01
  8.00000000E-01  8.50000000E-01  8.50000000E-01  8.50000000E-01  8.00000000E-01
  8.50000000E-01  8.50000000E-01  8.50000000E-01  8.00000000E-01  8.50000000E-01
  8.50000000E-01  8.50000000E-01  8.00000000E-01  8.50000000E-01  8.50000000E-01
  8.50000000E-01  8.00000000E-01  8.50000000E-01  8.50000000E-01  8.50000000E-01
  8.00000000E-01  8.50000000E-01  8.50000000E-01  8.50000000E-01  8.00000000E-01
  8.50000000E-01  8.50000000E-01  8.50000000E-01  8.00000000E-01  8.50000000E-01
  8.50000000E-01  8.50000000E-01  8.00000000E-01  8.50000000E-01  8.50000000E-01
  8.50000000E-01  8.00000000E-01  8.50000000E-01  8.50000000E-01  8.50000000E-01
  8.00000000E-01  8.50000000E-01  8.50000000E-01  8.50000000E-01  8.00000000E-01
  8.50000000E-01  8.50000000E-01  8.50000000E-01  8.00000000E-01  8.50000000E-01
  8.50000000E-01  8.50000000E-01  8.00000000E-01  8.50000000E-01  8.50000000E-01
  8.50000000E-01  8.00000000E-01  8.50000000E-01  8.50000000E-01  8.50000000E-01
  8.00000000E-01  8.50000000E-01  8.50000000E-01  8.50000000E-01  8.00000000E-01
  8.50000000E-01  8.50000000E-01  8.50000000E-01  8.00000000E-01  8.50000000E-01
  8.50000000E-01  8.50000000E-01  8.00000000E-01  8.50000000E-01  8.50000000E-01
  8.50000000E-01  8.00000000E-01  8.50000000E-01  8.50000000E-01  8.50000000E-01
  8.00000000E-01  8.50000000E-01  8.50000000E-01  8.50000000E-01  8.00000000E-01
  8.50000000E-01  8.50000000E-01  8.50000000E-01  8.00000000E-01  8.50000000E-01
  8.50000000E-01  8.50000000E-01  8.00000000E-01  8.50000000E-01  8.50000000E-01
  8.50000000E-01  8.00000000E-01  8.50000000E-01  8.50000000E-01  8.50000000E-01
  8.00000000E-01  8.50000000E-01  8.50000000E-01  8.50000000E-01  8.00000000E-01
  8.50000000E-01  8.50000000E-01  8.50000000E-01  8.00000000E-01  8.50000000E-01
  8.50000000E-01  8.50000000E-01  8.00000000E-01  8.50000000E-01  8.50000000E-01
  8.50000000E-01  8.00000000E-01  8.50000000E-01  8.50000000E-01  8.50000000E-01
  8.00000000E-01  8.50000000E-01  8.50000000E-01  8.50000000E-01  8.00000000E-01
  8.50000000E-01  8.50000000E-01  8.50000000E-01  8.00000000E-01  8.50000000E-01
  8.50000000E-01  8.50000000E-01  8.00000000E-01  8.50000000E-01  8.50000000E-01
  8.50000000E-01  8.00000000E-01  8.50000000E-01  8.50000000E-01  8.50000000E-01
  8.00000000E-01  8.50000000E-01  8.50000000E-01  8.50000000E-01  8.00000000E-01
  8.50000000E-01  8.50000000E-01  8.50000000E-01  8.00000000E-01  8.50000000E-01
  8.50000000E-01  8.50000000E-01  8.00000000E-01  8.50000000E-01  8.50000000E-01
  8.50000000E-01  8.00000000E-01  8.50000000E-01  8.50000000E-01  8.50000000E-01
  8.00000000E-01  8.50000000E-01  8.50000000E-01  8.50000000E-01  8.00000000E-01
  8.50000000E-01  8.50000000E-01  8.50000000E-01  8.00000000E-01  8.50000000E-01
  8.50000000E-01  8.50000000E-01  8.00000000E-01  8.50000000E-01  8.50000000E-01
  8.50000000E-01  8.00000000E-01  8.50000000E-01  8.50000000E-01  8.50000000E-01
  8.00000000E-01  8.50000000E-01  8.50000000E-01  8.50000000E-01  8.00000000E-01
  8.50000000E-01  8.50000000E-01  8.50000000E-01  8.00000000E-01  8.50000000E-01
  8.50000000E-01  8.50000000E-01  8.00000000E-01  8.50000000E-01  8.50000000E-01
  8.50000000E-01  8.00000000E-01  8.50000000E-01  8.50000000E-01  8.50000000E-01
  8.00000000E-01  8.50000000E-01  8.50000000E-01  8.50000000E-01  8.00000000E-01
  8.50000000E-01  8.50000000E-01  8.50000000E-01  8.00000000E-01  8.50000000E-01
  8.50000000E-01  8.50000000E-01  8.00000000E-01  8.50000000E-01  8.50000000E-01
  8.50000000E-01  8.00000000E-01  8.50000000E-01  8.50000000E-01  8.50000000E-01
  8.00000000E-01  8.50000000E-01  8.50000000E-01  8.50000000E-01  8.00000000E-01
  8.50000000E-01  8.50000000E-01  8.50000000E-01  8.00000000E-01  8.50000000E-01
  8.50000000E-01  8.50000000E-01  8.00000000E-01  8.50000000E-01  8.50000000E-01
  8.50000000E-01  8.00000000E-01  8.50000000E-01  8.50000000E-01  8.50000000E-01
  8.00000000E-01  8.50000000E-01  8.50000000E-01  8.50000000E-01  8.00000000E-01
  8.50000000E-01  8.50000000E-01  8.50000000E-01  8.00000000E-01  8.50000000E-01
  8.50000000E-01  8.50000000E-01  8.00000000E-01  8.50000000E-01  8.50000000E-01
  8.50000000E-01  8.00000000E-01  8.50000000E-01  8.50000000E-01  8.50000000E-01
  8.00000000E-01  8.50000000E-01  8.50000000E-01  8.50000000E-01  8.00000000E-01
  8.50000000E-01  8.50000000E-01  8.50000000E-01  8.00000000E-01  8.50000000E-01
  8.50000000E-01  8.50000000E-01  8.00000000E-01  8.50000000E-01  8.50000000E-01
  8.50000000E-01  8.00000000E-01  8.50000000E-01  8.50000000E-01  8.50000000E-01
  8.00000000E-01  8.50000000E-01  8.50000000E-01  8.50000000E-01  8.00000000E-01
  8.50000000E-01  8.50000000E-01  8.50000000E-01  8.00000000E-01  8.50000000E-01
  8.50000000E-01  8.50000000E-01  8.00000000E-01  8.50000000E-01  8.50000000E-01
  8.50000000E-01  8.00000000E-01  8.50000000E-01  8.50000000E-01  8.50000000E-01
  8.00000000E-01  8.50000000E-01  8.50000000E-01  8.50000000E-01  8.00000000E-01
  8.50000000E-01  8.50000000E-01  8.50000000E-01  8.00000000E-01  8.50000000E-01
  8.50000000E-01  8.50000000E-01  8.00000000E-01  8.50000000E-01  8.50000000E-01
  8.50000000E-01  8.00000000E-01  8.50000000E-01  8.50000000E-01  8.50000000E-01
  8.00000000E-01  8.50000000E-01  8.50000000E-01  8.50000000E-01  8.00000000E-01
  8.50000000E-01  8.50000000E-01  8.50000000E-01  8.00000000E-01  8.50000000E-01
  8.50000000E-01  8.50000000E-01  8.00000000E-01  8.50000000E-01  8.50000000E-01
  8.50000000E-01  8.00000000E-01  8.50000000E-01  8.50000000E-01  8.50000000E-01
  8.00000000E-01  8.50000000E-01  8.50000000E-01  8.50000000E-01  8.00000000E-01
  8.50000000E-01  8.50000000E-01  8.50000000E-01  8.00000000E-01  8.50000000E-01
  8.50000000E-01  8.50000000E-01  8.00000000E-01  8.50000000E-01  8.50000000E-01
  8.50000000E-01  8.00000000E-01  8.50000000E-01  8.50000000E-01  8.50000000E-01
  8.00000000E-01  8.50000000E-01  8.50000000E-01  8.50000000E-01  8.00000000E-01
  8.50000000E-01  8.50000000E-01  8.50000000E-01  8.00000000E-01  8.50000000E-01
  8.50000000E-01  8.50000000E-01  8.00000000E-01  8.50000000E-01  8.50000000E-01
  8.50000000E-01  8.00000000E-01  8.50000000E-01  8.50000000E-01  8.50000000E-01
  8.00000000E-01  8.50000000E-01  8.50000000E-01  8.50000000E-01  8.00000000E-01
  8.50000000E-01  8.50000000E-01  8.50000000E-01  8.00000000E-01  8.50000000E-01
  8.50000000E-01  8.50000000E-01  8.00000000E-01  8.50000000E-01  8.50000000E-01
  8.50000000E-01  8.00000000E-01  8.50000000E-01  8.50000000E-01  8.50000000E-01
  8.00000000E-01  8.50000000E-01  8.50000000E-01  8.50000000E-01  8.00000000E-01
  8.50000000E-01  8.50000000E-01  8.50000000E-01  8.00000000E-01  8.50000000E-01
  8.50000000E-01  8.50000000E-01  8.00000000E-01  8.50000000E-01  8.50000000E-01
  8.50000000E-01  8.00000000E-01  8.50000000E-01  8.50000000E-01  8.50000000E-01
  8.00000000E-01  8.50000000E-01  8.50000000E-01  8.50000000E-01  8.00000000E-01
  8.50000000E-01  8.50000000E-01  8.50000000E-01  8.00000000E-01  8.50000000E-01
  8.50000000E-01  8.50000000E-01  8.00000000E-01  8.50000000E-01  8.50000000E-01
  8.50000000E-01  8.00000000E-01  8.50000000E-01  8.50000000E-01  8.50000000E-01
  8.00000000E-01  8.50000000E-01  8.50000000E-01  8.50000000E-01  8.00000000E-01
  8.50000000E-01  8.50000000E-01  8.50000000E-01  8.00000000E-01  8.50000000E-01
  8.50000000E-01  8.50000000E-01  8.00000000E-01  8.50000000E-01  8.50000000E-01
  8.50000000E-01  8.00000000E-01  8.50000000E-01  8.50000000E-01  8.50000000E-01
  8.00000000E-01  8.50000000E-01  8.50000000E-01  8.50000000E-01  8.00000000E-01
  8.50000000E-01  8.50000000E-01  8.50000000E-01  8.00000000E-01  8.50000000E-01
  8.50000000E-01  8.50000000E-01  8.00000000E-01  8.50000000E-01  8.50000000E-01
  8.50000000E-01  8.00000000E-01  8.50000000E-01  8.50000000E-01  8.50000000E-01
  8.00000000E-01  8.50000000E-01  8.50000000E-01  8.50000000E-01  8.00000000E-01
  8.50000000E-01  8.50000000E-01  8.50000000E-01  8.00000000E-01  8.50000000E-01
  8.50000000E-01  8.50000000E-01  8.00000000E-01  8.50000000E-01  8.50000000E-01
  8.50000000E-01  8.00000000E-01  8.50000000E-01  8.50000000E-01  8.50000000E-01
  8.00000000E-01  8.50000000E-01  8.50000000E-01  8.50000000E-01  8.00000000E-01
  8.50000000E-01  8.50000000E-01  8.50000000E-01  8.00000000E-01  8.50000000E-01
  8.50000000E-01  8.50000000E-01  8.00000000E-01  8.50000000E-01  8.50000000E-01
  8.50000000E-01  8.00000000E-01  8.50000000E-01  8.50000000E-01  8.50000000E-01
  8.00000000E-01  8.50000000E-01  8.50000000E-01  8.50000000E-01  8.00000000E-01
  8.50000000E-01  8.50000000E-01  8.50000000E-01  8.00000000E-01  8.50000000E-01
  8.50000000E-01  8.50000000E-01  8.00000000E-01  8.50000000E-01  8.50000000E-01
  8.50000000E-01  8.00000000E-01  8.50000000E-01  8.50000000E-01  8.50000000E-01
  8.00000000E-01  8.50000000E-01  8.50000000E-01  8.50000000E-01  8.00000000E-01
  8.50000000E-01  8.50000000E-01  8.50000000E-01  8.00000000E-01  8.50000000E-01
  8.50000000E-01  8.50000000E-01  8.00000000E-01  8.50000000E-01  8.50000000E-01
  8.50000000E-01  8.00000000E-01  8.50000000E-01  8.50000000E-01  8.50000000E-01
  8.00000000E-01  8.50000000E-01  8.50000000E-01  8.50000000E-01  8.00000000E-01
  8.50000000E-01  8.50000000E-01  8.50000000E-01  8.00000000E-01  8.50000000E-01
  8.50000000E-01  8.50000000E-01  8.00000000E-01  8.50000000E-01  8.50000000E-01
  8.50000000E-01  8.00000000E-01  8.50000000E-01  8.50000000E-01  8.50000000E-01
  8.00000000E-01  8.50000000E-01  8.50000000E-01  8.50000000E-01  8.00000000E-01
  8.50000000E-01  8.50000000E-01  8.50000000E-01  8.00000000E-01  8.50000000E-01
  8.50000000E-01  8.50000000E-01  8.00000000E-01  8.50000000E-01  8.50000000E-01
  8.50000000E-01  8.00000000E-01  8.50000000E-01  8.50000000E-01  8.50000000E-01
  8.00000000E-01  8.50000000E-01  8.50000000E-01  8.50000000E-01  8.00000000E-01
  8.50000000E-01  8.50000000E-01  8.50000000E-01  8.00000000E-01  8.50000000E-01
  8.50000000E-01  8.50000000E-01  8.00000000E-01  8.50000000E-01  8.50000000E-01
  8.50000000E-01  8.00000000E-01  8.50000000E-01  8.50000000E-01  8.50000000E-01
  8.00000000E-01  8.50000000E-01  8.50000000E-01  8.50000000E-01  8.00000000E-01
  8.50000000E-01  8.50000000E-01  8.50000000E-01  8.00000000E-01  8.50000000E-01
  8.50000000E-01  8.50000000E-01  8.00000000E-01  8.50000000E-01  8.50000000E-01
  8.50000000E-01  8.00000000E-01  8.50000000E-01  8.50000000E-01  8.50000000E-01
  8.00000000E-01  8.50000000E-01  8.50000000E-01  8.50000000E-01  8.00000000E-01
  8.50000000E-01  8.50000000E-01  8.50000000E-01  8.00000000E-01  8.50000000E-01
  8.50000000E-01  8.50000000E-01  8.00000000E-01  8.50000000E-01  8.50000000E-01
  8.50000000E-01  8.00000000E-01  8.50000000E-01  8.50000000E-01  8.50000000E-01
  8.00000000E-01  8.50000000E-01  8.50000000E-01  8.50000000E-01  8.00000000E-01
  8.50000000E-01  8.50000000E-01  8.50000000E-01  8.00000000E-01  8.50000000E-01
  8.50000000E-01  8.50000000E-01  8.00000000E-01  8.50000000E-01  8.50000000E-01
  8.50000000E-01  8.00000000E-01  8.50000000E-01  8.50000000E-01  8.50000000E-01
  8.00000000E-01  8.50000000E-01  8.50000000E-01  8.50000000E-01  8.00000000E-01
  8.50000000E-01  8.50000000E-01  8.50000000E-01  8.00000000E-01  8.50000000E-01
  8.50000000E-01  8.50000000E-01  8.00000000E-01  8.50000000E-01  8.50000000E-01
  8.50000000E-01  8.00000000E-01  8.50000000E-01  8.50000000E-01  8.50000000E-01
  8.00000000E-01  8.50000000E-01  8.50000000E-01  8.50000000E-01  8.00000000E-01
  8.50000000E-01  8.50000000E-01  8.50000000E-01  8.00000000E-01  8.50000000E-01
  8.50000000E-01  8.50000000E-01  8.00000000E-01  8.50000000E-01  8.50000000E-01
  8.50000000E-01  8.00000000E-01  8.50000000E-01  8.50000000E-01  8.50000000E-01
  8.00000000E-01  8.50000000E-01  8.50000000E-01  8.50000000E-01  8.00000000E-01
  8.50000000E-01  8.50000000E-01  8.50000000E-01  8.00000000E-01  8.50000000E-01
  8.50000000E-01  8.50000000E-01  8.00000000E-01  8.50000000E-01  8.50000000E-01
  8.50000000E-01  8.00000000E-01  8.50000000E-01  8.50000000E-01  8.50000000E-01
  8.00000000E-01  8.50000000E-01  8.50000000E-01  8.50000000E-01  8.00000000E-01
  8.50000000E-01  8.50000000E-01  8.50000000E-01  8.00000000E-01  8.50000000E-01
  8.50000000E-01  8.50000000E-01  8.00000000E-01  8.50000000E-01  8.50000000E-01
  8.50000000E-01  8.00000000E-01  8.50000000E-01  8.50000000E-01  8.50000000E-01
  8.00000000E-01  8.50000000E-01  8.50000000E-01  8.50000000E-01  8.00000000E-01
  8.50000000E-01  8.50000000E-01  8.50000000E-01  8.00000000E-01  8.50000000E-01
  8.50000000E-01  8.50000000E-01  8.00000000E-01  8.50000000E-01  8.50000000E-01
  8.50000000E-01  8.00000000E-01  8.50000000E-01  8.50000000E-01  8.50000000E-01
  8.00000000E-01  8.50000000E-01  8.50000000E-01  8.50000000E-01  8.00000000E-01
  8.50000000E-01  8.50000000E-01  8.50000000E-01  8.00000000E-01  8.50000000E-01
  8.50000000E-01  8.50000000E-01  8.00000000E-01  8.50000000E-01  8.50000000E-01
  8.50000000E-01  8.00000000E-01  8.50000000E-01  8.50000000E-01  8.50000000E-01
  8.00000000E-01  8.50000000E-01  8.50000000E-01  8.50000000E-01  8.00000000E-01
  8.50000000E-01  8.50000000E-01  8.50000000E-01  8.00000000E-01  8.50000000E-01
  8.50000000E-01  8.50000000E-01  8.00000000E-01  8.50000000E-01  8.50000000E-01
  8.50000000E-01  8.00000000E-01  8.50000000E-01  8.50000000E-01  8.50000000E-01
  8.00000000E-01  8.50000000E-01  8.50000000E-01  8.50000000E-01  8.00000000E-01
  8.50000000E-01  8.50000000E-01  8.50000000E-01  8.00000000E-01  8.50000000E-01
  8.50000000E-01  8.50000000E-01  8.00000000E-01  8.50000000E-01  8.50000000E-01
  8.50000000E-01  8.00000000E-01  8.50000000E-01  8.50000000E-01  8.50000000E-01
  8.00000000E-01  8.50000000E-01  8.50000000E-01  8.50000000E-01  8.00000000E-01
  8.50000000E-01  8.50000000E-01  8.50000000E-01  8.00000000E-01  8.50000000E-01
  8.50000000E-01  8.50000000E-01  8.00000000E-01  8.50000000E-01  8.50000000E-01
  8.50000000E-01  8.00000000E-01  8.50000000E-01  8.50000000E-01  8.50000000E-01
  8.00000000E-01  8.50000000E-01  8.50000000E-01  8.50000000E-01  8.00000000E-01
  8.50000000E-01  8.50000000E-01  8.50000000E-01  8.00000000E-01  8.50000000E-01
  8.50000000E-01  8.50000000E-01  8.00000000E-01  8.50000000E-01  8.50000000E-01
  8.50000000E-01  8.00000000E-01  8.50000000E-01  8.50000000E-01  8.50000000E-01
  8.00000000E-01  8.50000000E-01  8.50000000E-01  8.50000000E-01  8.00000000E-01
  8.50000000E-01  8.50000000E-01  8.50000000E-01  8.00000000E-01  8.50000000E-01
  8.50000000E-01  8.50000000E-01  8.00000000E-01  8.50000000E-01  8.50000000E-01
  8.50000000E-01  8.00000000E-01  8.50000000E-01  8.50000000E-01  8.50000000E-01
  8.00000000E-01  8.50000000E-01  8.50000000E-01  8.50000000E-01  8.00000000E-01
  8.50000000E-01  8.50000000E-01  8.50000000E-01  8.00000000E-01  8.50000000E-01
  8.50000000E-01  8.50000000E-01  8.00000000E-01  8.50000000E-01  8.50000000E-01
  8.50000000E-01  8.00000000E-01  8.50000000E-01  8.50000000E-01  8.50000000E-01
  8.00000000E-01  8.50000000E-01  8.50000000E-01  8.50000000E-01  8.00000000E-01
  8.50000000E-01  8.50000000E-01  8.50000000E-01  8.00000000E-01  8.50000000E-01
  8.50000000E-01  8.50000000E-01  8.00000000E-01  8.50000000E-01  8.50000000E-01
  8.50000000E-01  8.00000000E-01  8.50000000E-01  8.50000000E-01  8.50000000E-01
  8.00000000E-01  8.50000000E-01  8.50000000E-01  8.50000000E-01  8.00000000E-01
  8.50000000E-01  8.50000000E-01  8.50000000E-01  8.00000000E-01  8.50000000E-01
  8.50000000E-01  8.50000000E-01  8.00000000E-01  8.50000000E-01  8.50000000E-01
  8.50000000E-01  8.00000000E-01  8.50000000E-01  8.50000000E-01  8.50000000E-01
  8.00000000E-01  8.50000000E-01  8.50000000E-01  8.50000000E-01  8.00000000E-01
  8.50000000E-01  8.50000000E-01  8.50000000E-01  8.00000000E-01  8.50000000E-01
  8.50000000E-01  8.50000000E-01  8.00000000E-01  8.50000000E-01  8.50000000E-01
  8.50000000E-01  8.00000000E-01  8.50000000E-01  8.50000000E-01  8.50000000E-01
  8.00000000E-01  8.50000000E-01  8.50000000E-01  8.50000000E-01  8.00000000E-01
  8.50000000E-01  8.50000000E-01  8.50000000E-01  8.00000000E-01  8.50000000E-01
  8.50000000E-01  8.50000000E-01  8.00000000E-01  8.50000000E-01  8.50000000E-01
  8.50000000E-01  8.00000000E-01  8.50000000E-01  8.50000000E-01  8.50000000E-01
  8.00000000E-01  8.50000000E-01  8.50000000E-01  8.50000000E-01  8.00000000E-01
  8.50000000E-01  8.50000000E-01  8.50000000E-01  8.00000000E-01  8.50000000E-01
  8.50000000E-01  8.50000000E-01  8.00000000E-01  8.50000000E-01  8.50000000E-01
  8.50000000E-01  8.00000000E-01  8.50000000E-01  8.50000000E-01  8.50000000E-01
  8.00000000E-01  8.50000000E-01  8.50000000E-01  8.50000000E-01  8.00000000E-01
  8.50000000E-01  8.50000000E-01  8.50000000E-01  8.00000000E-01  8.50000000E-01
  8.50000000E-01  8.50000000E-01  8.00000000E-01  8.50000000E-01  8.50000000E-01
  8.50000000E-01  8.00000000E-01  8.50000000E-01  8.50000000E-01  8.50000000E-01
  8.00000000E-01  8.50000000E-01  8.50000000E-01  8.50000000E-01  8.00000000E-01
  8.50000000E-01  8.50000000E-01  8.50000000E-01  8.00000000E-01  8.50000000E-01
  8.50000000E-01  8.50000000E-01  8.00000000E-01  8.50000000E-01  8.50000000E-01
  8.50000000E-01  8.00000000E-01  8.50000000E-01  8.50000000E-01  8.50000000E-01
  8.00000000E-01  8.50000000E-01  8.50000000E-01  8.50000000E-01  8.00000000E-01
  8.50000000E-01  8.50000000E-01  8.50000000E-01  8.00000000E-01  8.50000000E-01
  8.50000000E-01  8.50000000E-01  8.00000000E-01  8.50000000E-01  8.50000000E-01
  8.50000000E-01  8.00000000E-01  8.50000000E-01  8.50000000E-01  8.50000000E-01
  8.00000000E-01  8.50000000E-01  8.50000000E-01  8.50000000E-01  8.00000000E-01
  8.50000000E-01  8.50000000E-01  8.50000000E-01  8.00000000E-01  8.50000000E-01
  8.50000000E-01  8.50000000E-01  8.00000000E-01  8.50000000E-01  8.50000000E-01
  8.50000000E-01  8.00000000E-01  8.50000000E-01  8.50000000E-01  8.50000000E-01
  8.00000000E-01  8.50000000E-01  8.50000000E-01  8.50000000E-01  8.00000000E-01
  8.50000000E-01  8.50000000E-01  8.50000000E-01  8.00000000E-01  8.50000000E-01
  8.50000000E-01  8.50000000E-01  8.00000000E-01  8.50000000E-01  8.50000000E-01
  8.50000000E-01  8.00000000E-01  8.50000000E-01  8.50000000E-01  8.50000000E-01
  8.00000000E-01  8.50000000E-01  8.50000000E-01  8.50000000E-01  8.00000000E-01
  8.50000000E-01  8.50000000E-01  8.50000000E-01  8.00000000E-01  8.50000000E-01
  8.50000000E-01  8.50000000E-01  8.00000000E-01  8.50000000E-01  8.50000000E-01
  8.50000000E-01  8.00000000E-01  8.50000000E-01  8.50000000E-01  8.50000000E-01
  8.00000000E-01  8.50000000E-01  8.50000000E-01  8.50000000E-01  8.00000000E-01
  8.50000000E-01  8.50000000E-01  8.50000000E-01  8.00000000E-01  8.50000000E-01
  8.50000000E-01  8.50000000E-01  8.00000000E-01  8.50000000E-01  8.50000000E-01
  8.50000000E-01  8.00000000E-01  8.50000000E-01  8.50000000E-01  8.50000000E-01
  8.00000000E-01  8.50000000E-01  8.50000000E-01  8.50000000E-01  8.00000000E-01
  8.50000000E-01  8.50000000E-01  8.50000000E-01  8.00000000E-01  8.50000000E-01
  8.50000000E-01  8.50000000E-01  8.00000000E-01  8.50000000E-01  8.50000000E-01
  8.50000000E-01  8.00000000E-01  8.50000000E-01  8.50000000E-01  8.50000000E-01
  8.00000000E-01  8.50000000E-01  8.50000000E-01  8.50000000E-01  8.00000000E-01
  8.50000000E-01  8.50000000E-01  8.50000000E-01  8.00000000E-01  8.50000000E-01
  8.50000000E-01  8.50000000E-01  8.00000000E-01  8.50000000E-01  8.50000000E-01
  8.50000000E-01  8.00000000E-01  8.50000000E-01  8.50000000E-01  8.50000000E-01
  8.00000000E-01  8.50000000E-01  8.50000000E-01  8.50000000E-01  8.00000000E-01
  8.50000000E-01  8.50000000E-01  8.50000000E-01  8.00000000E-01  8.50000000E-01
  8.50000000E-01  8.50000000E-01  8.00000000E-01  8.50000000E-01  8.50000000E-01
  8.50000000E-01  8.00000000E-01  8.50000000E-01  8.50000000E-01  8.50000000E-01
  8.00000000E-01  8.50000000E-01  8.50000000E-01  8.50000000E-01  8.00000000E-01
  8.50000000E-01  8.50000000E-01  8.50000000E-01  8.00000000E-01  8.50000000E-01
  8.50000000E-01  8.50000000E-01  8.00000000E-01  8.50000000E-01  8.50000000E-01
  8.50000000E-01  8.00000000E-01  8.50000000E-01  8.50000000E-01  8.50000000E-01
  8.00000000E-01  8.50000000E-01  8.50000000E-01  8.50000000E-01  8.00000000E-01
  8.50000000E-01  8.50000000E-01  8.50000000E-01  8.00000000E-01  8.50000000E-01
  8.50000000E-01  8.50000000E-01  8.00000000E-01  8.50000000E-01  8.50000000E-01
  8.50000000E-01  8.00000000E-01  8.50000000E-01  8.50000000E-01  8.50000000E-01
  8.00000000E-01  8.50000000E-01  8.50000000E-01  8.50000000E-01  8.00000000E-01
  8.50000000E-01  8.50000000E-01  8.50000000E-01  8.00000000E-01  8.50000000E-01
  8.50000000E-01  8.50000000E-01  8.00000000E-01  8.50000000E-01  8.50000000E-01
  8.50000000E-01  8.00000000E-01  8.50000000E-01  8.50000000E-01  8.50000000E-01
  8.00000000E-01  8.50000000E-01  8.50000000E-01  8.50000000E-01  8.00000000E-01
  8.50000000E-01  8.50000000E-01  8.50000000E-01  8.00000000E-01  8.50000000E-01
  8.50000000E-01  8.50000000E-01  8.00000000E-01  8.50000000E-01  8.50000000E-01
  8.50000000E-01  8.00000000E-01  8.50000000E-01  8.50000000E-01  8.50000000E-01
  8.00000000E-01  8.50000000E-01  8.50000000E-01  8.50000000E-01  8.00000000E-01
  8.50000000E-01  8.50000000E-01  8.50000000E-01  8.00000000E-01  8.50000000E-01
  8.50000000E-01  8.50000000E-01  8.00000000E-01  8.50000000E-01  8.50000000E-01
  8.50000000E-01  8.00000000E-01  8.50000000E-01  8.50000000E-01  8.50000000E-01
  8.00000000E-01  8.50000000E-01  8.50000000E-01  8.50000000E-01  8.00000000E-01
  8.50000000E-01  8.50000000E-01  8.50000000E-01  8.00000000E-01  8.50000000E-01
  8.50000000E-01  8.50000000E-01  8.00000000E-01  8.50000000E-01  8.50000000E-01
  8.50000000E-01  8.00000000E-01  8.50000000E-01  8.50000000E-01  8.50000000E-01
  8.00000000E-01  8.50000000E-01  8.50000000E-01  8.50000000E-01  8.00000000E-01
  8.50000000E-01  8.50000000E-01  8.50000000E-01  8.00000000E-01  8.50000000E-01
  8.50000000E-01  8.50000000E-01  8.00000000E-01  8.50000000E-01  8.50000000E-01
  8.50000000E-01  8.00000000E-01  8.50000000E-01  8.50000000E-01  8.50000000E-01
  8.00000000E-01  8.50000000E-01  8.50000000E-01  8.50000000E-01  8.00000000E-01
  8.50000000E-01  8.50000000E-01  8.50000000E-01  8.00000000E-01  8.50000000E-01
  8.50000000E-01  8.50000000E-01  8.00000000E-01  8.50000000E-01  8.50000000E-01
  8.50000000E-01  8.00000000E-01  8.50000000E-01  8.50000000E-01  8.50000000E-01
  8.00000000E-01  8.50000000E-01  8.50000000E-01  8.50000000E-01  8.00000000E-01
  8.50000000E-01  8.50000000E-01  8.50000000E-01  8.00000000E-01  8.50000000E-01
  8.50000000E-01  8.50000000E-01  8.00000000E-01  8.50000000E-01  8.50000000E-01
  8.50000000E-01  8.00000000E-01  8.50000000E-01  8.50000000E-01  8.50000000E-01
  8.00000000E-01  8.50000000E-01  8.50000000E-01  8.50000000E-01  8.00000000E-01
  8.50000000E-01  8.50000000E-01  8.50000000E-01  8.00000000E-01  8.50000000E-01
  8.50000000E-01  8.50000000E-01  8.00000000E-01  8.50000000E-01  8.50000000E-01
  8.50000000E-01  8.00000000E-01  8.50000000E-01  8.50000000E-01  8.50000000E-01
  8.00000000E-01  8.50000000E-01  8.50000000E-01  8.50000000E-01  8.00000000E-01
  8.50000000E-01  8.50000000E-01  8.50000000E-01  8.00000000E-01  8.50000000E-01
  8.50000000E-01  8.50000000E-01  8.00000000E-01  8.50000000E-01  8.50000000E-01
  8.50000000E-01  8.00000000E-01  8.50000000E-01  8.50000000E-01  8.50000000E-01
  8.00000000E-01  8.50000000E-01  8.50000000E-01  8.50000000E-01  8.00000000E-01
  8.50000000E-01  8.50000000E-01  8.50000000E-01  8.00000000E-01  8.50000000E-01
  8.50000000E-01  8.50000000E-01  8.00000000E-01  8.50000000E-01  8.50000000E-01
  8.50000000E-01  8.00000000E-01  8.50000000E-01  8.50000000E-01  8.50000000E-01
  8.00000000E-01  8.50000000E-01  8.50000000E-01  8.50000000E-01  8.00000000E-01
  8.50000000E-01  8.50000000E-01  8.50000000E-01  8.00000000E-01  8.50000000E-01
  8.50000000E-01  8.50000000E-01  8.00000000E-01  8.50000000E-01  8.50000000E-01
  8.50000000E-01  8.00000000E-01  8.50000000E-01  8.50000000E-01  8.50000000E-01
  8.00000000E-01  8.50000000E-01  8.50000000E-01  8.50000000E-01  8.00000000E-01
  8.50000000E-01  8.50000000E-01  8.50000000E-01  8.00000000E-01  8.50000000E-01
  8.50000000E-01  8.50000000E-01  8.00000000E-01  8.50000000E-01  8.50000000E-01
  8.50000000E-01  8.00000000E-01  8.50000000E-01  8.50000000E-01  8.50000000E-01
  8.00000000E-01  8.50000000E-01  8.50000000E-01  8.50000000E-01  8.00000000E-01
  8.50000000E-01  8.50000000E-01  8.50000000E-01  8.00000000E-01  8.50000000E-01
  8.50000000E-01  8.50000000E-01  8.00000000E-01  8.50000000E-01  8.50000000E-01
  8.50000000E-01  8.00000000E-01  8.50000000E-01  8.50000000E-01  8.50000000E-01
  8.00000000E-01  8.50000000E-01  8.50000000E-01  8.50000000E-01  8.00000000E-01
  8.50000000E-01  8.50000000E-01  8.50000000E-01  8.00000000E-01  8.50000000E-01
  8.50000000E-01  8.50000000E-01  8.00000000E-01  8.50000000E-01  8.50000000E-01
  8.50000000E-01  8.00000000E-01  8.50000000E-01  8.50000000E-01  8.50000000E-01
  8.00000000E-01  8.50000000E-01  8.50000000E-01  8.50000000E-01  8.00000000E-01
  8.50000000E-01  8.50000000E-01  8.50000000E-01  8.00000000E-01  8.50000000E-01
  8.50000000E-01  8.50000000E-01  8.00000000E-01  8.50000000E-01  8.50000000E-01
  8.50000000E-01  8.00000000E-01  8.50000000E-01  8.50000000E-01  8.50000000E-01
  8.00000000E-01  8.50000000E-01  8.50000000E-01  8.50000000E-01  8.00000000E-01
  8.50000000E-01  8.50000000E-01  8.50000000E-01  8.00000000E-01  8.50000000E-01
  8.50000000E-01  8.50000000E-01  8.00000000E-01  8.50000000E-01  8.50000000E-01
  8.50000000E-01  8.00000000E-01  8.50000000E-01  8.50000000E-01  8.50000000E-01
  8.00000000E-01  8.50000000E-01  8.50000000E-01  8.50000000E-01  8.00000000E-01
  8.50000000E-01  8.50000000E-01  8.50000000E-01  8.00000000E-01  8.50000000E-01
  8.50000000E-01  8.50000000E-01  8.00000000E-01  8.50000000E-01  8.50000000E-01
  8.50000000E-01  8.00000000E-01  8.50000000E-01  8.50000000E-01  8.50000000E-01
  8.00000000E-01  8.50000000E-01  8.50000000E-01  8.50000000E-01  8.00000000E-01
  8.50000000E-01  8.50000000E-01  8.50000000E-01  8.00000000E-01  8.50000000E-01
  8.50000000E-01  8.50000000E-01  8.00000000E-01  8.50000000E-01  8.50000000E-01
  8.50000000E-01  8.00000000E-01  8.50000000E-01  8.50000000E-01  8.50000000E-01
  8.00000000E-01  8.50000000E-01  8.50000000E-01  8.50000000E-01  8.00000000E-01
  8.50000000E-01  8.50000000E-01  8.50000000E-01  8.00000000E-01  8.50000000E-01
  8.50000000E-01  8.50000000E-01  8.00000000E-01  8.50000000E-01  8.50000000E-01
  8.50000000E-01  8.00000000E-01  8.50000000E-01  8.50000000E-01  8.50000000E-01
  8.00000000E-01  8.50000000E-01  8.50000000E-01  8.50000000E-01  8.00000000E-01
  8.50000000E-01  8.50000000E-01  8.50000000E-01  8.00000000E-01  8.50000000E-01
  8.50000000E-01  8.50000000E-01  8.00000000E-01  8.50000000E-01  8.50000000E-01
  8.50000000E-01  8.00000000E-01  8.50000000E-01  8.50000000E-01  8.50000000E-01
  8.00000000E-01  8.50000000E-01  8.50000000E-01  8.50000000E-01  8.00000000E-01
  8.50000000E-01  8.50000000E-01  8.50000000E-01  8.00000000E-01  8.50000000E-01
  8.50000000E-01  8.50000000E-01  8.00000000E-01  8.50000000E-01  8.50000000E-01
  8.50000000E-01  8.00000000E-01  8.50000000E-01  8.50000000E-01  8.50000000E-01
  8.00000000E-01  8.50000000E-01  8.50000000E-01  8.50000000E-01  8.00000000E-01
  8.50000000E-01  8.50000000E-01  8.50000000E-01  8.00000000E-01  8.50000000E-01
  8.50000000E-01  8.50000000E-01  8.00000000E-01  8.50000000E-01  8.50000000E-01
  8.50000000E-01  8.00000000E-01  8.50000000E-01  8.50000000E-01  8.50000000E-01
  8.00000000E-01  8.50000000E-01  8.50000000E-01  8.50000000E-01  8.00000000E-01
  8.50000000E-01  8.50000000E-01  8.50000000E-01  8.00000000E-01  8.50000000E-01
  8.50000000E-01  8.50000000E-01  8.00000000E-01  8.50000000E-01  8.50000000E-01
  8.50000000E-01  8.00000000E-01  8.50000000E-01  8.50000000E-01  8.50000000E-01
  8.00000000E-01  8.50000000E-01  8.50000000E-01  8.50000000E-01  8.00000000E-01
  8.50000000E-01  8.50000000E-01  8.50000000E-01  8.00000000E-01  8.50000000E-01
  8.50000000E-01  8.50000000E-01  8.00000000E-01  8.50000000E-01  8.50000000E-01
  8.50000000E-01  8.00000000E-01  8.50000000E-01  8.50000000E-01  8.50000000E-01
  8.00000000E-01  8.50000000E-01  8.50000000E-01  8.50000000E-01  8.00000000E-01
  8.50000000E-01  8.50000000E-01  8.50000000E-01  8.00000000E-01  8.50000000E-01
  8.50000000E-01  8.50000000E-01  8.00000000E-01  8.50000000E-01  8.50000000E-01
  8.50000000E-01  8.00000000E-01  8.50000000E-01  8.50000000E-01  8.50000000E-01
  8.00000000E-01  8.50000000E-01  8.50000000E-01  8.50000000E-01  8.00000000E-01
  8.50000000E-01  8.50000000E-01  8.50000000E-01  8.00000000E-01  8.50000000E-01
  8.50000000E-01  8.50000000E-01  8.00000000E-01  8.50000000E-01  8.50000000E-01
  8.50000000E-01  8.00000000E-01  8.50000000E-01  8.50000000E-01  8.50000000E-01
  8.00000000E-01  8.50000000E-01  8.50000000E-01  8.50000000E-01  8.00000000E-01
  8.50000000E-01  8.50000000E-01  8.50000000E-01  8.00000000E-01  8.50000000E-01
  8.50000000E-01  8.50000000E-01  8.00000000E-01  8.50000000E-01  8.50000000E-01
  8.50000000E-01  8.00000000E-01  8.50000000E-01  8.50000000E-01  8.50000000E-01
  8.00000000E-01  8.50000000E-01  8.50000000E-01  8.50000000E-01  8.00000000E-01
  8.50000000E-01  8.50000000E-01  8.50000000E-01  8.00000000E-01  8.50000000E-01
  8.50000000E-01  8.50000000E-01  8.00000000E-01  8.50000000E-01  8.50000000E-01
  8.50000000E-01  8.00000000E-01  8.50000000E-01  8.50000000E-01  8.50000000E-01
  8.00000000E-01  8.50000000E-01  8.50000000E-01  8.50000000E-01  8.00000000E-01
  8.50000000E-01  8.50000000E-01  8.50000000E-01  8.00000000E-01  8.50000000E-01
  8.50000000E-01  8.50000000E-01  8.00000000E-01  8.50000000E-01  8.50000000E-01
  8.50000000E-01  8.00000000E-01  8.50000000E-01  8.50000000E-01  8.50000000E-01
  8.00000000E-01  8.50000000E-01  8.50000000E-01  8.50000000E-01  8.00000000E-01
  8.50000000E-01  8.50000000E-01  8.50000000E-01  8.00000000E-01  8.50000000E-01
  8.50000000E-01  8.50000000E-01  8.00000000E-01  8.50000000E-01  8.50000000E-01
  8.50000000E-01  8.00000000E-01  8.50000000E-01  8.50000000E-01  8.50000000E-01
  8.00000000E-01  8.50000000E-01  8.50000000E-01  8.50000000E-01  8.00000000E-01
  8.50000000E-01  8.50000000E-01  8.50000000E-01  8.00000000E-01  8.50000000E-01
  8.50000000E-01  8.50000000E-01  8.00000000E-01  8.50000000E-01  8.50000000E-01
  8.50000000E-01  8.00000000E-01  8.50000000E-01  8.50000000E-01  8.50000000E-01
  8.00000000E-01  8.50000000E-01  8.50000000E-01  8.50000000E-01  8.00000000E-01
  8.50000000E-01  8.50000000E-01  8.50000000E-01  8.00000000E-01  8.50000000E-01
  8.50000000E-01  8.50000000E-01  8.00000000E-01  8.50000000E-01  8.50000000E-01
  8.50000000E-01  8.00000000E-01  8.50000000E-01  8.50000000E-01  8.50000000E-01
  8.00000000E-01  8.50000000E-01  8.50000000E-01  8.50000000E-01  8.00000000E-01
  8.50000000E-01  8.50000000E-01  8.50000000E-01  8.00000000E-01  8.50000000E-01
  8.50000000E-01  8.50000000E-01  8.00000000E-01  8.50000000E-01  8.50000000E-01
  8.50000000E-01  8.00000000E-01  8.50000000E-01  8.50000000E-01  8.50000000E-01
  8.00000000E-01  8.50000000E-01  8.50000000E-01  8.50000000E-01  8.00000000E-01
  8.50000000E-01  8.50000000E-01  8.50000000E-01  8.00000000E-01  8.50000000E-01
  8.50000000E-01  8.50000000E-01  8.00000000E-01  8.50000000E-01  8.50000000E-01
  8.50000000E-01  8.00000000E-01  8.50000000E-01  8.50000000E-01  8.50000000E-01
  8.00000000E-01  8.50000000E-01  8.50000000E-01  8.50000000E-01  8.00000000E-01
  8.50000000E-01  8.50000000E-01  8.50000000E-01  8.00000000E-01  8.50000000E-01
  8.50000000E-01  8.50000000E-01  8.00000000E-01  8.50000000E-01  8.50000000E-01
  8.50000000E-01  8.00000000E-01  8.50000000E-01  8.50000000E-01  8.50000000E-01
  8.00000000E-01  8.50000000E-01  8.50000000E-01  8.50000000E-01  8.00000000E-01
  8.50000000E-01  8.50000000E-01  8.50000000E-01  8.00000000E-01  8.50000000E-01
  8.50000000E-01  8.50000000E-01  8.00000000E-01  8.50000000E-01  8.50000000E-01
  8.50000000E-01  8.00000000E-01  8.50000000E-01  8.50000000E-01  8.50000000E-01
  8.00000000E-01  8.50000000E-01  8.50000000E-01  8.50000000E-01  8.00000000E-01
  8.50000000E-01  8.50000000E-01  8.50000000E-01  8.00000000E-01  8.50000000E-01
  8.50000000E-01  8.50000000E-01  8.00000000E-01  8.50000000E-01  8.50000000E-01
  8.50000000E-01  8.00000000E-01  8.50000000E-01  8.50000000E-01  8.50000000E-01
  8.00000000E-01  8.50000000E-01  8.50000000E-01  8.50000000E-01  8.00000000E-01
  8.50000000E-01  8.50000000E-01  8.50000000E-01  8.00000000E-01  8.50000000E-01
  8.50000000E-01  8.50000000E-01  8.00000000E-01  8.50000000E-01  8.50000000E-01
  8.50000000E-01  8.00000000E-01  8.50000000E-01  8.50000000E-01  8.50000000E-01
  8.00000000E-01  8.50000000E-01  8.50000000E-01  8.50000000E-01  8.00000000E-01
  8.50000000E-01  8.50000000E-01  8.50000000E-01  8.00000000E-01  8.50000000E-01
  8.50000000E-01  8.50000000E-01  8.00000000E-01  8.50000000E-01  8.50000000E-01
  8.50000000E-01  8.00000000E-01  8.50000000E-01  8.50000000E-01  8.50000000E-01
  8.00000000E-01  8.50000000E-01  8.50000000E-01  8.50000000E-01  8.00000000E-01
  8.50000000E-01  8.50000000E-01  8.50000000E-01  8.00000000E-01  8.50000000E-01
  8.50000000E-01  8.50000000E-01  8.00000000E-01  8.50000000E-01  8.50000000E-01
  8.50000000E-01  8.00000000E-01  8.50000000E-01  8.50000000E-01  8.50000000E-01
  8.00000000E-01  8.50000000E-01  8.50000000E-01  8.50000000E-01  8.00000000E-01
  8.50000000E-01  8.50000000E-01  8.50000000E-01  8.00000000E-01  8.50000000E-01
  8.50000000E-01  8.50000000E-01  8.00000000E-01  8.50000000E-01  8.50000000E-01
  8.50000000E-01  8.00000000E-01  8.50000000E-01  8.50000000E-01  8.50000000E-01
  8.00000000E-01  8.50000000E-01  8.50000000E-01  8.50000000E-01  8.00000000E-01
  8.50000000E-01  8.50000000E-01  8.50000000E-01  8.00000000E-01  8.50000000E-01
  8.50000000E-01  8.50000000E-01  8.00000000E-01  8.50000000E-01  8.50000000E-01
  8.50000000E-01  8.00000000E-01  8.50000000E-01  8.50000000E-01  8.50000000E-01
  8.00000000E-01  8.50000000E-01  8.50000000E-01  8.50000000E-01  8.00000000E-01
  8.50000000E-01  8.50000000E-01  8.50000000E-01  8.00000000E-01  8.50000000E-01
  8.50000000E-01  8.50000000E-01  8.00000000E-01  8.50000000E-01  8.50000000E-01
  8.50000000E-01  8.00000000E-01  8.50000000E-01  8.50000000E-01  8.50000000E-01
  8.00000000E-01  8.50000000E-01  8.50000000E-01  8.50000000E-01  8.00000000E-01
  8.50000000E-01  8.50000000E-01  8.50000000E-01  8.00000000E-01  8.50000000E-01
  8.50000000E-01  8.50000000E-01  8.00000000E-01  8.50000000E-01  8.50000000E-01
  8.50000000E-01  8.00000000E-01  8.50000000E-01  8.50000000E-01  8.50000000E-01
  8.00000000E-01  8.50000000E-01  8.50000000E-01  8.50000000E-01  8.00000000E-01
  8.50000000E-01  8.50000000E-01  8.50000000E-01  8.00000000E-01  8.50000000E-01
  8.50000000E-01  8.50000000E-01  8.00000000E-01  8.50000000E-01  8.50000000E-01
  8.50000000E-01  8.00000000E-01  8.50000000E-01  8.50000000E-01  8.50000000E-01
  8.00000000E-01  8.50000000E-01  8.50000000E-01  8.50000000E-01  8.00000000E-01
  8.50000000E-01  8.50000000E-01  8.50000000E-01  8.00000000E-01  8.50000000E-01
  8.50000000E-01  8.50000000E-01  8.00000000E-01  8.50000000E-01  8.50000000E-01
  8.50000000E-01  8.00000000E-01  8.50000000E-01  8.50000000E-01  8.50000000E-01
  8.00000000E-01  8.50000000E-01  8.50000000E-01  8.50000000E-01  8.00000000E-01
  8.50000000E-01  8.50000000E-01  8.50000000E-01  8.00000000E-01  8.50000000E-01
  8.50000000E-01  8.50000000E-01  8.00000000E-01  8.50000000E-01  8.50000000E-01
  8.50000000E-01  8.00000000E-01  8.50000000E-01  8.50000000E-01  8.50000000E-01
  8.00000000E-01  8.50000000E-01  8.50000000E-01  8.50000000E-01  8.00000000E-01
  8.50000000E-01  8.50000000E-01  8.50000000E-01  8.00000000E-01  8.50000000E-01
  8.50000000E-01  8.50000000E-01  8.00000000E-01  8.50000000E-01  8.50000000E-01
  8.50000000E-01  8.00000000E-01  8.50000000E-01  8.50000000E-01  8.50000000E-01
  8.00000000E-01  8.50000000E-01  8.50000000E-01  8.50000000E-01  8.00000000E-01
  8.50000000E-01  8.50000000E-01  8.50000000E-01  8.00000000E-01  8.50000000E-01
  8.50000000E-01  8.50000000E-01  8.00000000E-01  8.50000000E-01  8.50000000E-01
  8.50000000E-01  8.00000000E-01  8.50000000E-01  8.50000000E-01  8.50000000E-01
  8.00000000E-01  8.50000000E-01  8.50000000E-01  8.50000000E-01  8.00000000E-01
  8.50000000E-01  8.50000000E-01  8.50000000E-01  8.00000000E-01  8.50000000E-01
  8.50000000E-01  8.50000000E-01  8.00000000E-01  8.50000000E-01  8.50000000E-01
  8.50000000E-01  8.00000000E-01  8.50000000E-01  8.50000000E-01  8.50000000E-01
  8.00000000E-01  8.50000000E-01  8.50000000E-01  8.50000000E-01  8.00000000E-01
  8.50000000E-01  8.50000000E-01  8.50000000E-01  8.00000000E-01  8.50000000E-01
  8.50000000E-01  8.50000000E-01  8.00000000E-01  8.50000000E-01  8.50000000E-01
  8.50000000E-01  8.00000000E-01  8.50000000E-01  8.50000000E-01  8.50000000E-01
  8.00000000E-01  8.50000000E-01  8.50000000E-01  8.50000000E-01  8.00000000E-01
  8.50000000E-01  8.50000000E-01  8.50000000E-01  8.00000000E-01  8.50000000E-01
  8.50000000E-01  8.50000000E-01  8.00000000E-01  8.50000000E-01  8.50000000E-01
  8.50000000E-01  8.00000000E-01  8.50000000E-01  8.50000000E-01  8.50000000E-01
  8.00000000E-01  8.50000000E-01  8.50000000E-01  8.50000000E-01  8.00000000E-01
  8.50000000E-01  8.50000000E-01  8.50000000E-01  8.00000000E-01  8.50000000E-01
  8.50000000E-01  8.50000000E-01  8.00000000E-01  8.50000000E-01  8.50000000E-01
  8.50000000E-01  8.00000000E-01  8.50000000E-01  8.50000000E-01  8.50000000E-01
  8.00000000E-01  8.50000000E-01  8.50000000E-01  8.50000000E-01  8.00000000E-01
  8.50000000E-01  8.50000000E-01  8.50000000E-01  8.00000000E-01  8.50000000E-01
  8.50000000E-01  8.50000000E-01  8.00000000E-01  8.50000000E-01  8.50000000E-01
  8.50000000E-01  8.00000000E-01  8.50000000E-01  8.50000000E-01  8.50000000E-01
  8.00000000E-01  8.50000000E-01  8.50000000E-01  8.50000000E-01  8.00000000E-01
  8.50000000E-01  8.50000000E-01  8.50000000E-01  8.00000000E-01  8.50000000E-01
  8.50000000E-01  8.50000000E-01  8.00000000E-01  8.50000000E-01  8.50000000E-01
  8.50000000E-01  8.00000000E-01  8.50000000E-01  8.50000000E-01  8.50000000E-01
  8.00000000E-01  8.50000000E-01  8.50000000E-01  8.50000000E-01  8.00000000E-01
  8.50000000E-01  8.50000000E-01  8.50000000E-01  8.00000000E-01  8.50000000E-01
  8.50000000E-01  8.50000000E-01  8.00000000E-01  8.50000000E-01  8.50000000E-01
  8.50000000E-01  8.00000000E-01  8.50000000E-01  8.50000000E-01  8.50000000E-01
  8.00000000E-01  8.50000000E-01  8.50000000E-01  8.50000000E-01  8.00000000E-01
  8.50000000E-01  8.50000000E-01  8.50000000E-01  8.00000000E-01  8.50000000E-01
  8.50000000E-01  8.50000000E-01  8.00000000E-01  8.50000000E-01  8.50000000E-01
  8.50000000E-01  8.00000000E-01  8.50000000E-01  8.50000000E-01  8.50000000E-01
  8.00000000E-01  8.50000000E-01  8.50000000E-01  8.50000000E-01  8.00000000E-01
  8.50000000E-01  8.50000000E-01  8.50000000E-01  8.00000000E-01  8.50000000E-01
  8.50000000E-01  8.50000000E-01  8.00000000E-01  8.50000000E-01  8.50000000E-01
  8.50000000E-01  8.00000000E-01  8.50000000E-01  8.50000000E-01  8.50000000E-01
  8.00000000E-01  8.50000000E-01  8.50000000E-01  8.50000000E-01  8.00000000E-01
  8.50000000E-01  8.50000000E-01  8.50000000E-01  8.00000000E-01  8.50000000E-01
  8.50000000E-01  8.50000000E-01  8.00000000E-01  8.50000000E-01  8.50000000E-01
  8.50000000E-01  8.00000000E-01  8.50000000E-01  8.50000000E-01  8.50000000E-01
  8.00000000E-01  8.50000000E-01  8.50000000E-01  8.50000000E-01  8.00000000E-01
  8.50000000E-01  8.50000000E-01  8.50000000E-01  8.00000000E-01  8.50000000E-01
  8.50000000E-01  8.50000000E-01  8.00000000E-01  8.50000000E-01  8.50000000E-01
  8.50000000E-01  8.00000000E-01  8.50000000E-01  8.50000000E-01  8.50000000E-01
  8.00000000E-01  8.50000000E-01  8.50000000E-01  8.50000000E-01  8.00000000E-01
  8.50000000E-01  8.50000000E-01  8.50000000E-01  8.00000000E-01  8.50000000E-01
  8.50000000E-01  8.50000000E-01  8.00000000E-01  8.50000000E-01  8.50000000E-01
  8.50000000E-01  8.00000000E-01  8.50000000E-01  8.50000000E-01  8.50000000E-01
  8.00000000E-01  8.50000000E-01  8.50000000E-01  8.50000000E-01  8.00000000E-01
  8.50000000E-01  8.50000000E-01  8.50000000E-01  8.00000000E-01  8.50000000E-01
  8.50000000E-01  8.50000000E-01  8.00000000E-01  8.50000000E-01  8.50000000E-01
  8.50000000E-01  8.00000000E-01  8.50000000E-01  8.50000000E-01  8.50000000E-01
  8.00000000E-01  8.50000000E-01  8.50000000E-01  8.50000000E-01  8.00000000E-01
  8.50000000E-01  8.50000000E-01  8.50000000E-01  8.00000000E-01  8.50000000E-01
  8.50000000E-01  8.50000000E-01  8.00000000E-01  8.50000000E-01  8.50000000E-01
  8.50000000E-01  8.00000000E-01  8.50000000E-01  8.50000000E-01  8.50000000E-01
  8.00000000E-01  8.50000000E-01  8.50000000E-01  8.50000000E-01  8.00000000E-01
  8.50000000E-01  8.50000000E-01  8.50000000E-01  8.00000000E-01  8.50000000E-01
  8.50000000E-01  8.50000000E-01  8.00000000E-01  8.50000000E-01  8.50000000E-01
  8.50000000E-01  8.00000000E-01  8.50000000E-01  8.50000000E-01  8.50000000E-01
  8.00000000E-01  8.50000000E-01  8.50000000E-01  8.50000000E-01  8.00000000E-01
  8.50000000E-01  8.50000000E-01  8.50000000E-01  8.00000000E-01  8.50000000E-01
  8.50000000E-01  8.50000000E-01  8.00000000E-01  8.50000000E-01  8.50000000E-01
  8.50000000E-01  8.00000000E-01  8.50000000E-01  8.50000000E-01  8.50000000E-01
  8.00000000E-01  8.50000000E-01  8.50000000E-01  8.50000000E-01  8.00000000E-01
  8.50000000E-01  8.50000000E-01  8.50000000E-01  8.00000000E-01  8.50000000E-01
  8.50000000E-01  8.50000000E-01  8.00000000E-01  8.50000000E-01  8.50000000E-01
  8.50000000E-01  8.00000000E-01  8.50000000E-01  8.50000000E-01  8.50000000E-01
  8.00000000E-01  8.50000000E-01  8.50000000E-01  8.50000000E-01  8.00000000E-01
  8.50000000E-01  8.50000000E-01  8.50000000E-01  8.00000000E-01  8.50000000E-01
  8.50000000E-01  8.50000000E-01  8.00000000E-01  8.50000000E-01  8.50000000E-01
  8.50000000E-01  8.00000000E-01  8.50000000E-01  8.50000000E-01  8.50000000E-01
  8.00000000E-01  8.50000000E-01  8.50000000E-01  8.50000000E-01  8.00000000E-01
  8.50000000E-01  8.50000000E-01  8.50000000E-01  8.00000000E-01  8.50000000E-01
  8.50000000E-01  8.50000000E-01  8.00000000E-01  8.50000000E-01  8.50000000E-01
  8.50000000E-01  8.00000000E-01  8.50000000E-01  8.50000000E-01  8.50000000E-01
  8.00000000E-01  8.50000000E-01  8.50000000E-01  8.50000000E-01  8.00000000E-01
  8.50000000E-01  8.50000000E-01  8.50000000E-01  8.00000000E-01  8.50000000E-01
  8.50000000E-01  8.50000000E-01  8.00000000E-01  8.50000000E-01  8.50000000E-01
  8.50000000E-01  8.00000000E-01  8.50000000E-01  8.50000000E-01  8.50000000E-01
  8.00000000E-01  8.50000000E-01  8.50000000E-01  8.50000000E-01  8.00000000E-01
  8.50000000E-01  8.50000000E-01  8.50000000E-01  8.00000000E-01  8.50000000E-01
  8.50000000E-01  8.50000000E-01  8.00000000E-01  8.50000000E-01  8.50000000E-01
  8.50000000E-01  8.00000000E-01  8.50000000E-01  8.50000000E-01  8.50000000E-01
  8.00000000E-01  8.50000000E-01  8.50000000E-01  8.50000000E-01  8.00000000E-01
  8.50000000E-01  8.50000000E-01  8.50000000E-01  8.00000000E-01  8.50000000E-01
  8.50000000E-01  8.50000000E-01  8.00000000E-01  8.50000000E-01  8.50000000E-01
  8.50000000E-01  8.00000000E-01  8.50000000E-01  8.50000000E-01  8.50000000E-01
  8.00000000E-01  8.50000000E-01  8.50000000E-01  8.50000000E-01  8.00000000E-01
  8.50000000E-01  8.50000000E-01  8.50000000E-01  8.00000000E-01  8.50000000E-01
  8.50000000E-01  8.50000000E-01  8.00000000E-01  8.50000000E-01  8.50000000E-01
  8.50000000E-01  8.00000000E-01  8.50000000E-01  8.50000000E-01  8.50000000E-01
  8.00000000E-01  8.50000000E-01  8.50000000E-01  8.50000000E-01  8.00000000E-01
  8.50000000E-01  8.50000000E-01  8.50000000E-01  8.00000000E-01  8.50000000E-01
  8.50000000E-01  8.50000000E-01  8.00000000E-01  8.50000000E-01  8.50000000E-01
  8.50000000E-01  8.00000000E-01  8.50000000E-01  8.50000000E-01  8.50000000E-01
  8.00000000E-01  8.50000000E-01  8.50000000E-01  8.50000000E-01  8.00000000E-01
  8.50000000E-01  8.50000000E-01  8.50000000E-01  8.00000000E-01  8.50000000E-01
  8.50000000E-01  8.50000000E-01  8.00000000E-01  8.50000000E-01  8.50000000E-01
  8.50000000E-01  8.00000000E-01  8.50000000E-01  8.50000000E-01  8.50000000E-01
  8.00000000E-01  8.50000000E-01  8.50000000E-01  8.50000000E-01  8.00000000E-01
  8.50000000E-01  8.50000000E-01  8.50000000E-01  8.00000000E-01  8.50000000E-01
  8.50000000E-01  8.50000000E-01  8.00000000E-01  8.50000000E-01  8.50000000E-01
  8.50000000E-01  8.00000000E-01  8.50000000E-01  8.50000000E-01  8.50000000E-01
  8.00000000E-01  8.50000000E-01  8.50000000E-01  8.50000000E-01  8.00000000E-01
  8.50000000E-01  8.50000000E-01  8.50000000E-01  8.00000000E-01  8.50000000E-01
  8.50000000E-01  8.50000000E-01  8.00000000E-01  8.50000000E-01  8.50000000E-01
  8.50000000E-01  8.00000000E-01  8.50000000E-01  8.50000000E-01  8.50000000E-01
  8.00000000E-01  8.50000000E-01  8.50000000E-01  8.50000000E-01  8.00000000E-01
  8.50000000E-01  8.50000000E-01  8.50000000E-01  8.00000000E-01  8.50000000E-01
  8.50000000E-01  8.50000000E-01  8.00000000E-01  8.50000000E-01  8.50000000E-01
  8.50000000E-01  8.00000000E-01  8.50000000E-01  8.50000000E-01  8.50000000E-01
  8.00000000E-01  8.50000000E-01  8.50000000E-01  8.50000000E-01  8.00000000E-01
  8.50000000E-01  8.50000000E-01  8.50000000E-01  8.00000000E-01  8.50000000E-01
  8.50000000E-01  8.50000000E-01  8.00000000E-01  8.50000000E-01  8.50000000E-01
  8.50000000E-01  8.00000000E-01  8.50000000E-01  8.50000000E-01  8.50000000E-01
  8.00000000E-01  8.50000000E-01  8.50000000E-01  8.50000000E-01  8.00000000E-01
  8.50000000E-01  8.50000000E-01  8.50000000E-01  8.00000000E-01  8.50000000E-01
  8.50000000E-01  8.50000000E-01  8.00000000E-01  8.50000000E-01  8.50000000E-01
  8.50000000E-01  8.00000000E-01  8.50000000E-01  8.50000000E-01  8.50000000E-01
  8.00000000E-01  8.50000000E-01  8.50000000E-01  8.50000000E-01  8.00000000E-01
  8.50000000E-01  8.50000000E-01  8.50000000E-01  8.00000000E-01  8.50000000E-01
  8.50000000E-01  8.50000000E-01  8.00000000E-01  8.50000000E-01  8.50000000E-01
  8.50000000E-01  8.00000000E-01  8.50000000E-01  8.50000000E-01  8.50000000E-01
  8.00000000E-01  8.50000000E-01  8.50000000E-01  8.50000000E-01  8.00000000E-01
  8.50000000E-01  8.50000000E-01  8.50000000E-01  8.00000000E-01  8.50000000E-01
  8.50000000E-01  8.50000000E-01  8.00000000E-01  8.50000000E-01  8.50000000E-01
  8.50000000E-01  8.00000000E-01  8.50000000E-01  8.50000000E-01  8.50000000E-01
  8.00000000E-01  8.50000000E-01  8.50000000E-01  8.50000000E-01  8.00000000E-01
  8.50000000E-01  8.50000000E-01  8.50000000E-01  8.00000000E-01  8.50000000E-01
  8.50000000E-01  8.50000000E-01  8.00000000E-01  8.50000000E-01  8.50000000E-01
  8.50000000E-01  8.00000000E-01  8.50000000E-01  8.50000000E-01  8.50000000E-01
  8.00000000E-01  8.50000000E-01  8.50000000E-01  8.50000000E-01  8.00000000E-01
  8.50000000E-01  8.50000000E-01  8.50000000E-01  8.00000000E-01  8.50000000E-01
  8.50000000E-01  8.50000000E-01  8.00000000E-01  8.50000000E-01  8.50000000E-01
  8.50000000E-01  8.00000000E-01  8.50000000E-01  8.50000000E-01  8.50000000E-01
  8.00000000E-01  8.50000000E-01  8.50000000E-01  8.50000000E-01  8.00000000E-01
  8.50000000E-01  8.50000000E-01  8.50000000E-01  8.00000000E-01  8.50000000E-01
  8.50000000E-01  8.50000000E-01  8.00000000E-01  8.50000000E-01  8.50000000E-01
  8.50000000E-01  8.00000000E-01  8.50000000E-01  8.50000000E-01  8.50000000E-01
  8.00000000E-01  8.50000000E-01  8.50000000E-01  8.50000000E-01  8.00000000E-01
  8.50000000E-01  8.50000000E-01  8.50000000E-01  8.00000000E-01  8.50000000E-01
  8.50000000E-01  8.50000000E-01  8.00000000E-01  8.50000000E-01  8.50000000E-01
  8.50000000E-01  8.00000000E-01  8.50000000E-01  8.50000000E-01  8.50000000E-01
  8.00000000E-01  8.50000000E-01  8.50000000E-01  8.50000000E-01  8.00000000E-01
  8.50000000E-01  8.50000000E-01  8.50000000E-01  8.00000000E-01  8.50000000E-01
  8.50000000E-01  8.50000000E-01  8.00000000E-01  8.50000000E-01  8.50000000E-01
  8.50000000E-01  8.00000000E-01  8.50000000E-01  8.50000000E-01  8.50000000E-01
  8.00000000E-01  8.50000000E-01  8.50000000E-01  8.50000000E-01  8.00000000E-01
  8.50000000E-01  8.50000000E-01  8.50000000E-01  8.00000000E-01  8.50000000E-01
  8.50000000E-01  8.50000000E-01  8.00000000E-01  8.50000000E-01  8.50000000E-01
  8.50000000E-01  8.00000000E-01  8.50000000E-01  8.50000000E-01  8.50000000E-01
  8.00000000E-01  8.50000000E-01  8.50000000E-01  8.50000000E-01  8.00000000E-01
  8.50000000E-01  8.50000000E-01  8.50000000E-01  8.00000000E-01  8.50000000E-01
  8.50000000E-01  8.50000000E-01  8.00000000E-01  8.50000000E-01  8.50000000E-01
  8.50000000E-01  8.00000000E-01  8.50000000E-01  8.50000000E-01  8.50000000E-01
  8.00000000E-01  8.50000000E-01  8.50000000E-01  8.50000000E-01  8.00000000E-01
  8.50000000E-01  8.50000000E-01  8.50000000E-01  8.00000000E-01  8.50000000E-01
  8.50000000E-01  8.50000000E-01  8.00000000E-01  8.50000000E-01  8.50000000E-01
  8.50000000E-01  8.00000000E-01  8.50000000E-01  8.50000000E-01  8.50000000E-01
  8.00000000E-01  8.50000000E-01  8.50000000E-01  8.50000000E-01  8.00000000E-01
  8.50000000E-01  8.50000000E-01  8.50000000E-01  8.00000000E-01  8.50000000E-01
  8.50000000E-01  8.50000000E-01  8.00000000E-01  8.50000000E-01  8.50000000E-01
  8.50000000E-01  8.00000000E-01  8.50000000E-01  8.50000000E-01  8.50000000E-01
  8.00000000E-01  8.50000000E-01  8.50000000E-01  8.50000000E-01  8.00000000E-01
  8.50000000E-01  8.50000000E-01  8.50000000E-01  8.00000000E-01  8.50000000E-01
  8.50000000E-01  8.50000000E-01  8.00000000E-01  8.50000000E-01  8.50000000E-01
  8.50000000E-01  8.00000000E-01  8.50000000E-01  8.50000000E-01  8.50000000E-01
  8.00000000E-01  8.50000000E-01  8.50000000E-01  8.50000000E-01  8.00000000E-01
  8.50000000E-01  8.50000000E-01  8.50000000E-01  8.00000000E-01  8.50000000E-01
  8.50000000E-01  8.50000000E-01  8.00000000E-01  8.50000000E-01  8.50000000E-01
  8.50000000E-01  8.00000000E-01  8.50000000E-01  8.50000000E-01  8.50000000E-01
  8.00000000E-01  8.50000000E-01  8.50000000E-01  8.50000000E-01  8.00000000E-01
  8.50000000E-01  8.50000000E-01  8.50000000E-01  8.00000000E-01  8.50000000E-01
  8.50000000E-01  8.50000000E-01  8.00000000E-01  8.50000000E-01  8.50000000E-01
  8.50000000E-01  8.00000000E-01  8.50000000E-01  8.50000000E-01  8.50000000E-01
  8.00000000E-01  8.50000000E-01  8.50000000E-01  8.50000000E-01  8.00000000E-01
  8.50000000E-01  8.50000000E-01  8.50000000E-01  8.00000000E-01  8.50000000E-01
  8.50000000E-01  8.50000000E-01  8.00000000E-01  8.50000000E-01  8.50000000E-01
  8.50000000E-01  8.00000000E-01  8.50000000E-01  8.50000000E-01  8.50000000E-01
  8.00000000E-01  8.50000000E-01  8.50000000E-01  8.50000000E-01  8.00000000E-01
  8.50000000E-01  8.50000000E-01  8.50000000E-01  8.00000000E-01  8.50000000E-01
  8.50000000E-01  8.50000000E-01  8.00000000E-01  8.50000000E-01  8.50000000E-01
  8.50000000E-01  8.00000000E-01  8.50000000E-01  8.50000000E-01  8.50000000E-01
  8.00000000E-01  8.50000000E-01  8.50000000E-01  8.50000000E-01  8.00000000E-01
  8.50000000E-01  8.50000000E-01  8.50000000E-01  8.00000000E-01  8.50000000E-01
  8.50000000E-01  8.50000000E-01  8.00000000E-01  8.50000000E-01  8.50000000E-01
  8.50000000E-01  8.00000000E-01  8.50000000E-01  8.50000000E-01  8.50000000E-01
  8.00000000E-01  8.50000000E-01  8.50000000E-01  8.50000000E-01  8.00000000E-01
  8.50000000E-01  8.50000000E-01  8.50000000E-01  8.00000000E-01  8.50000000E-01
  8.50000000E-01  8.50000000E-01  8.00000000E-01  8.50000000E-01  8.50000000E-01
  8.50000000E-01  8.00000000E-01  8.50000000E-01  8.50000000E-01  8.50000000E-01
  8.00000000E-01  8.50000000E-01  8.50000000E-01  8.50000000E-01  8.00000000E-01
  8.50000000E-01  8.50000000E-01  8.50000000E-01  8.00000000E-01  8.50000000E-01
  8.50000000E-01  8.50000000E-01  8.00000000E-01  8.50000000E-01  8.50000000E-01
  8.50000000E-01  8.00000000E-01  8.50000000E-01  8.50000000E-01  8.50000000E-01
  8.00000000E-01  8.50000000E-01  8.50000000E-01  8.50000000E-01  8.00000000E-01
  8.50000000E-01  8.50000000E-01  8.50000000E-01  8.00000000E-01  8.50000000E-01
  8.50000000E-01  8.50000000E-01  8.00000000E-01  8.50000000E-01  8.50000000E-01
  8.50000000E-01  8.00000000E-01  8.50000000E-01  8.50000000E-01  8.50000000E-01
  8.00000000E-01  8.50000000E-01  8.50000000E-01  8.50000000E-01  8.00000000E-01
  8.50000000E-01  8.50000000E-01  8.50000000E-01  8.00000000E-01  8.50000000E-01
  8.50000000E-01  8.50000000E-01  8.00000000E-01  8.50000000E-01  8.50000000E-01
  8.50000000E-01  8.00000000E-01  8.50000000E-01  8.50000000E-01  8.50000000E-01
  8.00000000E-01  8.50000000E-01  8.50000000E-01  8.50000000E-01  8.00000000E-01
  8.50000000E-01  8.50000000E-01  8.50000000E-01  8.00000000E-01  8.50000000E-01
  8.50000000E-01  8.50000000E-01  8.00000000E-01  8.50000000E-01  8.50000000E-01
  8.50000000E-01  8.00000000E-01  8.50000000E-01  8.50000000E-01  8.50000000E-01
  8.00000000E-01  8.50000000E-01  8.50000000E-01  8.50000000E-01  8.00000000E-01
  8.50000000E-01  8.50000000E-01  8.50000000E-01  8.00000000E-01  8.50000000E-01
  8.50000000E-01  8.50000000E-01  8.00000000E-01  8.50000000E-01  8.50000000E-01
  8.50000000E-01  8.00000000E-01  8.50000000E-01  8.50000000E-01  8.50000000E-01
  8.00000000E-01  8.50000000E-01  8.50000000E-01  8.50000000E-01  8.00000000E-01
  8.50000000E-01  8.50000000E-01  8.50000000E-01  8.00000000E-01  8.50000000E-01
  8.50000000E-01  8.50000000E-01  8.00000000E-01  8.50000000E-01  8.50000000E-01
  8.50000000E-01  8.00000000E-01  8.50000000E-01  8.50000000E-01  8.50000000E-01
  8.00000000E-01  8.50000000E-01  8.50000000E-01  8.50000000E-01  8.00000000E-01
  8.50000000E-01  8.50000000E-01  8.50000000E-01  8.00000000E-01  8.50000000E-01
  8.50000000E-01  8.50000000E-01  8.00000000E-01  8.50000000E-01  8.50000000E-01
  8.50000000E-01  8.00000000E-01  8.50000000E-01  8.50000000E-01  8.50000000E-01
  8.00000000E-01  8.50000000E-01  8.50000000E-01  8.50000000E-01  8.00000000E-01
  8.50000000E-01  8.50000000E-01  8.50000000E-01  8.00000000E-01  8.50000000E-01
  8.50000000E-01  8.50000000E-01  8.00000000E-01  8.50000000E-01  8.50000000E-01
  8.50000000E-01  8.00000000E-01  8.50000000E-01  8.50000000E-01  8.50000000E-01
  8.00000000E-01  8.50000000E-01  8.50000000E-01  8.50000000E-01  8.00000000E-01
  8.50000000E-01  8.50000000E-01  8.50000000E-01  8.00000000E-01  8.50000000E-01
  8.50000000E-01  8.50000000E-01  8.00000000E-01  8.50000000E-01  8.50000000E-01
  8.50000000E-01  8.00000000E-01  8.50000000E-01  8.50000000E-01  8.50000000E-01
  8.00000000E-01  8.50000000E-01  8.50000000E-01  8.50000000E-01  8.00000000E-01
  8.50000000E-01  8.50000000E-01  8.50000000E-01  8.00000000E-01  8.50000000E-01
  8.50000000E-01  8.50000000E-01  8.00000000E-01  8.50000000E-01  8.50000000E-01
  8.50000000E-01  8.00000000E-01  8.50000000E-01  8.50000000E-01  8.50000000E-01
  8.00000000E-01  8.50000000E-01  8.50000000E-01  8.50000000E-01  8.00000000E-01
  8.50000000E-01  8.50000000E-01  8.50000000E-01  8.00000000E-01  8.50000000E-01
  8.50000000E-01  8.50000000E-01  8.00000000E-01  8.50000000E-01  8.50000000E-01
  8.50000000E-01  8.00000000E-01  8.50000000E-01  8.50000000E-01  8.50000000E-01
  8.00000000E-01  8.50000000E-01  8.50000000E-01  8.50000000E-01  8.00000000E-01
  8.50000000E-01  8.50000000E-01  8.50000000E-01  8.00000000E-01  8.50000000E-01
  8.50000000E-01  8.50000000E-01  8.00000000E-01  8.50000000E-01  8.50000000E-01
  8.50000000E-01  8.00000000E-01  8.50000000E-01  8.50000000E-01  8.50000000E-01
  8.00000000E-01  8.50000000E-01  8.50000000E-01  8.50000000E-01  8.00000000E-01
  8.50000000E-01  8.50000000E-01  8.50000000E-01  8.00000000E-01  8.50000000E-01
  8.50000000E-01  8.50000000E-01  8.00000000E-01  8.50000000E-01  8.50000000E-01
  8.50000000E-01  8.00000000E-01  8.50000000E-01  8.50000000E-01  8.50000000E-01
  8.00000000E-01  8.50000000E-01  8.50000000E-01  8.50000000E-01  8.00000000E-01
  8.50000000E-01  8.50000000E-01  8.50000000E-01  8.00000000E-01  8.50000000E-01
  8.50000000E-01  8.50000000E-01  8.00000000E-01  8.50000000E-01  8.50000000E-01
  8.50000000E-01  8.00000000E-01  8.50000000E-01  8.50000000E-01  8.50000000E-01
  8.00000000E-01  8.50000000E-01  8.50000000E-01  8.50000000E-01  8.00000000E-01
  8.50000000E-01  8.50000000E-01  8.50000000E-01  8.00000000E-01  8.50000000E-01
  8.50000000E-01  8.50000000E-01  8.00000000E-01  8.50000000E-01  8.50000000E-01
  8.50000000E-01  8.00000000E-01  8.50000000E-01  8.50000000E-01  8.50000000E-01
  8.00000000E-01  8.50000000E-01  8.50000000E-01  8.50000000E-01  8.00000000E-01
  8.50000000E-01  8.50000000E-01  8.50000000E-01  8.00000000E-01  8.50000000E-01
  8.50000000E-01  8.50000000E-01  8.00000000E-01  8.50000000E-01  8.50000000E-01
  8.50000000E-01  8.00000000E-01  8.50000000E-01  8.50000000E-01  8.50000000E-01
  8.00000000E-01  8.50000000E-01  8.50000000E-01  8.50000000E-01  8.00000000E-01
  8.50000000E-01  8.50000000E-01  8.50000000E-01  8.00000000E-01  8.50000000E-01
  8.50000000E-01  8.50000000E-01  8.00000000E-01  8.50000000E-01  8.50000000E-01
  8.50000000E-01  8.00000000E-01  8.50000000E-01  8.50000000E-01  8.50000000E-01
  8.00000000E-01  8.50000000E-01  8.50000000E-01  8.50000000E-01  8.00000000E-01
  8.50000000E-01  8.50000000E-01  8.50000000E-01  8.00000000E-01  8.50000000E-01
  8.50000000E-01  8.50000000E-01  8.00000000E-01  8.50000000E-01  8.50000000E-01
  8.50000000E-01  8.00000000E-01  8.50000000E-01  8.50000000E-01  8.50000000E-01
  8.00000000E-01  8.50000000E-01  8.50000000E-01  8.50000000E-01  8.00000000E-01
  8.50000000E-01  8.50000000E-01  8.50000000E-01  8.00000000E-01  8.50000000E-01
  8.50000000E-01  8.50000000E-01  8.00000000E-01  8.50000000E-01  8.50000000E-01
  8.50000000E-01  8.00000000E-01  8.50000000E-01  8.50000000E-01  8.50000000E-01
  8.00000000E-01  8.50000000E-01  8.50000000E-01  8.50000000E-01  8.00000000E-01
  8.50000000E-01  8.50000000E-01  8.50000000E-01  8.00000000E-01  8.50000000E-01
  8.50000000E-01  8.50000000E-01  8.00000000E-01  8.50000000E-01  8.50000000E-01
  8.50000000E-01  8.00000000E-01  8.50000000E-01  8.50000000E-01  8.50000000E-01
  8.00000000E-01  8.50000000E-01  8.50000000E-01  8.50000000E-01  8.00000000E-01
  8.50000000E-01  8.50000000E-01  8.50000000E-01  8.00000000E-01  8.50000000E-01
  8.50000000E-01  8.50000000E-01  8.00000000E-01  8.50000000E-01  8.50000000E-01
  8.50000000E-01  8.00000000E-01  8.50000000E-01  8.50000000E-01  8.50000000E-01
  8.00000000E-01  8.50000000E-01  8.50000000E-01  8.50000000E-01  8.00000000E-01
  8.50000000E-01  8.50000000E-01  8.50000000E-01  8.00000000E-01  8.50000000E-01
  8.50000000E-01  8.50000000E-01  8.00000000E-01  8.50000000E-01  8.50000000E-01
  8.50000000E-01  8.00000000E-01  8.50000000E-01  8.50000000E-01  8.50000000E-01
  8.00000000E-01  8.50000000E-01  8.50000000E-01  8.50000000E-01  8.00000000E-01
  8.50000000E-01  8.50000000E-01  8.50000000E-01  8.00000000E-01  8.50000000E-01
  8.50000000E-01  8.50000000E-01  8.00000000E-01  8.50000000E-01  8.50000000E-01
  8.50000000E-01  8.00000000E-01  8.50000000E-01  8.50000000E-01  8.50000000E-01
  8.00000000E-01  8.50000000E-01  8.50000000E-01  8.50000000E-01  8.00000000E-01
  8.50000000E-01  8.50000000E-01  8.50000000E-01  8.00000000E-01  8.50000000E-01
  8.50000000E-01  8.50000000E-01  8.00000000E-01  8.50000000E-01  8.50000000E-01
  8.50000000E-01  8.00000000E-01  8.50000000E-01  8.50000000E-01  8.50000000E-01
  8.00000000E-01  8.50000000E-01  8.50000000E-01  8.50000000E-01  8.00000000E-01
  8.50000000E-01  8.50000000E-01  8.50000000E-01  8.00000000E-01  8.50000000E-01
  8.50000000E-01  8.50000000E-01  8.00000000E-01  8.50000000E-01  8.50000000E-01
  8.50000000E-01  8.00000000E-01  8.50000000E-01  8.50000000E-01  8.50000000E-01
  8.00000000E-01  8.50000000E-01  8.50000000E-01  8.50000000E-01  8.00000000E-01
  8.50000000E-01  8.50000000E-01  8.50000000E-01  8.00000000E-01  8.50000000E-01
  8.50000000E-01  8.50000000E-01  8.00000000E-01  8.50000000E-01  8.50000000E-01
  8.50000000E-01  8.00000000E-01  8.50000000E-01  8.50000000E-01  8.50000000E-01
  8.00000000E-01  8.50000000E-01  8.50000000E-01  8.50000000E-01  8.00000000E-01
  8.50000000E-01  8.50000000E-01  8.50000000E-01  8.00000000E-01  8.50000000E-01
  8.50000000E-01  8.50000000E-01  8.00000000E-01  8.50000000E-01  8.50000000E-01
  8.50000000E-01  8.00000000E-01  8.50000000E-01  8.50000000E-01  8.50000000E-01
  8.00000000E-01  8.50000000E-01  8.50000000E-01  8.50000000E-01  8.00000000E-01
  8.50000000E-01  8.50000000E-01  8.50000000E-01  8.00000000E-01  8.50000000E-01
  8.50000000E-01  8.50000000E-01  8.00000000E-01  8.50000000E-01  8.50000000E-01
  8.50000000E-01  8.00000000E-01  8.50000000E-01  8.50000000E-01  8.50000000E-01
  8.00000000E-01  8.50000000E-01  8.50000000E-01  8.50000000E-01  8.00000000E-01
  8.50000000E-01  8.50000000E-01  8.50000000E-01  8.00000000E-01  8.50000000E-01
  8.50000000E-01  8.50000000E-01  8.00000000E-01  8.50000000E-01  8.50000000E-01
  8.50000000E-01  8.00000000E-01  8.50000000E-01  8.50000000E-01  8.50000000E-01
  8.00000000E-01  8.50000000E-01  8.50000000E-01  8.50000000E-01  8.00000000E-01
  8.50000000E-01  8.50000000E-01  8.50000000E-01  8.00000000E-01  8.50000000E-01
  8.50000000E-01  8.50000000E-01  8.00000000E-01  8.50000000E-01  8.50000000E-01
  8.50000000E-01  8.00000000E-01  8.50000000E-01  8.50000000E-01  8.50000000E-01
  8.00000000E-01  8.50000000E-01  8.50000000E-01  8.50000000E-01  8.00000000E-01
  8.50000000E-01  8.50000000E-01  8.50000000E-01  8.00000000E-01  8.50000000E-01
  8.50000000E-01  8.50000000E-01  8.00000000E-01  8.50000000E-01  8.50000000E-01
  8.50000000E-01  8.00000000E-01  8.50000000E-01  8.50000000E-01  8.50000000E-01
  8.00000000E-01  8.50000000E-01  8.50000000E-01  8.50000000E-01  8.00000000E-01
  8.50000000E-01  8.50000000E-01  8.50000000E-01  8.00000000E-01  8.50000000E-01
  8.50000000E-01  8.50000000E-01  8.00000000E-01  8.50000000E-01  8.50000000E-01
  8.50000000E-01  8.00000000E-01  8.50000000E-01  8.50000000E-01  8.50000000E-01
  8.00000000E-01  8.50000000E-01  8.50000000E-01  8.50000000E-01  8.00000000E-01
  8.50000000E-01  8.50000000E-01  8.50000000E-01  8.00000000E-01  8.50000000E-01
  8.50000000E-01  8.50000000E-01  8.00000000E-01  8.50000000E-01  8.50000000E-01
  8.50000000E-01  8.00000000E-01  8.50000000E-01  8.50000000E-01  8.50000000E-01
  8.00000000E-01  8.50000000E-01  8.50000000E-01  8.50000000E-01  8.00000000E-01
  8.50000000E-01  8.50000000E-01  8.50000000E-01  8.00000000E-01  8.50000000E-01
  8.50000000E-01  8.50000000E-01  8.00000000E-01  8.50000000E-01  8.50000000E-01
  8.50000000E-01  8.00000000E-01  8.50000000E-01  8.50000000E-01  8.50000000E-01
  8.00000000E-01  8.50000000E-01  8.50000000E-01  8.50000000E-01  8.00000000E-01
  8.50000000E-01  8.50000000E-01  8.50000000E-01  8.00000000E-01  8.50000000E-01
  8.50000000E-01  8.50000000E-01  8.00000000E-01  8.50000000E-01  8.50000000E-01
  8.50000000E-01  8.00000000E-01  8.50000000E-01  8.50000000E-01  8.50000000E-01
  8.00000000E-01  8.50000000E-01  8.50000000E-01  8.50000000E-01  8.00000000E-01
  8.50000000E-01  8.50000000E-01  8.50000000E-01  8.00000000E-01  8.50000000E-01
  8.50000000E-01  8.50000000E-01  8.00000000E-01  8.50000000E-01  8.50000000E-01
  8.50000000E-01  8.00000000E-01  8.50000000E-01  8.50000000E-01  8.50000000E-01
  8.00000000E-01  8.50000000E-01  8.50000000E-01  8.50000000E-01  8.00000000E-01
  8.50000000E-01  8.50000000E-01  8.50000000E-01  8.00000000E-01  8.50000000E-01
  8.50000000E-01  8.50000000E-01  8.00000000E-01  8.50000000E-01  8.50000000E-01
  8.50000000E-01  8.00000000E-01  8.50000000E-01  8.50000000E-01  8.50000000E-01
  8.00000000E-01  8.50000000E-01  8.50000000E-01  8.50000000E-01  8.00000000E-01
  8.50000000E-01  8.50000000E-01  8.50000000E-01  8.00000000E-01  8.50000000E-01
  8.50000000E-01  8.50000000E-01  8.00000000E-01  8.50000000E-01  8.50000000E-01
  8.50000000E-01  8.00000000E-01  8.50000000E-01  8.50000000E-01  8.50000000E-01
  8.00000000E-01  8.50000000E-01  8.50000000E-01  8.50000000E-01  8.00000000E-01
  8.50000000E-01  8.50000000E-01  8.50000000E-01  8.00000000E-01  8.50000000E-01
  8.50000000E-01  8.50000000E-01  8.00000000E-01  8.50000000E-01  8.50000000E-01
  8.50000000E-01  8.00000000E-01  8.50000000E-01  8.50000000E-01  8.50000000E-01
  8.00000000E-01  8.50000000E-01  8.50000000E-01  8.50000000E-01  8.00000000E-01
  8.50000000E-01  8.50000000E-01  8.50000000E-01  8.00000000E-01  8.50000000E-01
  8.50000000E-01  8.50000000E-01  8.00000000E-01  8.50000000E-01  8.50000000E-01
  8.50000000E-01  8.00000000E-01  8.50000000E-01  8.50000000E-01  8.50000000E-01
  8.00000000E-01  8.50000000E-01  8.50000000E-01  8.50000000E-01  8.00000000E-01
  8.50000000E-01  8.50000000E-01  8.50000000E-01  8.00000000E-01  8.50000000E-01
  8.50000000E-01  8.50000000E-01  8.00000000E-01  8.50000000E-01  8.50000000E-01
  8.50000000E-01  8.00000000E-01  8.50000000E-01  8.50000000E-01  8.50000000E-01
  8.00000000E-01  8.50000000E-01  8.50000000E-01  8.50000000E-01  8.00000000E-01
  8.50000000E-01  8.50000000E-01  8.50000000E-01  8.00000000E-01  8.50000000E-01
  8.50000000E-01  8.50000000E-01  8.00000000E-01  8.50000000E-01  8.50000000E-01
  8.50000000E-01  8.00000000E-01  8.50000000E-01  8.50000000E-01  8.50000000E-01
  8.00000000E-01  8.50000000E-01  8.50000000E-01  8.50000000E-01  8.00000000E-01
  8.50000000E-01  8.50000000E-01  8.50000000E-01  8.00000000E-01  8.50000000E-01
  8.50000000E-01  8.50000000E-01  8.00000000E-01  8.50000000E-01  8.50000000E-01
  8.50000000E-01  8.00000000E-01  8.50000000E-01  8.50000000E-01  8.50000000E-01
  8.00000000E-01  8.50000000E-01  8.50000000E-01  8.50000000E-01  8.00000000E-01
  8.50000000E-01  8.50000000E-01  8.50000000E-01  8.00000000E-01  8.50000000E-01
  8.50000000E-01  8.50000000E-01  8.00000000E-01  8.50000000E-01  8.50000000E-01
  8.50000000E-01  8.00000000E-01  8.50000000E-01  8.50000000E-01  8.50000000E-01
  8.00000000E-01  8.50000000E-01  8.50000000E-01  8.50000000E-01  8.00000000E-01
  8.50000000E-01  8.50000000E-01  8.50000000E-01  8.00000000E-01  8.50000000E-01
  8.50000000E-01  8.50000000E-01  8.00000000E-01  8.50000000E-01  8.50000000E-01
  8.50000000E-01  8.00000000E-01  8.50000000E-01  8.50000000E-01  8.50000000E-01
  8.00000000E-01  8.50000000E-01  8.50000000E-01  8.50000000E-01  8.00000000E-01
  8.50000000E-01  8.50000000E-01  8.50000000E-01  8.00000000E-01  8.50000000E-01
  8.50000000E-01  8.50000000E-01  8.00000000E-01  8.50000000E-01  8.50000000E-01
  8.50000000E-01  8.00000000E-01  8.50000000E-01  8.50000000E-01  8.50000000E-01
  8.00000000E-01  8.50000000E-01  8.50000000E-01  8.50000000E-01  8.00000000E-01
  8.50000000E-01  8.50000000E-01  8.50000000E-01  8.00000000E-01  8.50000000E-01
  8.50000000E-01  8.50000000E-01  8.00000000E-01  8.50000000E-01  8.50000000E-01
  8.50000000E-01  8.00000000E-01  8.50000000E-01  8.50000000E-01  8.50000000E-01
  8.00000000E-01  8.50000000E-01  8.50000000E-01  8.50000000E-01  8.00000000E-01
  8.50000000E-01  8.50000000E-01  8.50000000E-01  8.00000000E-01  8.50000000E-01
  8.50000000E-01  8.50000000E-01  8.00000000E-01  8.50000000E-01  8.50000000E-01
  8.50000000E-01  8.00000000E-01  8.50000000E-01  8.50000000E-01  8.50000000E-01
  8.00000000E-01  8.50000000E-01  8.50000000E-01  8.50000000E-01  8.00000000E-01
  8.50000000E-01  8.50000000E-01  8.50000000E-01  8.00000000E-01  8.50000000E-01
  8.50000000E-01  8.50000000E-01  8.00000000E-01  8.50000000E-01  8.50000000E-01
  8.50000000E-01  8.00000000E-01  8.50000000E-01  8.50000000E-01  8.50000000E-01
  8.00000000E-01  8.50000000E-01  8.50000000E-01  8.50000000E-01  8.00000000E-01
  8.50000000E-01  8.50000000E-01  8.50000000E-01  8.00000000E-01  8.50000000E-01
  8.50000000E-01  8.50000000E-01  8.00000000E-01  8.50000000E-01  8.50000000E-01
  8.50000000E-01  8.00000000E-01  8.50000000E-01  8.50000000E-01  8.50000000E-01
  8.00000000E-01  8.50000000E-01  8.50000000E-01  8.50000000E-01  8.00000000E-01
  8.50000000E-01  8.50000000E-01  8.50000000E-01  8.00000000E-01  8.50000000E-01
  8.50000000E-01  8.50000000E-01  8.00000000E-01  8.50000000E-01  8.50000000E-01
  8.50000000E-01  8.00000000E-01  8.50000000E-01  8.50000000E-01  8.50000000E-01
  8.00000000E-01  8.50000000E-01  8.50000000E-01  8.50000000E-01  8.00000000E-01
  8.50000000E-01  8.50000000E-01  8.50000000E-01  8.00000000E-01  8.50000000E-01
  8.50000000E-01  8.50000000E-01  8.00000000E-01  8.50000000E-01  8.50000000E-01
  8.50000000E-01  8.00000000E-01  8.50000000E-01  8.50000000E-01  8.50000000E-01
  8.00000000E-01  8.50000000E-01  8.50000000E-01  8.50000000E-01  8.00000000E-01
  8.50000000E-01  8.50000000E-01  8.50000000E-01  8.00000000E-01  8.50000000E-01
  8.50000000E-01  8.50000000E-01  8.00000000E-01  8.50000000E-01  8.50000000E-01
  8.50000000E-01  8.00000000E-01  8.50000000E-01  8.50000000E-01  8.50000000E-01
  8.00000000E-01  8.50000000E-01  8.50000000E-01  8.50000000E-01  8.00000000E-01
  8.50000000E-01  8.50000000E-01  8.50000000E-01  8.00000000E-01  8.50000000E-01
  8.50000000E-01  8.50000000E-01  8.00000000E-01  8.50000000E-01  8.50000000E-01
  8.50000000E-01  8.00000000E-01  8.50000000E-01  8.50000000E-01  8.50000000E-01
  8.00000000E-01  8.50000000E-01  8.50000000E-01  8.50000000E-01  8.00000000E-01
  8.50000000E-01  8.50000000E-01  8.50000000E-01  8.00000000E-01  8.50000000E-01
  8.50000000E-01  8.50000000E-01  8.00000000E-01  8.50000000E-01  8.50000000E-01
  8.50000000E-01  8.00000000E-01  8.50000000E-01  8.50000000E-01  8.50000000E-01
  8.00000000E-01  8.50000000E-01  8.50000000E-01  8.50000000E-01  8.00000000E-01
  8.50000000E-01  8.50000000E-01  8.50000000E-01  8.00000000E-01  8.50000000E-01
  8.50000000E-01  8.50000000E-01  8.00000000E-01  8.50000000E-01  8.50000000E-01
  8.50000000E-01  8.00000000E-01  8.50000000E-01  8.50000000E-01  8.50000000E-01
  8.00000000E-01  8.50000000E-01  8.50000000E-01  8.50000000E-01  8.00000000E-01
  8.50000000E-01  8.50000000E-01  8.50000000E-01  8.00000000E-01  8.50000000E-01
  8.50000000E-01  8.50000000E-01  8.00000000E-01  8.50000000E-01  8.50000000E-01
  8.50000000E-01  8.00000000E-01  8.50000000E-01  8.50000000E-01  8.50000000E-01
  8.00000000E-01  8.50000000E-01  8.50000000E-01  8.50000000E-01  8.00000000E-01
  8.50000000E-01  8.50000000E-01  8.50000000E-01  8.00000000E-01  8.50000000E-01
  8.50000000E-01  8.50000000E-01  8.00000000E-01  8.50000000E-01  8.50000000E-01
  8.50000000E-01  8.00000000E-01  8.50000000E-01  8.50000000E-01  8.50000000E-01
  8.00000000E-01  8.50000000E-01  8.50000000E-01  8.50000000E-01  8.00000000E-01
  8.50000000E-01  8.50000000E-01  8.50000000E-01  8.00000000E-01  8.50000000E-01
  8.50000000E-01  8.50000000E-01  8.00000000E-01  8.50000000E-01  8.50000000E-01
  8.50000000E-01  8.00000000E-01  8.50000000E-01  8.50000000E-01  8.50000000E-01
  8.00000000E-01  8.50000000E-01  8.50000000E-01  8.50000000E-01  8.00000000E-01
  8.50000000E-01  8.50000000E-01  8.50000000E-01  8.00000000E-01  8.50000000E-01
  8.50000000E-01  8.50000000E-01  8.00000000E-01  8.50000000E-01  8.50000000E-01
  8.50000000E-01  8.00000000E-01  8.50000000E-01  8.50000000E-01  8.50000000E-01
  8.00000000E-01  8.50000000E-01  8.50000000E-01  8.50000000E-01  8.00000000E-01
  8.50000000E-01  8.50000000E-01  8.50000000E-01  8.00000000E-01  8.50000000E-01
  8.50000000E-01  8.50000000E-01  8.00000000E-01  8.50000000E-01  8.50000000E-01
  8.50000000E-01  8.00000000E-01  8.50000000E-01  8.50000000E-01  8.50000000E-01
  8.00000000E-01  8.50000000E-01  8.50000000E-01  8.50000000E-01  8.00000000E-01
  8.50000000E-01  8.50000000E-01  8.50000000E-01  8.00000000E-01  8.50000000E-01
  8.50000000E-01  8.50000000E-01  8.00000000E-01  8.50000000E-01  8.50000000E-01
  8.50000000E-01  8.00000000E-01  8.50000000E-01  8.50000000E-01  8.50000000E-01
  8.00000000E-01  8.50000000E-01  8.50000000E-01  8.50000000E-01  8.00000000E-01
  8.50000000E-01  8.50000000E-01  8.50000000E-01  8.00000000E-01  8.50000000E-01
  8.50000000E-01  8.50000000E-01  8.00000000E-01  8.50000000E-01  8.50000000E-01
  8.50000000E-01  8.00000000E-01  8.50000000E-01  8.50000000E-01  8.50000000E-01
  8.00000000E-01  8.50000000E-01  8.50000000E-01  8.50000000E-01  8.00000000E-01
  8.50000000E-01  8.50000000E-01  8.50000000E-01  8.00000000E-01  8.50000000E-01
  8.50000000E-01  8.50000000E-01  8.00000000E-01  8.50000000E-01  8.50000000E-01
  8.50000000E-01  8.00000000E-01  8.50000000E-01  8.50000000E-01  8.50000000E-01
  8.00000000E-01  8.50000000E-01  8.50000000E-01  8.50000000E-01  8.00000000E-01
  8.50000000E-01  8.50000000E-01  8.50000000E-01  8.00000000E-01  8.50000000E-01
  8.50000000E-01  8.50000000E-01  8.00000000E-01  8.50000000E-01  8.50000000E-01
  8.50000000E-01  8.00000000E-01  8.50000000E-01  8.50000000E-01  8.50000000E-01
  8.00000000E-01  8.50000000E-01  8.50000000E-01  8.50000000E-01  8.00000000E-01
  8.50000000E-01  8.50000000E-01  8.50000000E-01  8.00000000E-01  8.50000000E-01
  8.50000000E-01  8.50000000E-01  8.00000000E-01  8.50000000E-01  8.50000000E-01
  8.50000000E-01  8.00000000E-01  8.50000000E-01  8.50000000E-01  8.50000000E-01
  8.00000000E-01  8.50000000E-01  8.50000000E-01  8.50000000E-01  8.00000000E-01
  8.50000000E-01  8.50000000E-01  8.50000000E-01  8.00000000E-01  8.50000000E-01
  8.50000000E-01  8.50000000E-01  8.00000000E-01  8.50000000E-01  8.50000000E-01
  8.50000000E-01  8.00000000E-01  8.50000000E-01  8.50000000E-01  8.50000000E-01
  8.00000000E-01  8.50000000E-01  8.50000000E-01  8.50000000E-01  8.00000000E-01
  8.50000000E-01  8.50000000E-01  8.50000000E-01  8.00000000E-01  8.50000000E-01
  8.50000000E-01  8.50000000E-01  8.00000000E-01  8.50000000E-01  8.50000000E-01
  8.50000000E-01  8.00000000E-01  8.50000000E-01  8.50000000E-01  8.50000000E-01
  8.00000000E-01  8.50000000E-01  8.50000000E-01  8.50000000E-01  8.00000000E-01
  8.50000000E-01  8.50000000E-01  8.50000000E-01  8.00000000E-01  8.50000000E-01
  8.50000000E-01  8.50000000E-01  8.00000000E-01  8.50000000E-01  8.50000000E-01
  8.50000000E-01  8.00000000E-01  8.50000000E-01  8.50000000E-01  8.50000000E-01
  8.00000000E-01  8.50000000E-01  8.50000000E-01  8.50000000E-01  8.00000000E-01
  8.50000000E-01  8.50000000E-01  8.50000000E-01  8.00000000E-01  8.50000000E-01
  8.50000000E-01  8.50000000E-01  8.00000000E-01  8.50000000E-01  8.50000000E-01
  8.50000000E-01  8.00000000E-01  8.50000000E-01  8.50000000E-01  8.50000000E-01
  8.00000000E-01  8.50000000E-01  8.50000000E-01  8.50000000E-01  8.00000000E-01
  8.50000000E-01  8.50000000E-01  8.50000000E-01  8.00000000E-01  8.50000000E-01
  8.50000000E-01  8.50000000E-01  8.00000000E-01  8.50000000E-01  8.50000000E-01
  8.50000000E-01  8.00000000E-01  8.50000000E-01  8.50000000E-01  8.50000000E-01
  8.00000000E-01  8.50000000E-01  8.50000000E-01  8.50000000E-01  8.00000000E-01
  8.50000000E-01  8.50000000E-01  8.50000000E-01  8.00000000E-01  8.50000000E-01
  8.50000000E-01  8.50000000E-01  8.00000000E-01  8.50000000E-01  8.50000000E-01
  8.50000000E-01  8.00000000E-01  8.50000000E-01  8.50000000E-01  8.50000000E-01
  8.00000000E-01  8.50000000E-01  8.50000000E-01  8.50000000E-01  8.00000000E-01
  8.50000000E-01  8.50000000E-01  8.50000000E-01  8.00000000E-01  8.50000000E-01
  8.50000000E-01  8.50000000E-01  8.00000000E-01  8.50000000E-01  8.50000000E-01
  8.50000000E-01  8.00000000E-01  8.50000000E-01  8.50000000E-01  8.50000000E-01
  8.00000000E-01  8.50000000E-01  8.50000000E-01  8.50000000E-01  8.00000000E-01
  8.50000000E-01  8.50000000E-01  8.50000000E-01  8.00000000E-01  8.50000000E-01
  8.50000000E-01  8.50000000E-01  8.00000000E-01  8.50000000E-01  8.50000000E-01
  8.50000000E-01  8.00000000E-01  8.50000000E-01  8.50000000E-01  8.50000000E-01
  8.00000000E-01  8.50000000E-01  8.50000000E-01  8.50000000E-01  8.00000000E-01
  8.50000000E-01  8.50000000E-01  8.50000000E-01  8.00000000E-01  8.50000000E-01
  8.50000000E-01  8.50000000E-01  8.00000000E-01  8.50000000E-01  8.50000000E-01
  8.50000000E-01  8.00000000E-01  8.50000000E-01  8.50000000E-01  8.50000000E-01
  8.00000000E-01  8.50000000E-01  8.50000000E-01  8.50000000E-01  8.00000000E-01
  8.50000000E-01  8.50000000E-01  8.50000000E-01  8.00000000E-01  8.50000000E-01
  8.50000000E-01  8.50000000E-01  8.00000000E-01  8.50000000E-01  8.50000000E-01
  8.50000000E-01  8.00000000E-01  8.50000000E-01  8.50000000E-01  8.50000000E-01
  8.00000000E-01  8.50000000E-01  8.50000000E-01  8.50000000E-01  8.00000000E-01
  8.50000000E-01  8.50000000E-01  8.50000000E-01  8.00000000E-01  8.50000000E-01
  8.50000000E-01  8.50000000E-01  8.00000000E-01  8.50000000E-01  8.50000000E-01
  8.50000000E-01  8.00000000E-01  8.50000000E-01  8.50000000E-01  8.50000000E-01
  8.00000000E-01  8.50000000E-01  8.50000000E-01  8.50000000E-01  8.00000000E-01
  8.50000000E-01  8.50000000E-01  8.50000000E-01  8.00000000E-01  8.50000000E-01
  8.50000000E-01  8.50000000E-01  8.00000000E-01  8.50000000E-01  8.50000000E-01
  8.50000000E-01  8.00000000E-01  8.50000000E-01  8.50000000E-01  8.50000000E-01
  8.00000000E-01  8.50000000E-01  8.50000000E-01  8.50000000E-01  8.00000000E-01
  8.50000000E-01  8.50000000E-01  8.50000000E-01  8.00000000E-01  8.50000000E-01
  8.50000000E-01  8.50000000E-01  8.00000000E-01  8.50000000E-01  8.50000000E-01
  8.50000000E-01  8.00000000E-01  8.50000000E-01  8.50000000E-01  8.50000000E-01
  8.00000000E-01  8.50000000E-01  8.50000000E-01  8.50000000E-01  8.00000000E-01
  8.50000000E-01  8.50000000E-01  8.50000000E-01  8.00000000E-01  8.50000000E-01
  8.50000000E-01  8.50000000E-01  8.00000000E-01  8.50000000E-01  8.50000000E-01
  8.50000000E-01  8.00000000E-01  8.50000000E-01  8.50000000E-01  8.50000000E-01
  8.00000000E-01  8.50000000E-01  8.50000000E-01  8.50000000E-01  8.00000000E-01
  8.50000000E-01  8.50000000E-01  8.50000000E-01  8.00000000E-01  8.50000000E-01
  8.50000000E-01  8.50000000E-01  8.00000000E-01  8.50000000E-01  8.50000000E-01
  8.50000000E-01  8.00000000E-01  8.50000000E-01  8.50000000E-01  8.50000000E-01
  8.00000000E-01  8.50000000E-01  8.50000000E-01  8.50000000E-01  8.00000000E-01
  8.50000000E-01  8.50000000E-01  8.50000000E-01  8.00000000E-01  8.50000000E-01
  8.50000000E-01  8.50000000E-01  8.00000000E-01  8.50000000E-01  8.50000000E-01
  8.50000000E-01  8.00000000E-01  8.50000000E-01  8.50000000E-01  8.50000000E-01
  8.00000000E-01  8.50000000E-01  8.50000000E-01  8.50000000E-01  8.00000000E-01
  8.50000000E-01  8.50000000E-01  8.50000000E-01  8.00000000E-01  8.50000000E-01
  8.50000000E-01  8.50000000E-01  8.00000000E-01  8.50000000E-01  8.50000000E-01
  8.50000000E-01  8.00000000E-01  8.50000000E-01  8.50000000E-01  8.50000000E-01
  8.00000000E-01  8.50000000E-01  8.50000000E-01  8.50000000E-01  8.00000000E-01
  8.50000000E-01  8.50000000E-01  8.50000000E-01  8.00000000E-01  8.50000000E-01
  8.50000000E-01  8.50000000E-01  8.00000000E-01  8.50000000E-01  8.50000000E-01
  8.50000000E-01  8.00000000E-01  8.50000000E-01  8.50000000E-01  8.50000000E-01
  8.00000000E-01  8.50000000E-01  8.50000000E-01  8.50000000E-01  8.00000000E-01
  8.50000000E-01  8.50000000E-01  8.50000000E-01  8.00000000E-01  8.50000000E-01
  8.50000000E-01  8.50000000E-01  8.00000000E-01  8.50000000E-01  8.50000000E-01
  8.50000000E-01  8.00000000E-01  8.50000000E-01  8.50000000E-01  8.50000000E-01
  8.00000000E-01  8.50000000E-01  8.50000000E-01  8.50000000E-01  8.00000000E-01
  8.50000000E-01  8.50000000E-01  8.50000000E-01  8.00000000E-01  8.50000000E-01
  8.50000000E-01  8.50000000E-01  8.00000000E-01  8.50000000E-01  8.50000000E-01
  8.50000000E-01  8.00000000E-01  8.50000000E-01  8.50000000E-01  8.50000000E-01
  8.00000000E-01  8.50000000E-01  8.50000000E-01  8.50000000E-01  8.00000000E-01
  8.50000000E-01  8.50000000E-01  8.50000000E-01  8.00000000E-01  8.50000000E-01
  8.50000000E-01  8.50000000E-01  8.00000000E-01  8.50000000E-01  8.50000000E-01
  8.50000000E-01  8.00000000E-01  8.50000000E-01  8.50000000E-01  8.50000000E-01
  8.00000000E-01  8.50000000E-01  8.50000000E-01  8.50000000E-01  8.00000000E-01
  8.50000000E-01  8.50000000E-01  8.50000000E-01  8.00000000E-01  8.50000000E-01
  8.50000000E-01  8.50000000E-01  8.00000000E-01  8.50000000E-01  8.50000000E-01
  8.50000000E-01  8.00000000E-01  8.50000000E-01  8.50000000E-01  8.50000000E-01
  8.00000000E-01  8.50000000E-01  8.50000000E-01  8.50000000E-01  8.00000000E-01
  8.50000000E-01  8.50000000E-01  8.50000000E-01  8.00000000E-01  8.50000000E-01
  8.50000000E-01  8.50000000E-01  8.00000000E-01  8.50000000E-01  8.50000000E-01
  8.50000000E-01  8.00000000E-01  8.50000000E-01  8.50000000E-01  8.50000000E-01
  8.00000000E-01  8.50000000E-01  8.50000000E-01  8.50000000E-01  8.00000000E-01
  8.50000000E-01  8.50000000E-01  8.50000000E-01  8.00000000E-01  8.50000000E-01
  8.50000000E-01  8.50000000E-01  8.00000000E-01  8.50000000E-01  8.50000000E-01
  8.50000000E-01  8.00000000E-01  8.50000000E-01  8.50000000E-01  8.50000000E-01
  8.00000000E-01  8.50000000E-01  8.50000000E-01  8.50000000E-01  8.00000000E-01
  8.50000000E-01  8.50000000E-01  8.50000000E-01  8.00000000E-01  8.50000000E-01
  8.50000000E-01  8.50000000E-01  8.00000000E-01  8.50000000E-01  8.50000000E-01
  8.50000000E-01  8.00000000E-01  8.50000000E-01  8.50000000E-01  8.50000000E-01
  8.00000000E-01  8.50000000E-01  8.50000000E-01  8.50000000E-01  8.00000000E-01
  8.50000000E-01  8.50000000E-01  8.50000000E-01  8.00000000E-01  8.50000000E-01
  8.50000000E-01  8.50000000E-01  8.00000000E-01  8.50000000E-01  8.50000000E-01
  8.50000000E-01  8.00000000E-01  8.50000000E-01  8.50000000E-01  8.50000000E-01
  8.00000000E-01  8.50000000E-01  8.50000000E-01  8.50000000E-01  8.00000000E-01
  8.50000000E-01  8.50000000E-01  8.50000000E-01  8.00000000E-01  8.50000000E-01
  8.50000000E-01  8.50000000E-01  8.00000000E-01  8.50000000E-01  8.50000000E-01
  8.50000000E-01  8.00000000E-01  8.50000000E-01  8.50000000E-01  8.50000000E-01
  8.00000000E-01  8.50000000E-01  8.50000000E-01  8.50000000E-01  8.00000000E-01
  8.50000000E-01  8.50000000E-01  8.50000000E-01  8.00000000E-01  8.50000000E-01
  8.50000000E-01  8.50000000E-01  8.00000000E-01  8.50000000E-01  8.50000000E-01
  8.50000000E-01  8.00000000E-01  8.50000000E-01  8.50000000E-01  8.50000000E-01
  8.00000000E-01  8.50000000E-01  8.50000000E-01  8.50000000E-01  8.00000000E-01
  8.50000000E-01  8.50000000E-01  8.50000000E-01  8.00000000E-01  8.50000000E-01
  8.50000000E-01  8.50000000E-01  8.00000000E-01  8.50000000E-01  8.50000000E-01
  8.50000000E-01  8.00000000E-01  8.50000000E-01  8.50000000E-01  8.50000000E-01
  8.00000000E-01  8.50000000E-01  8.50000000E-01  8.50000000E-01  8.00000000E-01
  8.50000000E-01  8.50000000E-01  8.50000000E-01  8.00000000E-01  8.50000000E-01
  8.50000000E-01  8.50000000E-01  8.00000000E-01  8.50000000E-01  8.50000000E-01
  8.50000000E-01  8.00000000E-01  8.50000000E-01  8.50000000E-01  8.50000000E-01
  8.00000000E-01  8.50000000E-01  8.50000000E-01  8.50000000E-01  8.00000000E-01
  8.50000000E-01  8.50000000E-01  8.50000000E-01  8.00000000E-01  8.50000000E-01
  8.50000000E-01  8.50000000E-01  8.00000000E-01  8.50000000E-01  8.50000000E-01
  8.50000000E-01  8.00000000E-01  8.50000000E-01  8.50000000E-01  8.50000000E-01
  8.00000000E-01  8.50000000E-01  8.50000000E-01  8.50000000E-01  8.00000000E-01
  8.50000000E-01  8.50000000E-01  8.50000000E-01  8.00000000E-01  8.50000000E-01
  8.50000000E-01  8.50000000E-01  8.00000000E-01  8.50000000E-01  8.50000000E-01
  8.50000000E-01  8.00000000E-01  8.50000000E-01  8.50000000E-01  8.50000000E-01
  8.00000000E-01  8.50000000E-01  8.50000000E-01  8.50000000E-01  8.00000000E-01
  8.50000000E-01  8.50000000E-01  8.50000000E-01  8.00000000E-01  8.50000000E-01
  8.50000000E-01  8.50000000E-01  8.00000000E-01  8.50000000E-01  8.50000000E-01
  8.50000000E-01  8.00000000E-01  8.50000000E-01  8.50000000E-01  8.50000000E-01
  8.00000000E-01  8.50000000E-01  8.50000000E-01  8.50000000E-01  8.00000000E-01
  8.50000000E-01  8.50000000E-01  8.50000000E-01  8.00000000E-01  8.50000000E-01
  8.50000000E-01  8.50000000E-01  8.00000000E-01  8.50000000E-01  8.50000000E-01
  8.50000000E-01  8.00000000E-01  8.50000000E-01  8.50000000E-01  8.50000000E-01
  8.00000000E-01  8.50000000E-01  8.50000000E-01  8.50000000E-01  8.00000000E-01
  8.50000000E-01  8.50000000E-01  8.50000000E-01  8.00000000E-01  8.50000000E-01
  8.50000000E-01  8.50000000E-01  8.00000000E-01  8.50000000E-01  8.50000000E-01
  8.50000000E-01  8.00000000E-01  8.50000000E-01  8.50000000E-01  8.50000000E-01
  8.00000000E-01  8.50000000E-01  8.50000000E-01  8.50000000E-01  8.00000000E-01
  8.50000000E-01  8.50000000E-01  8.50000000E-01  8.00000000E-01  8.50000000E-01
  8.50000000E-01  8.50000000E-01  8.00000000E-01  8.50000000E-01  8.50000000E-01
  8.50000000E-01  8.00000000E-01  8.50000000E-01  8.50000000E-01  8.50000000E-01
  8.00000000E-01  8.50000000E-01  8.50000000E-01  8.50000000E-01  8.00000000E-01
  8.50000000E-01  8.50000000E-01  8.50000000E-01  8.00000000E-01  8.50000000E-01
  8.50000000E-01  8.50000000E-01  8.00000000E-01  8.50000000E-01  8.50000000E-01
  8.50000000E-01  8.00000000E-01  8.50000000E-01  8.50000000E-01  8.50000000E-01
  8.00000000E-01  8.50000000E-01  8.50000000E-01  8.50000000E-01  8.00000000E-01
  8.50000000E-01  8.50000000E-01  8.50000000E-01  8.00000000E-01  8.50000000E-01
  8.50000000E-01  8.50000000E-01  8.00000000E-01  8.50000000E-01  8.50000000E-01
  8.50000000E-01  8.00000000E-01  8.50000000E-01  8.50000000E-01  8.50000000E-01
  8.00000000E-01  8.50000000E-01  8.50000000E-01  8.50000000E-01  8.00000000E-01
  8.50000000E-01  8.50000000E-01  8.50000000E-01  8.00000000E-01  8.50000000E-01
  8.50000000E-01  8.50000000E-01  8.00000000E-01  8.50000000E-01  8.50000000E-01
  8.50000000E-01  8.00000000E-01  8.50000000E-01  8.50000000E-01  8.50000000E-01
  8.00000000E-01  8.50000000E-01  8.50000000E-01  8.50000000E-01  8.00000000E-01
  8.50000000E-01  8.50000000E-01  8.50000000E-01  8.00000000E-01  8.50000000E-01
  8.50000000E-01  8.50000000E-01  8.00000000E-01  8.50000000E-01  8.50000000E-01
  8.50000000E-01  8.00000000E-01  8.50000000E-01  8.50000000E-01  8.50000000E-01
  8.00000000E-01  8.50000000E-01  8.50000000E-01  8.50000000E-01  8.00000000E-01
  8.50000000E-01  8.50000000E-01  8.50000000E-01  8.00000000E-01  8.50000000E-01
  8.50000000E-01  8.50000000E-01  8.00000000E-01  8.50000000E-01  8.50000000E-01
  8.50000000E-01  8.00000000E-01  8.50000000E-01  8.50000000E-01  8.50000000E-01
  8.00000000E-01  8.50000000E-01  8.50000000E-01  8.50000000E-01  8.00000000E-01
  8.50000000E-01  8.50000000E-01  8.50000000E-01  8.00000000E-01  8.50000000E-01
  8.50000000E-01  8.50000000E-01  8.00000000E-01  8.50000000E-01  8.50000000E-01
  8.50000000E-01  8.00000000E-01  8.50000000E-01  8.50000000E-01  8.50000000E-01
  8.00000000E-01  8.50000000E-01  8.50000000E-01  8.50000000E-01  8.00000000E-01
  8.50000000E-01  8.50000000E-01  8.50000000E-01  8.00000000E-01  8.50000000E-01
  8.50000000E-01  8.50000000E-01  8.00000000E-01  8.50000000E-01  8.50000000E-01
  8.50000000E-01  8.00000000E-01  8.50000000E-01  8.50000000E-01  8.50000000E-01
  8.00000000E-01  8.50000000E-01  8.50000000E-01  8.50000000E-01  8.00000000E-01
  8.50000000E-01  8.50000000E-01  8.50000000E-01  8.00000000E-01  8.50000000E-01
  8.50000000E-01  8.50000000E-01  8.00000000E-01  8.50000000E-01  8.50000000E-01
  8.50000000E-01  8.00000000E-01  8.50000000E-01  8.50000000E-01  8.50000000E-01
  8.00000000E-01  8.50000000E-01  8.50000000E-01  8.50000000E-01  8.00000000E-01
  8.50000000E-01  8.50000000E-01  8.50000000E-01  8.00000000E-01  8.50000000E-01
  8.50000000E-01  8.50000000E-01  8.00000000E-01  8.50000000E-01  8.50000000E-01
  8.50000000E-01  8.00000000E-01  8.50000000E-01  8.50000000E-01  8.50000000E-01
  8.00000000E-01  8.50000000E-01  8.50000000E-01  8.50000000E-01  8.00000000E-01
  8.50000000E-01  8.50000000E-01  8.50000000E-01  8.00000000E-01  8.50000000E-01
  8.50000000E-01  8.50000000E-01  8.00000000E-01  8.50000000E-01  8.50000000E-01
  8.50000000E-01  8.00000000E-01  8.50000000E-01  8.50000000E-01  8.50000000E-01
  8.00000000E-01  8.50000000E-01  8.50000000E-01  8.50000000E-01  8.00000000E-01
  8.50000000E-01  8.50000000E-01  8.50000000E-01  8.00000000E-01  8.50000000E-01
  8.50000000E-01  8.50000000E-01  8.00000000E-01  8.50000000E-01  8.50000000E-01
  8.50000000E-01  8.00000000E-01  8.50000000E-01  8.50000000E-01  8.50000000E-01
  8.00000000E-01  8.50000000E-01  8.50000000E-01  8.50000000E-01  8.00000000E-01
  8.50000000E-01  8.50000000E-01  8.50000000E-01  8.00000000E-01  8.50000000E-01
  8.50000000E-01  8.50000000E-01  8.00000000E-01  8.50000000E-01  8.50000000E-01
  8.50000000E-01  8.00000000E-01  8.50000000E-01  8.50000000E-01  8.50000000E-01
  8.00000000E-01  8.50000000E-01  8.50000000E-01  8.50000000E-01  8.00000000E-01
  8.50000000E-01  8.50000000E-01  8.50000000E-01  8.00000000E-01  8.50000000E-01
  8.50000000E-01  8.50000000E-01  8.00000000E-01  8.50000000E-01  8.50000000E-01
  8.50000000E-01  8.00000000E-01  8.50000000E-01  8.50000000E-01  8.50000000E-01
  8.00000000E-01  8.50000000E-01  8.50000000E-01  8.50000000E-01  8.00000000E-01
  8.50000000E-01  8.50000000E-01  8.50000000E-01  8.00000000E-01  8.50000000E-01
  8.50000000E-01  8.50000000E-01  8.00000000E-01  8.50000000E-01  8.50000000E-01
  8.50000000E-01  8.00000000E-01  8.50000000E-01  8.50000000E-01  8.50000000E-01
  8.00000000E-01  8.50000000E-01  8.50000000E-01  8.50000000E-01  8.00000000E-01
  8.50000000E-01  8.50000000E-01  8.50000000E-01  8.00000000E-01  8.50000000E-01
  8.50000000E-01  8.50000000E-01  8.00000000E-01  8.50000000E-01  8.50000000E-01
  8.50000000E-01  8.00000000E-01  8.50000000E-01  8.50000000E-01  8.50000000E-01
  8.00000000E-01  8.50000000E-01  8.50000000E-01  8.50000000E-01  8.00000000E-01
  8.50000000E-01  8.50000000E-01  8.50000000E-01  8.00000000E-01  8.50000000E-01
  8.50000000E-01  8.50000000E-01  8.00000000E-01  8.50000000E-01  8.50000000E-01
  8.50000000E-01  8.00000000E-01  8.50000000E-01  8.50000000E-01  8.50000000E-01
  8.00000000E-01  8.50000000E-01  8.50000000E-01  8.50000000E-01  8.00000000E-01
  8.50000000E-01  8.50000000E-01  8.50000000E-01  8.00000000E-01  8.50000000E-01
  8.50000000E-01  8.50000000E-01  8.00000000E-01  8.50000000E-01  8.50000000E-01
  8.50000000E-01  8.00000000E-01  8.50000000E-01  8.50000000E-01  8.50000000E-01
  8.00000000E-01  8.50000000E-01  8.50000000E-01  8.50000000E-01  8.00000000E-01
  8.50000000E-01  8.50000000E-01  8.50000000E-01  8.00000000E-01  8.50000000E-01
  8.50000000E-01  8.50000000E-01  8.00000000E-01  8.50000000E-01  8.50000000E-01
  8.50000000E-01  8.00000000E-01  8.50000000E-01  8.50000000E-01  8.50000000E-01
  8.00000000E-01  8.50000000E-01  8.50000000E-01  8.50000000E-01  8.00000000E-01
  8.50000000E-01  8.50000000E-01  8.50000000E-01  8.00000000E-01  8.50000000E-01
  8.50000000E-01  8.50000000E-01  8.00000000E-01  8.50000000E-01  8.50000000E-01
  8.50000000E-01  8.00000000E-01  8.50000000E-01  8.50000000E-01  8.50000000E-01
  8.00000000E-01  8.50000000E-01  8.50000000E-01  8.50000000E-01  8.00000000E-01
  8.50000000E-01  8.50000000E-01  8.50000000E-01  8.00000000E-01  8.50000000E-01
  8.50000000E-01  8.50000000E-01  8.00000000E-01  8.50000000E-01  8.50000000E-01
  8.50000000E-01  8.00000000E-01  8.50000000E-01  8.50000000E-01  8.50000000E-01
  8.00000000E-01  8.50000000E-01  8.50000000E-01  8.50000000E-01  8.00000000E-01
  8.50000000E-01  8.50000000E-01  8.50000000E-01  8.00000000E-01  8.50000000E-01
  8.50000000E-01  8.50000000E-01  8.00000000E-01  8.50000000E-01  8.50000000E-01
  8.50000000E-01  8.00000000E-01  8.50000000E-01  8.50000000E-01  8.50000000E-01
  8.00000000E-01  8.50000000E-01  8.50000000E-01  8.50000000E-01  8.00000000E-01
  8.50000000E-01  8.50000000E-01  8.50000000E-01  8.00000000E-01  8.50000000E-01
  8.50000000E-01  8.50000000E-01  8.00000000E-01  8.50000000E-01  8.50000000E-01
  8.50000000E-01  8.00000000E-01  8.50000000E-01  8.50000000E-01  8.50000000E-01
  8.00000000E-01  8.50000000E-01  8.50000000E-01  8.50000000E-01  8.00000000E-01
  8.50000000E-01  8.50000000E-01  8.50000000E-01  8.00000000E-01  8.50000000E-01
  8.50000000E-01  8.50000000E-01  8.00000000E-01  8.50000000E-01  8.50000000E-01
  8.50000000E-01  8.00000000E-01  8.50000000E-01  8.50000000E-01  8.50000000E-01
  8.00000000E-01  8.50000000E-01  8.50000000E-01  8.50000000E-01  8.00000000E-01
  8.50000000E-01  8.50000000E-01  8.50000000E-01  8.00000000E-01  8.50000000E-01
  8.50000000E-01  8.50000000E-01  8.00000000E-01  8.50000000E-01  8.50000000E-01
  8.50000000E-01  8.00000000E-01  8.50000000E-01  8.50000000E-01  8.50000000E-01
  8.00000000E-01  8.50000000E-01  8.50000000E-01  8.50000000E-01  8.00000000E-01
  8.50000000E-01  8.50000000E-01  8.50000000E-01  8.00000000E-01  8.50000000E-01
  8.50000000E-01  8.50000000E-01  8.00000000E-01  8.50000000E-01  8.50000000E-01
  8.50000000E-01  8.00000000E-01  8.50000000E-01  8.50000000E-01  8.50000000E-01
  8.00000000E-01  8.50000000E-01  8.50000000E-01  8.50000000E-01  8.00000000E-01
  8.50000000E-01  8.50000000E-01  8.50000000E-01  8.00000000E-01  8.50000000E-01
  8.50000000E-01  8.50000000E-01  8.00000000E-01  8.50000000E-01  8.50000000E-01
  8.50000000E-01  8.00000000E-01  8.50000000E-01  8.50000000E-01  8.50000000E-01
  8.00000000E-01  8.50000000E-01  8.50000000E-01  8.50000000E-01  8.00000000E-01
  8.50000000E-01  8.50000000E-01  8.50000000E-01  8.00000000E-01  8.50000000E-01
  8.50000000E-01  8.50000000E-01  8.00000000E-01  8.50000000E-01  8.50000000E-01
  8.50000000E-01  8.00000000E-01  8.50000000E-01  8.50000000E-01  8.50000000E-01
  8.00000000E-01  8.50000000E-01  8.50000000E-01  8.50000000E-01  8.00000000E-01
  8.50000000E-01  8.50000000E-01  8.50000000E-01  8.00000000E-01  8.50000000E-01
  8.50000000E-01  8.50000000E-01  8.00000000E-01  8.50000000E-01  8.50000000E-01
  8.50000000E-01  8.00000000E-01  8.50000000E-01  8.50000000E-01  8.50000000E-01
  8.00000000E-01  8.50000000E-01  8.50000000E-01  8.50000000E-01  8.00000000E-01
  8.50000000E-01  8.50000000E-01  8.50000000E-01  8.00000000E-01  8.50000000E-01
  8.50000000E-01  8.50000000E-01  8.00000000E-01  8.50000000E-01  8.50000000E-01
  8.50000000E-01  8.00000000E-01  8.50000000E-01  8.50000000E-01  8.50000000E-01
  8.00000000E-01  8.50000000E-01  8.50000000E-01  8.50000000E-01  8.00000000E-01
  8.50000000E-01  8.50000000E-01  8.50000000E-01  8.00000000E-01  8.50000000E-01
  8.50000000E-01  8.50000000E-01  8.00000000E-01  8.50000000E-01  8.50000000E-01
  8.50000000E-01  8.00000000E-01  8.50000000E-01  8.50000000E-01  8.50000000E-01
  8.00000000E-01  8.50000000E-01  8.50000000E-01  8.50000000E-01  8.00000000E-01
  8.50000000E-01  8.50000000E-01  8.50000000E-01  8.00000000E-01  8.50000000E-01
  8.50000000E-01  8.50000000E-01  8.00000000E-01  8.50000000E-01  8.50000000E-01
  8.50000000E-01  8.00000000E-01  8.50000000E-01  8.50000000E-01  8.50000000E-01
  8.00000000E-01  8.50000000E-01  8.50000000E-01  8.50000000E-01  8.00000000E-01
  8.50000000E-01  8.50000000E-01  8.50000000E-01  8.00000000E-01  8.50000000E-01
  8.50000000E-01  8.50000000E-01  8.00000000E-01  8.50000000E-01  8.50000000E-01
  8.50000000E-01  8.00000000E-01  8.50000000E-01  8.50000000E-01  8.50000000E-01
  8.00000000E-01  8.50000000E-01  8.50000000E-01  8.50000000E-01  8.00000000E-01
  8.50000000E-01  8.50000000E-01  8.50000000E-01  8.00000000E-01  8.50000000E-01
  8.50000000E-01  8.50000000E-01  8.00000000E-01  8.50000000E-01  8.50000000E-01
  8.50000000E-01  8.00000000E-01  8.50000000E-01  8.50000000E-01  8.50000000E-01
  8.00000000E-01  8.50000000E-01  8.50000000E-01  8.50000000E-01  8.00000000E-01
  8.50000000E-01  8.50000000E-01  8.50000000E-01  8.00000000E-01  8.50000000E-01
  8.50000000E-01  8.50000000E-01  8.00000000E-01  8.50000000E-01  8.50000000E-01
  8.50000000E-01  8.00000000E-01  8.50000000E-01  8.50000000E-01  8.50000000E-01
  8.00000000E-01  8.50000000E-01  8.50000000E-01  8.50000000E-01  8.00000000E-01
  8.50000000E-01  8.50000000E-01  8.50000000E-01  8.00000000E-01  8.50000000E-01
  8.50000000E-01  8.50000000E-01  8.00000000E-01  8.50000000E-01  8.50000000E-01
  8.50000000E-01  8.00000000E-01  8.50000000E-01  8.50000000E-01  8.50000000E-01
  8.00000000E-01  8.50000000E-01  8.50000000E-01  8.50000000E-01  8.00000000E-01
  8.50000000E-01  8.50000000E-01  8.50000000E-01  8.00000000E-01  8.50000000E-01
  8.50000000E-01  8.50000000E-01  8.00000000E-01  8.50000000E-01  8.50000000E-01
  8.50000000E-01  8.00000000E-01  8.50000000E-01  8.50000000E-01  8.50000000E-01
  8.00000000E-01  8.50000000E-01  8.50000000E-01  8.50000000E-01  8.00000000E-01
  8.50000000E-01  8.50000000E-01  8.50000000E-01  8.00000000E-01  8.50000000E-01
  8.50000000E-01  8.50000000E-01  8.00000000E-01  8.50000000E-01  8.50000000E-01
  8.50000000E-01  8.00000000E-01  8.50000000E-01  8.50000000E-01  8.50000000E-01
  8.00000000E-01  8.50000000E-01  8.50000000E-01  8.50000000E-01  8.00000000E-01
  8.50000000E-01  8.50000000E-01  8.50000000E-01  8.00000000E-01  8.50000000E-01
  8.50000000E-01  8.50000000E-01  8.00000000E-01  8.50000000E-01  8.50000000E-01
  8.50000000E-01  8.00000000E-01  8.50000000E-01  8.50000000E-01  8.50000000E-01
  8.00000000E-01  8.50000000E-01  8.50000000E-01  8.50000000E-01  8.00000000E-01
  8.50000000E-01  8.50000000E-01  8.50000000E-01  8.00000000E-01  8.50000000E-01
  8.50000000E-01  8.50000000E-01  8.00000000E-01  8.50000000E-01  8.50000000E-01
  8.50000000E-01  8.00000000E-01  8.50000000E-01  8.50000000E-01  8.50000000E-01
  8.00000000E-01  8.50000000E-01  8.50000000E-01  8.50000000E-01  8.00000000E-01
  8.50000000E-01  8.50000000E-01  8.50000000E-01  8.00000000E-01  8.50000000E-01
  8.50000000E-01  8.50000000E-01  8.00000000E-01  8.50000000E-01  8.50000000E-01
  8.50000000E-01  8.00000000E-01  8.50000000E-01  8.50000000E-01  8.50000000E-01
  8.00000000E-01  8.50000000E-01  8.50000000E-01  8.50000000E-01  8.00000000E-01
  8.50000000E-01  8.50000000E-01  8.50000000E-01  8.00000000E-01  8.50000000E-01
  8.50000000E-01  8.50000000E-01  8.00000000E-01  8.50000000E-01  8.50000000E-01
  8.50000000E-01  8.00000000E-01  8.50000000E-01  8.50000000E-01  8.50000000E-01
  8.00000000E-01  8.50000000E-01  8.50000000E-01  8.50000000E-01  8.00000000E-01
  8.50000000E-01  8.50000000E-01  8.50000000E-01  8.00000000E-01  8.50000000E-01
  8.50000000E-01  8.50000000E-01  8.00000000E-01  8.50000000E-01  8.50000000E-01
  8.50000000E-01  8.00000000E-01  8.50000000E-01  8.50000000E-01  8.50000000E-01
  8.00000000E-01  8.50000000E-01  8.50000000E-01  8.50000000E-01  8.00000000E-01
  8.50000000E-01  8.50000000E-01  8.50000000E-01  8.00000000E-01  8.50000000E-01
  8.50000000E-01  8.50000000E-01  8.00000000E-01  8.50000000E-01  8.50000000E-01
  8.50000000E-01  8.00000000E-01  8.50000000E-01  8.50000000E-01  8.50000000E-01
  8.00000000E-01  8.50000000E-01  8.50000000E-01  8.50000000E-01  8.00000000E-01
  8.50000000E-01  8.50000000E-01  8.50000000E-01  8.00000000E-01  8.50000000E-01
  8.50000000E-01  8.50000000E-01  8.00000000E-01  8.50000000E-01  8.50000000E-01
  8.50000000E-01  8.00000000E-01  8.50000000E-01  8.50000000E-01  8.50000000E-01
  8.00000000E-01  8.50000000E-01  8.50000000E-01  8.50000000E-01  8.00000000E-01
  8.50000000E-01  8.50000000E-01  8.50000000E-01  8.00000000E-01  8.50000000E-01
  8.50000000E-01  8.50000000E-01  8.00000000E-01  8.50000000E-01  8.50000000E-01
  8.50000000E-01  8.00000000E-01  8.50000000E-01  8.50000000E-01  8.50000000E-01
  8.00000000E-01  8.50000000E-01  8.50000000E-01  8.50000000E-01  8.00000000E-01
  8.50000000E-01  8.50000000E-01  8.50000000E-01  8.00000000E-01  8.50000000E-01
  8.50000000E-01  8.50000000E-01  8.00000000E-01  8.50000000E-01  8.50000000E-01
  8.50000000E-01  8.00000000E-01  8.50000000E-01  8.50000000E-01  8.50000000E-01
  8.00000000E-01  8.50000000E-01  8.50000000E-01  8.50000000E-01  8.00000000E-01
  8.50000000E-01  8.50000000E-01  8.50000000E-01  8.00000000E-01  8.50000000E-01
  8.50000000E-01  8.50000000E-01  8.00000000E-01  8.50000000E-01  8.50000000E-01
  8.50000000E-01  8.00000000E-01  8.50000000E-01  8.50000000E-01  8.50000000E-01
  8.00000000E-01  8.50000000E-01  8.50000000E-01  8.50000000E-01  8.00000000E-01
  8.50000000E-01  8.50000000E-01  8.50000000E-01  8.00000000E-01  8.50000000E-01
  8.50000000E-01  8.50000000E-01  8.00000000E-01  8.50000000E-01  8.50000000E-01
  8.50000000E-01  8.00000000E-01  8.50000000E-01  8.50000000E-01  8.50000000E-01
  8.00000000E-01  8.50000000E-01  8.50000000E-01  8.50000000E-01  8.00000000E-01
  8.50000000E-01  8.50000000E-01  8.50000000E-01  8.00000000E-01  8.50000000E-01
  8.50000000E-01  8.50000000E-01  8.00000000E-01  8.50000000E-01  8.50000000E-01
  8.50000000E-01  8.00000000E-01  8.50000000E-01  8.50000000E-01  8.50000000E-01
  8.00000000E-01  8.50000000E-01  8.50000000E-01  8.50000000E-01  8.00000000E-01
  8.50000000E-01  8.50000000E-01  8.50000000E-01  8.00000000E-01  8.50000000E-01
  8.50000000E-01  8.50000000E-01  8.00000000E-01  8.50000000E-01  8.50000000E-01
  8.50000000E-01  8.00000000E-01  8.50000000E-01  8.50000000E-01  8.50000000E-01
  8.00000000E-01  8.50000000E-01  8.50000000E-01  8.50000000E-01  8.00000000E-01
  8.50000000E-01  8.50000000E-01  8.50000000E-01  8.00000000E-01  8.50000000E-01
  8.50000000E-01  8.50000000E-01  8.00000000E-01  8.50000000E-01  8.50000000E-01
  8.50000000E-01  8.00000000E-01  8.50000000E-01  8.50000000E-01  8.50000000E-01
  8.00000000E-01  8.50000000E-01  8.50000000E-01  8.50000000E-01  8.00000000E-01
  8.50000000E-01  8.50000000E-01  8.50000000E-01  8.00000000E-01  8.50000000E-01
  8.50000000E-01  8.50000000E-01  8.00000000E-01  8.50000000E-01  8.50000000E-01
  8.50000000E-01  8.00000000E-01  8.50000000E-01  8.50000000E-01  8.50000000E-01
  8.00000000E-01  8.50000000E-01  8.50000000E-01  8.50000000E-01  8.00000000E-01
  8.50000000E-01  8.50000000E-01  8.50000000E-01  8.00000000E-01  8.50000000E-01
  8.50000000E-01  8.50000000E-01  8.00000000E-01  8.50000000E-01  8.50000000E-01
  8.50000000E-01  8.00000000E-01  8.50000000E-01  8.50000000E-01  8.50000000E-01
  8.00000000E-01  8.50000000E-01  8.50000000E-01  8.50000000E-01  8.00000000E-01
  8.50000000E-01  8.50000000E-01  8.50000000E-01  8.00000000E-01  8.50000000E-01
  8.50000000E-01  8.50000000E-01  8.00000000E-01  8.50000000E-01  8.50000000E-01
  8.50000000E-01  8.00000000E-01  8.50000000E-01  8.50000000E-01  8.50000000E-01
  8.00000000E-01  8.50000000E-01  8.50000000E-01  8.50000000E-01  8.00000000E-01
  8.50000000E-01  8.50000000E-01  8.50000000E-01  8.00000000E-01  8.50000000E-01
  8.50000000E-01  8.50000000E-01  8.00000000E-01  8.50000000E-01  8.50000000E-01
  8.50000000E-01  8.00000000E-01  8.50000000E-01  8.50000000E-01  8.50000000E-01
  8.00000000E-01  8.50000000E-01  8.50000000E-01  8.50000000E-01  8.00000000E-01
  8.50000000E-01  8.50000000E-01  8.50000000E-01  8.00000000E-01  8.50000000E-01
  8.50000000E-01  8.50000000E-01  8.00000000E-01  8.50000000E-01  8.50000000E-01
  8.50000000E-01  8.00000000E-01  8.50000000E-01  8.50000000E-01  8.50000000E-01
  8.00000000E-01  8.50000000E-01  8.50000000E-01  8.50000000E-01  8.00000000E-01
  8.50000000E-01  8.50000000E-01  8.50000000E-01  8.00000000E-01  8.50000000E-01
  8.50000000E-01  8.50000000E-01  8.00000000E-01  8.50000000E-01  8.50000000E-01
  8.50000000E-01  8.00000000E-01  8.50000000E-01  8.50000000E-01  8.50000000E-01
  8.00000000E-01  8.50000000E-01  8.50000000E-01  8.50000000E-01  8.00000000E-01
  8.50000000E-01  8.50000000E-01  8.50000000E-01  8.00000000E-01  8.50000000E-01
  8.50000000E-01  8.50000000E-01  8.00000000E-01  8.50000000E-01  8.50000000E-01
  8.50000000E-01  8.00000000E-01  8.50000000E-01  8.50000000E-01  8.50000000E-01
  8.00000000E-01  8.50000000E-01  8.50000000E-01  8.50000000E-01  8.00000000E-01
  8.50000000E-01  8.50000000E-01  8.50000000E-01  8.00000000E-01  8.50000000E-01
  8.50000000E-01  8.50000000E-01  8.00000000E-01  8.50000000E-01  8.50000000E-01
  8.50000000E-01  8.00000000E-01  8.50000000E-01  8.50000000E-01  8.50000000E-01
  8.00000000E-01  8.50000000E-01  8.50000000E-01  8.50000000E-01  8.00000000E-01
  8.50000000E-01  8.50000000E-01  8.50000000E-01  8.00000000E-01  8.50000000E-01
  8.50000000E-01  8.50000000E-01  8.00000000E-01  8.50000000E-01  8.50000000E-01
  8.50000000E-01  8.00000000E-01  8.50000000E-01  8.50000000E-01  8.50000000E-01
  8.00000000E-01  8.50000000E-01  8.50000000E-01  8.50000000E-01  8.00000000E-01
  8.50000000E-01  8.50000000E-01  8.50000000E-01  8.00000000E-01  8.50000000E-01
  8.50000000E-01  8.50000000E-01  8.00000000E-01  8.50000000E-01  8.50000000E-01
  8.50000000E-01  8.00000000E-01  8.50000000E-01  8.50000000E-01  8.50000000E-01
  8.00000000E-01  8.50000000E-01  8.50000000E-01  8.50000000E-01  8.00000000E-01
  8.50000000E-01  8.50000000E-01  8.50000000E-01  8.00000000E-01  8.50000000E-01
  8.50000000E-01  8.50000000E-01  8.00000000E-01  8.50000000E-01  8.50000000E-01
  8.50000000E-01  8.00000000E-01  8.50000000E-01  8.50000000E-01  8.50000000E-01
  8.00000000E-01  8.50000000E-01  8.50000000E-01  8.50000000E-01  8.00000000E-01
  8.50000000E-01  8.50000000E-01  8.50000000E-01  8.00000000E-01  8.50000000E-01
  8.50000000E-01  8.50000000E-01  8.00000000E-01  8.50000000E-01  8.50000000E-01
  8.50000000E-01  8.00000000E-01  8.50000000E-01  8.50000000E-01  8.50000000E-01
  8.00000000E-01  8.50000000E-01  8.50000000E-01  8.50000000E-01  8.00000000E-01
  8.50000000E-01  8.50000000E-01  8.50000000E-01  8.00000000E-01  8.50000000E-01
  8.50000000E-01  8.50000000E-01  8.00000000E-01  8.50000000E-01  8.50000000E-01
  8.50000000E-01  8.00000000E-01  8.50000000E-01  8.50000000E-01  8.50000000E-01
  8.00000000E-01  8.50000000E-01  8.50000000E-01  8.50000000E-01  8.00000000E-01
  8.50000000E-01  8.50000000E-01  8.50000000E-01  8.00000000E-01  8.50000000E-01
  8.50000000E-01  8.50000000E-01  8.00000000E-01  8.50000000E-01  8.50000000E-01
  8.50000000E-01  8.00000000E-01  8.50000000E-01  8.50000000E-01  8.50000000E-01
  8.00000000E-01  8.50000000E-01  8.50000000E-01  8.50000000E-01  8.00000000E-01
  8.50000000E-01  8.50000000E-01  8.50000000E-01  8.00000000E-01  8.50000000E-01
  8.50000000E-01  8.50000000E-01  8.00000000E-01  8.50000000E-01  8.50000000E-01
  8.50000000E-01  8.00000000E-01  8.50000000E-01  8.50000000E-01  8.50000000E-01
  8.00000000E-01  8.50000000E-01  8.50000000E-01  8.50000000E-01  8.00000000E-01
  8.50000000E-01  8.50000000E-01  8.50000000E-01  8.00000000E-01  8.50000000E-01
  8.50000000E-01  8.50000000E-01  8.00000000E-01  8.50000000E-01  8.50000000E-01
  8.50000000E-01  8.00000000E-01  8.50000000E-01  8.50000000E-01  8.50000000E-01
  8.00000000E-01  8.50000000E-01  8.50000000E-01  8.50000000E-01  8.00000000E-01
  8.50000000E-01  8.50000000E-01  8.50000000E-01  8.00000000E-01  8.50000000E-01
  8.50000000E-01  8.50000000E-01  8.00000000E-01  8.50000000E-01  8.50000000E-01
  8.50000000E-01  8.00000000E-01  8.50000000E-01  8.50000000E-01  8.50000000E-01
  8.00000000E-01  8.50000000E-01  8.50000000E-01  8.50000000E-01  8.00000000E-01
  8.50000000E-01  8.50000000E-01  8.50000000E-01  8.00000000E-01  8.50000000E-01
  8.50000000E-01  8.50000000E-01  8.00000000E-01  8.50000000E-01  8.50000000E-01
  8.50000000E-01  8.00000000E-01  8.50000000E-01  8.50000000E-01  8.50000000E-01
  8.00000000E-01  8.50000000E-01  8.50000000E-01  8.50000000E-01  8.00000000E-01
  8.50000000E-01  8.50000000E-01  8.50000000E-01  8.00000000E-01  8.50000000E-01
  8.50000000E-01  8.50000000E-01  8.00000000E-01  8.50000000E-01  8.50000000E-01
  8.50000000E-01  8.00000000E-01  8.50000000E-01  8.50000000E-01  8.50000000E-01
  8.00000000E-01  8.50000000E-01  8.50000000E-01  8.50000000E-01  8.00000000E-01
  8.50000000E-01  8.50000000E-01  8.50000000E-01  8.00000000E-01  8.50000000E-01
  8.50000000E-01  8.50000000E-01  8.00000000E-01  8.50000000E-01  8.50000000E-01
  8.50000000E-01  8.00000000E-01  8.50000000E-01  8.50000000E-01  8.50000000E-01
  8.00000000E-01  8.50000000E-01  8.50000000E-01  8.50000000E-01  8.00000000E-01
  8.50000000E-01  8.50000000E-01  8.50000000E-01  8.00000000E-01  8.50000000E-01
  8.50000000E-01  8.50000000E-01  8.00000000E-01  8.50000000E-01  8.50000000E-01
  8.50000000E-01  8.00000000E-01  8.50000000E-01  8.50000000E-01  8.50000000E-01
  8.00000000E-01  8.50000000E-01  8.50000000E-01  8.50000000E-01  8.00000000E-01
  8.50000000E-01  8.50000000E-01  8.50000000E-01  8.00000000E-01  8.50000000E-01
  8.50000000E-01  8.50000000E-01  8.00000000E-01  8.50000000E-01  8.50000000E-01
  8.50000000E-01  8.00000000E-01  8.50000000E-01  8.50000000E-01  8.50000000E-01
  8.00000000E-01  8.50000000E-01  8.50000000E-01  8.50000000E-01  8.00000000E-01
  8.50000000E-01  8.50000000E-01  8.50000000E-01  8.00000000E-01  8.50000000E-01
  8.50000000E-01  8.50000000E-01  8.00000000E-01  8.50000000E-01  8.50000000E-01
  8.50000000E-01  8.00000000E-01  8.50000000E-01  8.50000000E-01  8.50000000E-01
  8.00000000E-01  8.50000000E-01  8.50000000E-01  8.50000000E-01  8.00000000E-01
  8.50000000E-01  8.50000000E-01  8.50000000E-01  8.00000000E-01  8.50000000E-01
  8.50000000E-01  8.50000000E-01  8.00000000E-01  8.50000000E-01  8.50000000E-01
  8.50000000E-01  8.00000000E-01  8.50000000E-01  8.50000000E-01  8.50000000E-01
  8.00000000E-01  8.50000000E-01  8.50000000E-01  8.50000000E-01  8.00000000E-01
  8.50000000E-01  8.50000000E-01  8.50000000E-01  8.00000000E-01  8.50000000E-01
  8.50000000E-01  8.50000000E-01  8.00000000E-01  8.50000000E-01  8.50000000E-01
  8.50000000E-01  8.00000000E-01  8.50000000E-01  8.50000000E-01  8.50000000E-01
  8.00000000E-01  8.50000000E-01  8.50000000E-01  8.50000000E-01  8.00000000E-01
  8.50000000E-01  8.50000000E-01  8.50000000E-01  8.00000000E-01  8.50000000E-01
  8.50000000E-01  8.50000000E-01  8.00000000E-01  8.50000000E-01  8.50000000E-01
  8.50000000E-01  8.00000000E-01  8.50000000E-01  8.50000000E-01  8.50000000E-01
  8.00000000E-01  8.50000000E-01  8.50000000E-01  8.50000000E-01  8.00000000E-01
  8.50000000E-01  8.50000000E-01  8.50000000E-01  8.00000000E-01  8.50000000E-01
  8.50000000E-01  8.50000000E-01  8.00000000E-01  8.50000000E-01  8.50000000E-01
  8.50000000E-01  8.00000000E-01  8.50000000E-01  8.50000000E-01  8.50000000E-01
  8.00000000E-01  8.50000000E-01  8.50000000E-01  8.50000000E-01  8.00000000E-01
  8.50000000E-01  8.50000000E-01  8.50000000E-01  8.00000000E-01  8.50000000E-01
  8.50000000E-01  8.50000000E-01  8.00000000E-01  8.50000000E-01  8.50000000E-01
  8.50000000E-01  8.00000000E-01  8.50000000E-01  8.50000000E-01  8.50000000E-01
  8.00000000E-01  8.50000000E-01  8.50000000E-01  8.50000000E-01  8.00000000E-01
  8.50000000E-01  8.50000000E-01  8.50000000E-01  8.00000000E-01  8.50000000E-01
  8.50000000E-01  8.50000000E-01  8.00000000E-01  8.50000000E-01  8.50000000E-01
  8.50000000E-01  8.00000000E-01  8.50000000E-01  8.50000000E-01  8.50000000E-01
  8.00000000E-01  8.50000000E-01  8.50000000E-01  8.50000000E-01  8.00000000E-01
  8.50000000E-01  8.50000000E-01  8.50000000E-01  8.00000000E-01  8.50000000E-01
  8.50000000E-01  8.50000000E-01  8.00000000E-01  8.50000000E-01  8.50000000E-01
  8.50000000E-01  8.00000000E-01  8.50000000E-01  8.50000000E-01  8.50000000E-01
  8.00000000E-01  8.50000000E-01  8.50000000E-01  8.50000000E-01  8.00000000E-01
  8.50000000E-01  8.50000000E-01  8.50000000E-01  8.00000000E-01  8.50000000E-01
  8.50000000E-01  8.50000000E-01  8.00000000E-01  8.50000000E-01  8.50000000E-01
  8.50000000E-01  8.00000000E-01  8.50000000E-01  8.50000000E-01  8.50000000E-01
  8.00000000E-01  8.50000000E-01  8.50000000E-01  8.50000000E-01  8.00000000E-01
  8.50000000E-01  8.50000000E-01  8.50000000E-01  8.00000000E-01  8.50000000E-01
  8.50000000E-01  8.50000000E-01  8.00000000E-01  8.50000000E-01  8.50000000E-01
  8.50000000E-01  8.00000000E-01  8.50000000E-01  8.50000000E-01  8.50000000E-01
  8.00000000E-01  8.50000000E-01  8.50000000E-01  8.50000000E-01  8.00000000E-01
  8.50000000E-01  8.50000000E-01  8.50000000E-01  8.00000000E-01  8.50000000E-01
  8.50000000E-01  8.50000000E-01  8.00000000E-01  8.50000000E-01  8.50000000E-01
  8.50000000E-01  8.00000000E-01  8.50000000E-01  8.50000000E-01  8.50000000E-01
  8.00000000E-01  8.50000000E-01  8.50000000E-01  8.50000000E-01  8.00000000E-01
  8.50000000E-01  8.50000000E-01  8.50000000E-01  8.00000000E-01  8.50000000E-01
  8.50000000E-01  8.50000000E-01  8.00000000E-01  8.50000000E-01  8.50000000E-01
  8.50000000E-01  8.00000000E-01  8.50000000E-01  8.50000000E-01  8.50000000E-01
  8.00000000E-01  8.50000000E-01  8.50000000E-01  8.50000000E-01  8.00000000E-01
  8.50000000E-01  8.50000000E-01  8.50000000E-01  8.00000000E-01  8.50000000E-01
  8.50000000E-01  8.50000000E-01  8.00000000E-01  8.50000000E-01  8.50000000E-01
  8.50000000E-01  8.00000000E-01  8.50000000E-01  8.50000000E-01  8.50000000E-01
  8.00000000E-01  8.50000000E-01  8.50000000E-01  8.50000000E-01  8.00000000E-01
  8.50000000E-01  8.50000000E-01  8.50000000E-01  8.00000000E-01  8.50000000E-01
  8.50000000E-01  8.50000000E-01  8.00000000E-01  8.50000000E-01  8.50000000E-01
  8.50000000E-01  8.00000000E-01  8.50000000E-01  8.50000000E-01  8.50000000E-01
  8.00000000E-01  8.50000000E-01  8.50000000E-01  8.50000000E-01  8.00000000E-01
  8.50000000E-01  8.50000000E-01  8.50000000E-01  8.00000000E-01  8.50000000E-01
  8.50000000E-01  8.50000000E-01  8.00000000E-01  8.50000000E-01  8.50000000E-01
  8.50000000E-01  8.00000000E-01  8.50000000E-01  8.50000000E-01  8.50000000E-01
  8.00000000E-01  8.50000000E-01  8.50000000E-01  8.50000000E-01  8.00000000E-01
  8.50000000E-01  8.50000000E-01  8.50000000E-01  8.00000000E-01  8.50000000E-01
  8.50000000E-01  8.50000000E-01  8.00000000E-01  8.50000000E-01  8.50000000E-01
  8.50000000E-01  8.00000000E-01  8.50000000E-01  8.50000000E-01  8.50000000E-01
  8.00000000E-01  8.50000000E-01  8.50000000E-01  8.50000000E-01  8.00000000E-01
  8.50000000E-01  8.50000000E-01  8.50000000E-01  8.00000000E-01  8.50000000E-01
  8.50000000E-01  8.50000000E-01  8.00000000E-01  8.50000000E-01  8.50000000E-01
  8.50000000E-01  8.00000000E-01  8.50000000E-01  8.50000000E-01  8.50000000E-01
  8.00000000E-01  8.50000000E-01  8.50000000E-01  8.50000000E-01  8.00000000E-01
  8.50000000E-01  8.50000000E-01  8.50000000E-01  8.00000000E-01  8.50000000E-01
  8.50000000E-01  8.50000000E-01  8.00000000E-01  8.50000000E-01  8.50000000E-01
  8.50000000E-01  8.00000000E-01  8.50000000E-01  8.50000000E-01  8.50000000E-01
  8.00000000E-01  8.50000000E-01  8.50000000E-01  8.50000000E-01  8.00000000E-01
  8.50000000E-01  8.50000000E-01  8.50000000E-01  8.00000000E-01  8.50000000E-01
  8.50000000E-01  8.50000000E-01  8.00000000E-01  8.50000000E-01  8.50000000E-01
  8.50000000E-01  8.00000000E-01  8.50000000E-01  8.50000000E-01  8.50000000E-01
  8.00000000E-01  8.50000000E-01  8.50000000E-01  8.50000000E-01  8.00000000E-01
  8.50000000E-01  8.50000000E-01  8.50000000E-01  8.00000000E-01  8.50000000E-01
  8.50000000E-01  8.50000000E-01  8.00000000E-01  8.50000000E-01  8.50000000E-01
  8.50000000E-01  8.00000000E-01  8.50000000E-01  8.50000000E-01  8.50000000E-01
  8.00000000E-01  8.50000000E-01  8.50000000E-01  8.50000000E-01  8.00000000E-01
  8.50000000E-01  8.50000000E-01  8.50000000E-01  8.00000000E-01  8.50000000E-01
  8.50000000E-01  8.50000000E-01  8.00000000E-01  8.50000000E-01  8.50000000E-01
  8.50000000E-01  8.00000000E-01  8.50000000E-01  8.50000000E-01  8.50000000E-01
  8.00000000E-01  8.50000000E-01  8.50000000E-01  8.50000000E-01  8.00000000E-01
  8.50000000E-01  8.50000000E-01  8.50000000E-01  8.00000000E-01  8.50000000E-01
  8.50000000E-01  8.50000000E-01  8.00000000E-01  8.50000000E-01  8.50000000E-01
  8.50000000E-01  8.00000000E-01  8.50000000E-01  8.50000000E-01  8.50000000E-01
  8.00000000E-01  8.50000000E-01  8.50000000E-01  8.50000000E-01  8.00000000E-01
  8.50000000E-01  8.50000000E-01  8.50000000E-01  8.00000000E-01  8.50000000E-01
  8.50000000E-01  8.50000000E-01  8.00000000E-01  8.50000000E-01  8.50000000E-01
  8.50000000E-01  8.00000000E-01  8.50000000E-01  8.50000000E-01  8.50000000E-01
  8.00000000E-01  8.50000000E-01  8.50000000E-01  8.50000000E-01  8.00000000E-01
  8.50000000E-01  8.50000000E-01  8.50000000E-01  8.00000000E-01  8.50000000E-01
  8.50000000E-01  8.50000000E-01  8.00000000E-01  8.50000000E-01  8.50000000E-01
  8.50000000E-01  8.00000000E-01  8.50000000E-01  8.50000000E-01  8.50000000E-01
  8.00000000E-01  8.50000000E-01  8.50000000E-01  8.50000000E-01  8.00000000E-01
  8.50000000E-01  8.50000000E-01  8.50000000E-01  8.00000000E-01  8.50000000E-01
  8.50000000E-01  8.50000000E-01  8.00000000E-01  8.50000000E-01  8.50000000E-01
  8.50000000E-01  8.00000000E-01  8.50000000E-01  8.50000000E-01  8.50000000E-01
  8.00000000E-01  8.50000000E-01  8.50000000E-01  8.50000000E-01  8.00000000E-01
  8.50000000E-01  8.50000000E-01  8.50000000E-01  8.00000000E-01  8.50000000E-01
  8.50000000E-01  8.50000000E-01  8.00000000E-01  8.50000000E-01  8.50000000E-01
  8.50000000E-01  8.00000000E-01  8.50000000E-01  8.50000000E-01  8.50000000E-01
  8.00000000E-01  8.50000000E-01  8.50000000E-01  8.50000000E-01  8.00000000E-01
  8.50000000E-01  8.50000000E-01  8.50000000E-01  8.00000000E-01  8.50000000E-01
  8.50000000E-01  8.50000000E-01  8.00000000E-01  8.50000000E-01  8.50000000E-01
  8.50000000E-01  8.00000000E-01  8.50000000E-01  8.50000000E-01  8.50000000E-01
  8.00000000E-01  8.50000000E-01  8.50000000E-01  8.50000000E-01  8.00000000E-01
  8.50000000E-01  8.50000000E-01  8.50000000E-01  8.00000000E-01  8.50000000E-01
  8.50000000E-01  8.50000000E-01  8.00000000E-01  8.50000000E-01  8.50000000E-01
  8.50000000E-01  8.00000000E-01  8.50000000E-01  8.50000000E-01  8.50000000E-01
  8.00000000E-01  8.50000000E-01  8.50000000E-01  8.50000000E-01  8.00000000E-01
  8.50000000E-01  8.50000000E-01  8.50000000E-01  8.00000000E-01  8.50000000E-01
  8.50000000E-01  8.50000000E-01  8.00000000E-01  8.50000000E-01  8.50000000E-01
  8.50000000E-01  8.00000000E-01  8.50000000E-01  8.50000000E-01  8.50000000E-01
  8.00000000E-01  8.50000000E-01  8.50000000E-01  8.50000000E-01  8.00000000E-01
  8.50000000E-01  8.50000000E-01  8.50000000E-01  8.00000000E-01  8.50000000E-01
  8.50000000E-01  8.50000000E-01  8.00000000E-01  8.50000000E-01  8.50000000E-01
  8.50000000E-01  8.00000000E-01  8.50000000E-01  8.50000000E-01  8.50000000E-01
  8.00000000E-01  8.50000000E-01  8.50000000E-01  8.50000000E-01  8.00000000E-01
  8.50000000E-01  8.50000000E-01  8.50000000E-01  8.00000000E-01  8.50000000E-01
  8.50000000E-01  8.50000000E-01  8.00000000E-01  8.50000000E-01  8.50000000E-01
  8.50000000E-01  8.00000000E-01  8.50000000E-01  8.50000000E-01  8.50000000E-01
  8.00000000E-01  8.50000000E-01  8.50000000E-01  8.50000000E-01  8.00000000E-01
  8.50000000E-01  8.50000000E-01  8.50000000E-01  8.00000000E-01  8.50000000E-01
  8.50000000E-01  8.50000000E-01  8.00000000E-01  8.50000000E-01  8.50000000E-01
  8.50000000E-01  8.00000000E-01  8.50000000E-01  8.50000000E-01  8.50000000E-01
  8.00000000E-01  8.50000000E-01  8.50000000E-01  8.50000000E-01  8.00000000E-01
  8.50000000E-01  8.50000000E-01  8.50000000E-01  8.00000000E-01  8.50000000E-01
  8.50000000E-01  8.50000000E-01  8.00000000E-01  8.50000000E-01  8.50000000E-01
  8.50000000E-01  8.00000000E-01  8.50000000E-01  8.50000000E-01  8.50000000E-01
  8.00000000E-01  8.50000000E-01  8.50000000E-01  8.50000000E-01  8.00000000E-01
  8.50000000E-01  8.50000000E-01  8.50000000E-01  8.00000000E-01  8.50000000E-01
  8.50000000E-01  8.50000000E-01  8.00000000E-01  8.50000000E-01  8.50000000E-01
  8.50000000E-01  8.00000000E-01  8.50000000E-01  8.50000000E-01  8.50000000E-01
  8.00000000E-01  8.50000000E-01  8.50000000E-01  8.50000000E-01  8.00000000E-01
  8.50000000E-01  8.50000000E-01  8.50000000E-01  8.00000000E-01  8.50000000E-01
  8.50000000E-01  8.50000000E-01  8.00000000E-01  8.50000000E-01  8.50000000E-01
  8.50000000E-01  8.00000000E-01  8.50000000E-01  8.50000000E-01  8.50000000E-01
  8.00000000E-01  8.50000000E-01  8.50000000E-01  8.50000000E-01  8.00000000E-01
  8.50000000E-01  8.50000000E-01  8.50000000E-01  8.00000000E-01  8.50000000E-01
  8.50000000E-01  8.50000000E-01  8.00000000E-01  8.50000000E-01  8.50000000E-01
  8.50000000E-01  8.00000000E-01  8.50000000E-01  8.50000000E-01  8.50000000E-01
  8.00000000E-01  8.50000000E-01  8.50000000E-01  8.50000000E-01  8.00000000E-01
  8.50000000E-01  8.50000000E-01  8.50000000E-01  8.00000000E-01  8.50000000E-01
  8.50000000E-01  8.50000000E-01  8.00000000E-01  8.50000000E-01  8.50000000E-01
  8.50000000E-01  8.00000000E-01  8.50000000E-01  8.50000000E-01  8.50000000E-01
  8.00000000E-01  8.50000000E-01  8.50000000E-01  8.50000000E-01  8.00000000E-01
  8.50000000E-01  8.50000000E-01  8.50000000E-01  8.00000000E-01  8.50000000E-01
  8.50000000E-01  8.50000000E-01  8.00000000E-01  8.50000000E-01  8.50000000E-01
  8.50000000E-01  8.00000000E-01  8.50000000E-01  8.50000000E-01  8.50000000E-01
  8.00000000E-01  8.50000000E-01  8.50000000E-01  8.50000000E-01  8.00000000E-01
  8.50000000E-01  8.50000000E-01  8.50000000E-01  8.00000000E-01  8.50000000E-01
  8.50000000E-01  8.50000000E-01  8.00000000E-01  8.50000000E-01  8.50000000E-01
  8.50000000E-01  8.00000000E-01  8.50000000E-01  8.50000000E-01  8.50000000E-01
  8.00000000E-01  8.50000000E-01  8.50000000E-01  8.50000000E-01  8.00000000E-01
  8.50000000E-01  8.50000000E-01  8.50000000E-01  8.00000000E-01  8.50000000E-01
  8.50000000E-01  8.50000000E-01  8.00000000E-01  8.50000000E-01  8.50000000E-01
  8.50000000E-01  8.00000000E-01  8.50000000E-01  8.50000000E-01  8.50000000E-01
  8.00000000E-01  8.50000000E-01  8.50000000E-01  8.50000000E-01  8.00000000E-01
  8.50000000E-01  8.50000000E-01  8.50000000E-01  8.00000000E-01  8.50000000E-01
  8.50000000E-01  8.50000000E-01  8.00000000E-01  8.50000000E-01  8.50000000E-01
  8.50000000E-01  8.00000000E-01  8.50000000E-01  8.50000000E-01  8.50000000E-01
  8.00000000E-01  8.50000000E-01  8.50000000E-01  8.50000000E-01  8.00000000E-01
  8.50000000E-01  8.50000000E-01  8.50000000E-01  8.00000000E-01  8.50000000E-01
  8.50000000E-01  8.50000000E-01  8.00000000E-01  8.50000000E-01  8.50000000E-01
  8.50000000E-01  8.00000000E-01  8.50000000E-01  8.50000000E-01  8.50000000E-01
  8.00000000E-01  8.50000000E-01  8.50000000E-01  8.50000000E-01  8.00000000E-01
  8.50000000E-01  8.50000000E-01  8.50000000E-01  8.00000000E-01  8.50000000E-01
  8.50000000E-01  8.50000000E-01  8.00000000E-01  8.50000000E-01  8.50000000E-01
  8.50000000E-01  8.00000000E-01  8.50000000E-01  8.50000000E-01  8.50000000E-01
  8.00000000E-01  8.50000000E-01  8.50000000E-01  8.50000000E-01  8.00000000E-01
  8.50000000E-01  8.50000000E-01  8.50000000E-01  8.00000000E-01  8.50000000E-01
  8.50000000E-01  8.50000000E-01  8.00000000E-01  8.50000000E-01  8.50000000E-01
  8.50000000E-01  8.00000000E-01  8.50000000E-01  8.50000000E-01  8.50000000E-01
  8.00000000E-01  8.50000000E-01  8.50000000E-01  8.50000000E-01  8.00000000E-01
  8.50000000E-01  8.50000000E-01  8.50000000E-01  8.00000000E-01  8.50000000E-01
  8.50000000E-01  8.50000000E-01  8.00000000E-01  8.50000000E-01  8.50000000E-01
  8.50000000E-01  8.00000000E-01  8.50000000E-01  8.50000000E-01  8.50000000E-01
  8.00000000E-01  8.50000000E-01  8.50000000E-01  8.50000000E-01  8.00000000E-01
  8.50000000E-01  8.50000000E-01  8.50000000E-01  8.00000000E-01  8.50000000E-01
  8.50000000E-01  8.50000000E-01  8.00000000E-01  8.50000000E-01  8.50000000E-01
  8.50000000E-01  8.00000000E-01  8.50000000E-01  8.50000000E-01  8.50000000E-01
  8.00000000E-01  8.50000000E-01  8.50000000E-01  8.50000000E-01  8.00000000E-01
  8.50000000E-01  8.50000000E-01  8.50000000E-01  8.00000000E-01  8.50000000E-01
  8.50000000E-01  8.50000000E-01  8.00000000E-01  8.50000000E-01  8.50000000E-01
  8.50000000E-01  8.00000000E-01  8.50000000E-01  8.50000000E-01  8.50000000E-01
  8.00000000E-01  8.50000000E-01  8.50000000E-01  8.50000000E-01  8.00000000E-01
  8.50000000E-01  8.50000000E-01  8.50000000E-01  8.00000000E-01  8.50000000E-01
  8.50000000E-01  8.50000000E-01  8.00000000E-01  8.50000000E-01  8.50000000E-01
  8.50000000E-01  8.00000000E-01  8.50000000E-01  8.50000000E-01  8.50000000E-01
  8.00000000E-01  8.50000000E-01  8.50000000E-01  8.50000000E-01  8.00000000E-01
  8.50000000E-01  8.50000000E-01  8.50000000E-01  8.00000000E-01  8.50000000E-01
  8.50000000E-01  8.50000000E-01  8.00000000E-01  8.50000000E-01  8.50000000E-01
  8.50000000E-01  8.00000000E-01  8.50000000E-01  8.50000000E-01  8.50000000E-01
  8.00000000E-01  8.50000000E-01  8.50000000E-01  8.50000000E-01  8.00000000E-01
  8.50000000E-01  8.50000000E-01  8.50000000E-01  8.00000000E-01  8.50000000E-01
  8.50000000E-01  8.50000000E-01  8.00000000E-01  8.50000000E-01  8.50000000E-01
  8.50000000E-01  8.00000000E-01  8.50000000E-01  8.50000000E-01  8.50000000E-01
  8.00000000E-01  8.50000000E-01  8.50000000E-01  8.50000000E-01  8.00000000E-01
  8.50000000E-01  8.50000000E-01  8.50000000E-01  8.00000000E-01  8.50000000E-01
  8.50000000E-01  8.50000000E-01  8.00000000E-01  8.50000000E-01  8.50000000E-01
  8.50000000E-01  8.00000000E-01  8.50000000E-01  8.50000000E-01  8.50000000E-01
  8.00000000E-01  8.50000000E-01  8.50000000E-01  8.50000000E-01  8.00000000E-01
  8.50000000E-01  8.50000000E-01  8.50000000E-01  8.00000000E-01  8.50000000E-01
  8.50000000E-01  8.50000000E-01  8.00000000E-01  8.50000000E-01  8.50000000E-01
  8.50000000E-01  8.00000000E-01  8.50000000E-01  8.50000000E-01  8.50000000E-01
  8.00000000E-01  8.50000000E-01  8.50000000E-01  8.50000000E-01  8.00000000E-01
  8.50000000E-01  8.50000000E-01  8.50000000E-01  8.00000000E-01  8.50000000E-01
  8.50000000E-01  8.50000000E-01  8.00000000E-01  8.50000000E-01  8.50000000E-01
  8.50000000E-01  8.00000000E-01  8.50000000E-01  8.50000000E-01  8.50000000E-01
  8.00000000E-01  8.50000000E-01  8.50000000E-01  8.50000000E-01  8.00000000E-01
  8.50000000E-01  8.50000000E-01  8.50000000E-01  8.00000000E-01  8.50000000E-01
  8.50000000E-01  8.50000000E-01  8.00000000E-01  8.50000000E-01  8.50000000E-01
  8.50000000E-01  8.00000000E-01  8.50000000E-01  8.50000000E-01  8.50000000E-01
  8.00000000E-01  8.50000000E-01  8.50000000E-01  8.50000000E-01  8.00000000E-01
  8.50000000E-01  8.50000000E-01  8.50000000E-01  8.00000000E-01  8.50000000E-01
  8.50000000E-01  8.50000000E-01  8.00000000E-01  8.50000000E-01  8.50000000E-01
  8.50000000E-01  8.00000000E-01  8.50000000E-01  8.50000000E-01  8.50000000E-01
  8.00000000E-01  8.50000000E-01  8.50000000E-01  8.50000000E-01  8.00000000E-01
  8.50000000E-01  8.50000000E-01  8.50000000E-01  8.00000000E-01  8.50000000E-01
  8.50000000E-01  8.50000000E-01  8.00000000E-01  8.50000000E-01  8.50000000E-01
  8.50000000E-01  8.00000000E-01  8.50000000E-01  8.50000000E-01  8.50000000E-01
  8.00000000E-01  8.50000000E-01  8.50000000E-01  8.50000000E-01  8.00000000E-01
  8.50000000E-01  8.50000000E-01  8.50000000E-01  8.00000000E-01  8.50000000E-01
  8.50000000E-01  8.50000000E-01  8.00000000E-01  8.50000000E-01  8.50000000E-01
  8.50000000E-01  8.00000000E-01  8.50000000E-01  8.50000000E-01  8.50000000E-01
  8.00000000E-01  8.50000000E-01  8.50000000E-01  8.50000000E-01  8.00000000E-01
  8.50000000E-01  8.50000000E-01  8.50000000E-01  8.00000000E-01  8.50000000E-01
  8.50000000E-01  8.50000000E-01  8.00000000E-01  8.50000000E-01  8.50000000E-01
  8.50000000E-01  8.00000000E-01  8.50000000E-01  8.50000000E-01  8.50000000E-01
  8.00000000E-01  8.50000000E-01  8.50000000E-01  8.50000000E-01  8.00000000E-01
  8.50000000E-01  8.50000000E-01  8.50000000E-01  8.00000000E-01  8.50000000E-01
  8.50000000E-01  8.50000000E-01  8.00000000E-01  8.50000000E-01  8.50000000E-01
  8.50000000E-01  8.00000000E-01  8.50000000E-01  8.50000000E-01  8.50000000E-01
  8.00000000E-01  8.50000000E-01  8.50000000E-01  8.50000000E-01  8.00000000E-01
  8.50000000E-01  8.50000000E-01  8.50000000E-01  8.00000000E-01  8.50000000E-01
  8.50000000E-01  8.50000000E-01  8.00000000E-01  8.50000000E-01  8.50000000E-01
  8.50000000E-01  8.00000000E-01  8.50000000E-01  8.50000000E-01  8.50000000E-01
  8.00000000E-01  8.50000000E-01  8.50000000E-01  8.50000000E-01  8.00000000E-01
  8.50000000E-01  8.50000000E-01  8.50000000E-01  8.00000000E-01  8.50000000E-01
  8.50000000E-01  8.50000000E-01  8.00000000E-01  8.50000000E-01  8.50000000E-01
  8.50000000E-01  8.00000000E-01  8.50000000E-01  8.50000000E-01  8.50000000E-01
  8.00000000E-01  8.50000000E-01  8.50000000E-01  8.50000000E-01  8.00000000E-01
  8.50000000E-01  8.50000000E-01  8.50000000E-01  8.00000000E-01  8.50000000E-01
  8.50000000E-01  8.50000000E-01  8.00000000E-01  8.50000000E-01  8.50000000E-01
  8.50000000E-01  8.00000000E-01  8.50000000E-01  8.50000000E-01  8.50000000E-01
  8.00000000E-01  8.50000000E-01  8.50000000E-01  8.50000000E-01  8.00000000E-01
  8.50000000E-01  8.50000000E-01  8.50000000E-01  8.00000000E-01  8.50000000E-01
  8.50000000E-01  8.50000000E-01  8.00000000E-01  8.50000000E-01  8.50000000E-01
  8.50000000E-01  8.00000000E-01  8.50000000E-01  8.50000000E-01  8.50000000E-01
  8.00000000E-01  8.50000000E-01  8.50000000E-01  8.50000000E-01  8.00000000E-01
  8.50000000E-01  8.50000000E-01  8.50000000E-01  8.00000000E-01  8.50000000E-01
  8.50000000E-01  8.50000000E-01  8.00000000E-01  8.50000000E-01  8.50000000E-01
  8.50000000E-01  8.00000000E-01  8.50000000E-01  8.50000000E-01  8.50000000E-01
  8.00000000E-01  8.50000000E-01  8.50000000E-01  8.50000000E-01  8.00000000E-01
  8.50000000E-01  8.50000000E-01  8.50000000E-01  8.00000000E-01  8.50000000E-01
  8.50000000E-01  8.50000000E-01  8.00000000E-01  8.50000000E-01  8.50000000E-01
  8.50000000E-01  8.00000000E-01  8.50000000E-01  8.50000000E-01  8.50000000E-01
  8.00000000E-01  8.50000000E-01  8.50000000E-01  8.50000000E-01  8.00000000E-01
  8.50000000E-01  8.50000000E-01  8.50000000E-01  8.00000000E-01  8.50000000E-01
  8.50000000E-01  8.50000000E-01  8.00000000E-01  8.50000000E-01  8.50000000E-01
  8.50000000E-01  8.00000000E-01  8.50000000E-01  8.50000000E-01  8.50000000E-01
  8.00000000E-01  8.50000000E-01  8.50000000E-01  8.50000000E-01  8.00000000E-01
  8.50000000E-01  8.50000000E-01  8.50000000E-01  8.00000000E-01  8.50000000E-01
  8.50000000E-01  8.50000000E-01  8.00000000E-01  8.50000000E-01  8.50000000E-01
  8.50000000E-01  8.00000000E-01  8.50000000E-01  8.50000000E-01  8.50000000E-01
  8.00000000E-01  8.50000000E-01  8.50000000E-01  8.50000000E-01  8.00000000E-01
  8.50000000E-01  8.50000000E-01  8.50000000E-01  8.00000000E-01  8.50000000E-01
  8.50000000E-01  8.50000000E-01  8.00000000E-01  8.50000000E-01  8.50000000E-01
  8.50000000E-01  8.00000000E-01  8.50000000E-01  8.50000000E-01  8.50000000E-01
  8.00000000E-01  8.50000000E-01  8.50000000E-01  8.50000000E-01  8.00000000E-01
  8.50000000E-01  8.50000000E-01  8.50000000E-01  8.00000000E-01  8.50000000E-01
  8.50000000E-01  8.50000000E-01  8.00000000E-01  8.50000000E-01  8.50000000E-01
  8.50000000E-01  8.00000000E-01  8.50000000E-01  8.50000000E-01  8.50000000E-01
  8.00000000E-01  8.50000000E-01  8.50000000E-01  8.50000000E-01  8.00000000E-01
  8.50000000E-01  8.50000000E-01  8.50000000E-01  8.00000000E-01  8.50000000E-01
  8.50000000E-01  8.50000000E-01  8.00000000E-01  8.50000000E-01  8.50000000E-01
  8.50000000E-01  8.00000000E-01  8.50000000E-01  8.50000000E-01  8.50000000E-01
  8.00000000E-01  8.50000000E-01  8.50000000E-01  8.50000000E-01  8.00000000E-01
  8.50000000E-01  8.50000000E-01  8.50000000E-01  8.00000000E-01  8.50000000E-01
  8.50000000E-01  8.50000000E-01  8.00000000E-01  8.50000000E-01  8.50000000E-01
  8.50000000E-01  8.00000000E-01  8.50000000E-01  8.50000000E-01  8.50000000E-01
  8.00000000E-01  8.50000000E-01  8.50000000E-01  8.50000000E-01  8.00000000E-01
  8.50000000E-01  8.50000000E-01  8.50000000E-01  8.00000000E-01  8.50000000E-01
  8.50000000E-01  8.50000000E-01  8.00000000E-01  8.50000000E-01  8.50000000E-01
  8.50000000E-01  8.00000000E-01  8.50000000E-01  8.50000000E-01  8.50000000E-01
  8.00000000E-01  8.50000000E-01  8.50000000E-01  8.50000000E-01  8.00000000E-01
  8.50000000E-01  8.50000000E-01  8.50000000E-01  8.00000000E-01  8.50000000E-01
  8.50000000E-01  8.50000000E-01  8.00000000E-01  8.50000000E-01  8.50000000E-01
  8.50000000E-01  8.00000000E-01  8.50000000E-01  8.50000000E-01  8.50000000E-01
  8.00000000E-01  8.50000000E-01  8.50000000E-01  8.50000000E-01  8.00000000E-01
  8.50000000E-01  8.50000000E-01  8.50000000E-01  8.00000000E-01  8.50000000E-01
  8.50000000E-01  8.50000000E-01  8.00000000E-01  8.50000000E-01  8.50000000E-01
  8.50000000E-01  8.00000000E-01  8.50000000E-01  8.50000000E-01  8.50000000E-01
  8.00000000E-01  8.50000000E-01  8.50000000E-01  8.50000000E-01  8.00000000E-01
  8.50000000E-01  8.50000000E-01  8.50000000E-01  8.00000000E-01  8.50000000E-01
  8.50000000E-01  8.50000000E-01  8.00000000E-01  8.50000000E-01  8.50000000E-01
  8.50000000E-01  8.00000000E-01  8.50000000E-01  8.50000000E-01  8.50000000E-01
  8.00000000E-01  8.50000000E-01  8.50000000E-01  8.50000000E-01  8.00000000E-01
  8.50000000E-01  8.50000000E-01  8.50000000E-01  8.00000000E-01  8.50000000E-01
  8.50000000E-01  8.50000000E-01  8.00000000E-01  8.50000000E-01  8.50000000E-01
  8.50000000E-01  8.00000000E-01  8.50000000E-01  8.50000000E-01  8.50000000E-01
  8.00000000E-01  8.50000000E-01  8.50000000E-01  8.50000000E-01  8.00000000E-01
  8.50000000E-01  8.50000000E-01  8.50000000E-01  8.00000000E-01  8.50000000E-01
  8.50000000E-01  8.50000000E-01  8.00000000E-01  8.50000000E-01  8.50000000E-01
  8.50000000E-01  8.00000000E-01  8.50000000E-01  8.50000000E-01  8.50000000E-01
  8.00000000E-01  8.50000000E-01  8.50000000E-01  8.50000000E-01  8.00000000E-01
  8.50000000E-01  8.50000000E-01  8.50000000E-01  8.00000000E-01  8.50000000E-01
  8.50000000E-01  8.50000000E-01  8.00000000E-01  8.50000000E-01  8.50000000E-01
  8.50000000E-01  8.00000000E-01  8.50000000E-01  8.50000000E-01  8.50000000E-01
  8.00000000E-01  8.50000000E-01  8.50000000E-01  8.50000000E-01  8.00000000E-01
  8.50000000E-01  8.50000000E-01  8.50000000E-01  8.00000000E-01  8.50000000E-01
  8.50000000E-01  8.50000000E-01  8.00000000E-01  8.50000000E-01  8.50000000E-01
  8.50000000E-01  8.00000000E-01  8.50000000E-01  8.50000000E-01  8.50000000E-01
  8.00000000E-01  8.50000000E-01  8.50000000E-01  8.50000000E-01  8.00000000E-01
  8.50000000E-01  8.50000000E-01  8.50000000E-01  8.00000000E-01  8.50000000E-01
  8.50000000E-01  8.50000000E-01  8.00000000E-01  8.50000000E-01  8.50000000E-01
  8.50000000E-01  8.00000000E-01  8.50000000E-01  8.50000000E-01  8.50000000E-01
  8.00000000E-01  8.50000000E-01  8.50000000E-01  8.50000000E-01  8.00000000E-01
  8.50000000E-01  8.50000000E-01  8.50000000E-01  8.00000000E-01  8.50000000E-01
  8.50000000E-01  8.50000000E-01  8.00000000E-01  8.50000000E-01  8.50000000E-01
  8.50000000E-01  8.00000000E-01  8.50000000E-01  8.50000000E-01  8.50000000E-01
  8.00000000E-01  8.50000000E-01  8.50000000E-01  8.50000000E-01  8.00000000E-01
  8.50000000E-01  8.50000000E-01  8.50000000E-01  8.00000000E-01  8.50000000E-01
  8.50000000E-01  8.50000000E-01  8.00000000E-01  8.50000000E-01  8.50000000E-01
  8.50000000E-01  8.00000000E-01  8.50000000E-01  8.50000000E-01  8.50000000E-01
  8.00000000E-01  8.50000000E-01  8.50000000E-01  8.50000000E-01  8.00000000E-01
  8.50000000E-01  8.50000000E-01  8.50000000E-01  8.00000000E-01  8.50000000E-01
  8.50000000E-01  8.50000000E-01  8.00000000E-01  8.50000000E-01  8.50000000E-01
  8.50000000E-01  8.00000000E-01  8.50000000E-01  8.50000000E-01  8.50000000E-01
  8.00000000E-01  8.50000000E-01  8.50000000E-01  8.50000000E-01  8.00000000E-01
  8.50000000E-01  8.50000000E-01  8.50000000E-01  8.00000000E-01  8.50000000E-01
  8.50000000E-01  8.50000000E-01  8.00000000E-01  8.50000000E-01  8.50000000E-01
  8.50000000E-01  8.00000000E-01  8.50000000E-01  8.50000000E-01  8.50000000E-01
  8.00000000E-01  8.50000000E-01  8.50000000E-01  8.50000000E-01  8.00000000E-01
  8.50000000E-01  8.50000000E-01  8.50000000E-01  8.00000000E-01  8.50000000E-01
  8.50000000E-01  8.50000000E-01  8.00000000E-01  8.50000000E-01  8.50000000E-01
  8.50000000E-01  8.00000000E-01  8.50000000E-01  8.50000000E-01  8.50000000E-01
  8.00000000E-01  8.50000000E-01  8.50000000E-01  8.50000000E-01  8.00000000E-01
  8.50000000E-01  8.50000000E-01  8.50000000E-01  8.00000000E-01  8.50000000E-01
  8.50000000E-01  8.50000000E-01  8.00000000E-01  8.50000000E-01  8.50000000E-01
  8.50000000E-01  8.00000000E-01  8.50000000E-01  8.50000000E-01  8.50000000E-01
  8.00000000E-01  8.50000000E-01  8.50000000E-01  8.50000000E-01  8.00000000E-01
  8.50000000E-01  8.50000000E-01  8.50000000E-01  8.00000000E-01  8.50000000E-01
  8.50000000E-01  8.50000000E-01  8.00000000E-01  8.50000000E-01  8.50000000E-01
  8.50000000E-01  8.00000000E-01  8.50000000E-01  8.50000000E-01  8.50000000E-01
  8.00000000E-01  8.50000000E-01  8.50000000E-01  8.50000000E-01  8.00000000E-01
  8.50000000E-01  8.50000000E-01  8.50000000E-01  8.00000000E-01  8.50000000E-01
  8.50000000E-01  8.50000000E-01  8.00000000E-01  8.50000000E-01  8.50000000E-01
  8.50000000E-01  8.00000000E-01  8.50000000E-01  8.50000000E-01  8.50000000E-01
  8.00000000E-01  8.50000000E-01  8.50000000E-01  8.50000000E-01  8.00000000E-01
  8.50000000E-01  8.50000000E-01  8.50000000E-01  8.00000000E-01  8.50000000E-01
  8.50000000E-01  8.50000000E-01  8.00000000E-01  8.50000000E-01  8.50000000E-01
  8.50000000E-01  8.00000000E-01  8.50000000E-01  8.50000000E-01  8.50000000E-01
  8.00000000E-01  8.50000000E-01  8.50000000E-01  8.50000000E-01  8.00000000E-01
  8.50000000E-01  8.50000000E-01  8.50000000E-01  8.00000000E-01  8.50000000E-01
  8.50000000E-01  8.50000000E-01  8.00000000E-01  8.50000000E-01  8.50000000E-01
  8.50000000E-01  8.00000000E-01  8.50000000E-01  8.50000000E-01  8.50000000E-01
  8.00000000E-01  8.50000000E-01  8.50000000E-01  8.50000000E-01  8.00000000E-01
  8.50000000E-01  8.50000000E-01  8.50000000E-01  8.00000000E-01  8.50000000E-01
  8.50000000E-01  8.50000000E-01  8.00000000E-01  8.50000000E-01  8.50000000E-01
  8.50000000E-01  8.00000000E-01  8.50000000E-01  8.50000000E-01  8.50000000E-01
  8.00000000E-01  8.50000000E-01  8.50000000E-01  8.50000000E-01  8.00000000E-01
  8.50000000E-01  8.50000000E-01  8.50000000E-01  8.00000000E-01  8.50000000E-01
  8.50000000E-01  8.50000000E-01  8.00000000E-01  8.50000000E-01  8.50000000E-01
  8.50000000E-01  8.00000000E-01  8.50000000E-01  8.50000000E-01  8.50000000E-01
  8.00000000E-01  8.50000000E-01  8.50000000E-01  8.50000000E-01  8.00000000E-01
  8.50000000E-01  8.50000000E-01  8.50000000E-01  8.00000000E-01  8.50000000E-01
  8.50000000E-01  8.50000000E-01  8.00000000E-01  8.50000000E-01  8.50000000E-01
  8.50000000E-01  8.00000000E-01  8.50000000E-01  8.50000000E-01  8.50000000E-01
  8.00000000E-01  8.50000000E-01  8.50000000E-01  8.50000000E-01  8.00000000E-01
  8.50000000E-01  8.50000000E-01  8.50000000E-01  8.00000000E-01  8.50000000E-01
  8.50000000E-01  8.50000000E-01  8.00000000E-01  8.50000000E-01  8.50000000E-01
  8.50000000E-01  8.00000000E-01  8.50000000E-01  8.50000000E-01  8.50000000E-01
  8.00000000E-01  8.50000000E-01  8.50000000E-01  8.50000000E-01  8.00000000E-01
  8.50000000E-01  8.50000000E-01  8.50000000E-01  8.00000000E-01  8.50000000E-01
  8.50000000E-01  8.50000000E-01  8.00000000E-01  8.50000000E-01  8.50000000E-01
  8.50000000E-01  8.00000000E-01  8.50000000E-01  8.50000000E-01  8.50000000E-01
  8.00000000E-01  8.50000000E-01  8.50000000E-01  8.50000000E-01  8.00000000E-01
  8.50000000E-01  8.50000000E-01  8.50000000E-01  8.00000000E-01  8.50000000E-01
  8.50000000E-01  8.50000000E-01  8.00000000E-01  8.50000000E-01  8.50000000E-01
  8.50000000E-01  8.00000000E-01  8.50000000E-01  8.50000000E-01  8.50000000E-01
  8.00000000E-01  8.50000000E-01  8.50000000E-01  8.50000000E-01  8.00000000E-01
  8.50000000E-01  8.50000000E-01  8.50000000E-01  8.00000000E-01  8.50000000E-01
  8.50000000E-01  8.50000000E-01  8.00000000E-01  8.50000000E-01  8.50000000E-01
  8.50000000E-01  8.00000000E-01  8.50000000E-01  8.50000000E-01  8.50000000E-01
  8.00000000E-01  8.50000000E-01  8.50000000E-01  8.50000000E-01  8.00000000E-01
  8.50000000E-01  8.50000000E-01  8.50000000E-01  8.00000000E-01  8.50000000E-01
  8.50000000E-01  8.50000000E-01  8.00000000E-01  8.50000000E-01  8.50000000E-01
  8.50000000E-01  8.00000000E-01  8.50000000E-01  8.50000000E-01  8.50000000E-01
  8.00000000E-01  8.50000000E-01  8.50000000E-01  8.50000000E-01  8.00000000E-01
  8.50000000E-01  8.50000000E-01  8.50000000E-01  8.00000000E-01  8.50000000E-01
  8.50000000E-01  8.50000000E-01  8.00000000E-01  8.50000000E-01  8.50000000E-01
  8.50000000E-01  8.00000000E-01  8.50000000E-01  8.50000000E-01  8.50000000E-01
  8.00000000E-01  8.50000000E-01  8.50000000E-01  8.50000000E-01  8.00000000E-01
  8.50000000E-01  8.50000000E-01  8.50000000E-01  8.00000000E-01  8.50000000E-01
  8.50000000E-01  8.50000000E-01  8.00000000E-01  8.50000000E-01  8.50000000E-01
  8.50000000E-01  8.00000000E-01  8.50000000E-01  8.50000000E-01  8.50000000E-01
  8.00000000E-01  8.50000000E-01  8.50000000E-01  8.50000000E-01  8.00000000E-01
  8.50000000E-01  8.50000000E-01  8.50000000E-01  8.00000000E-01  8.50000000E-01
  8.50000000E-01  8.50000000E-01  8.00000000E-01  8.50000000E-01  8.50000000E-01
  8.50000000E-01  8.00000000E-01  8.50000000E-01  8.50000000E-01  8.50000000E-01
  8.00000000E-01  8.50000000E-01  8.50000000E-01  8.50000000E-01  8.00000000E-01
  8.50000000E-01  8.50000000E-01  8.50000000E-01  8.00000000E-01  8.50000000E-01
  8.50000000E-01  8.50000000E-01  8.00000000E-01  8.50000000E-01  8.50000000E-01
  8.50000000E-01  8.00000000E-01  8.50000000E-01  8.50000000E-01  8.50000000E-01
  8.00000000E-01  8.50000000E-01  8.50000000E-01  8.50000000E-01  8.00000000E-01
  8.50000000E-01  8.50000000E-01  8.50000000E-01  8.00000000E-01  8.50000000E-01
  8.50000000E-01  8.50000000E-01  8.00000000E-01  8.50000000E-01  8.50000000E-01
  8.50000000E-01  8.00000000E-01  8.50000000E-01  8.50000000E-01  8.50000000E-01
  8.00000000E-01  8.50000000E-01  8.50000000E-01  8.50000000E-01  8.00000000E-01
  8.50000000E-01  8.50000000E-01  8.50000000E-01  8.00000000E-01  8.50000000E-01
  8.50000000E-01  8.50000000E-01  8.00000000E-01  8.50000000E-01  8.50000000E-01
  8.50000000E-01  8.00000000E-01  8.50000000E-01  8.50000000E-01  8.50000000E-01
  8.00000000E-01  8.50000000E-01  8.50000000E-01  8.50000000E-01  8.00000000E-01
  8.50000000E-01  8.50000000E-01  8.50000000E-01  8.00000000E-01  8.50000000E-01
  8.50000000E-01  8.50000000E-01  8.00000000E-01  8.50000000E-01  8.50000000E-01
  8.50000000E-01  8.00000000E-01  8.50000000E-01  8.50000000E-01  8.50000000E-01
  8.00000000E-01  8.50000000E-01  8.50000000E-01  8.50000000E-01  8.00000000E-01
  8.50000000E-01  8.50000000E-01  8.50000000E-01  8.00000000E-01  8.50000000E-01
  8.50000000E-01  8.50000000E-01  8.00000000E-01  8.50000000E-01  8.50000000E-01
  8.50000000E-01  8.00000000E-01  8.50000000E-01  8.50000000E-01  8.50000000E-01
  8.00000000E-01  8.50000000E-01  8.50000000E-01  8.50000000E-01  8.00000000E-01
  8.50000000E-01  8.50000000E-01  8.50000000E-01  8.00000000E-01  8.50000000E-01
  8.50000000E-01  8.50000000E-01  8.00000000E-01  8.50000000E-01  8.50000000E-01
  8.50000000E-01  8.00000000E-01  8.50000000E-01  8.50000000E-01  8.50000000E-01
  8.00000000E-01  8.50000000E-01  8.50000000E-01  8.50000000E-01  8.00000000E-01
  8.50000000E-01  8.50000000E-01  8.50000000E-01  8.00000000E-01  8.50000000E-01
  8.50000000E-01  8.50000000E-01  8.00000000E-01  8.50000000E-01  8.50000000E-01
  8.50000000E-01  8.00000000E-01  8.50000000E-01  8.50000000E-01  8.50000000E-01
  8.00000000E-01  8.50000000E-01  8.50000000E-01  8.50000000E-01  8.00000000E-01
  8.50000000E-01  8.50000000E-01  8.50000000E-01  8.00000000E-01  8.50000000E-01
  8.50000000E-01  8.50000000E-01  8.00000000E-01  8.50000000E-01  8.50000000E-01
  8.50000000E-01  8.00000000E-01  8.50000000E-01  8.50000000E-01  8.50000000E-01
  8.00000000E-01  8.50000000E-01  8.50000000E-01  8.50000000E-01  8.00000000E-01
  8.50000000E-01  8.50000000E-01  8.50000000E-01  8.00000000E-01  8.50000000E-01
  8.50000000E-01  8.50000000E-01  8.00000000E-01  8.50000000E-01  8.50000000E-01
  8.50000000E-01  8.00000000E-01  8.50000000E-01  8.50000000E-01  8.50000000E-01
  8.00000000E-01  8.50000000E-01  8.50000000E-01  8.50000000E-01  8.00000000E-01
  8.50000000E-01  8.50000000E-01  8.50000000E-01  8.00000000E-01  8.50000000E-01
  8.50000000E-01  8.50000000E-01  8.00000000E-01  8.50000000E-01  8.50000000E-01
  8.50000000E-01  8.00000000E-01  8.50000000E-01  8.50000000E-01  8.50000000E-01
  8.00000000E-01  8.50000000E-01  8.50000000E-01  8.50000000E-01  8.00000000E-01
  8.50000000E-01  8.50000000E-01  8.50000000E-01  8.00000000E-01  8.50000000E-01
  8.50000000E-01  8.50000000E-01  8.00000000E-01  8.50000000E-01  8.50000000E-01
  8.50000000E-01  8.00000000E-01  8.50000000E-01  8.50000000E-01  8.50000000E-01
  8.00000000E-01  8.50000000E-01  8.50000000E-01  8.50000000E-01  8.00000000E-01
  8.50000000E-01  8.50000000E-01  8.50000000E-01  8.00000000E-01  8.50000000E-01
  8.50000000E-01  8.50000000E-01  8.00000000E-01  8.50000000E-01  8.50000000E-01
  8.50000000E-01  8.00000000E-01  8.50000000E-01  8.50000000E-01  8.50000000E-01
  8.00000000E-01  8.50000000E-01  8.50000000E-01  8.50000000E-01  8.00000000E-01
  8.50000000E-01  8.50000000E-01  8.50000000E-01  8.00000000E-01  8.50000000E-01
  8.50000000E-01  8.50000000E-01  8.00000000E-01  8.50000000E-01  8.50000000E-01
  8.50000000E-01  8.00000000E-01  8.50000000E-01  8.50000000E-01  8.50000000E-01
  8.00000000E-01  8.50000000E-01  8.50000000E-01  8.50000000E-01  8.00000000E-01
  8.50000000E-01  8.50000000E-01  8.50000000E-01  8.00000000E-01  8.50000000E-01
  8.50000000E-01  8.50000000E-01  8.00000000E-01  8.50000000E-01  8.50000000E-01
  8.50000000E-01  8.00000000E-01  8.50000000E-01  8.50000000E-01  8.50000000E-01
  8.00000000E-01  8.50000000E-01  8.50000000E-01  8.50000000E-01  8.00000000E-01
  8.50000000E-01  8.50000000E-01  8.50000000E-01  8.00000000E-01  8.50000000E-01
  8.50000000E-01  8.50000000E-01  8.00000000E-01  8.50000000E-01  8.50000000E-01
  8.50000000E-01  8.00000000E-01  8.50000000E-01  8.50000000E-01  8.50000000E-01
  8.00000000E-01  8.50000000E-01  8.50000000E-01  8.50000000E-01  8.00000000E-01
  8.50000000E-01  8.50000000E-01  8.50000000E-01  8.00000000E-01  8.50000000E-01
  8.50000000E-01  8.50000000E-01  8.00000000E-01  8.50000000E-01  8.50000000E-01
  8.50000000E-01  8.00000000E-01  8.50000000E-01  8.50000000E-01  8.50000000E-01
  8.00000000E-01  8.50000000E-01  8.50000000E-01  8.50000000E-01  8.00000000E-01
  8.50000000E-01  8.50000000E-01  8.50000000E-01  8.00000000E-01  8.50000000E-01
  8.50000000E-01  8.50000000E-01  8.00000000E-01  8.50000000E-01  8.50000000E-01
  8.50000000E-01  8.00000000E-01  8.50000000E-01  8.50000000E-01  8.50000000E-01
  8.00000000E-01  8.50000000E-01  8.50000000E-01  8.50000000E-01  8.00000000E-01
  8.50000000E-01  8.50000000E-01  8.50000000E-01  8.00000000E-01  8.50000000E-01
  8.50000000E-01  8.50000000E-01  8.00000000E-01  8.50000000E-01  8.50000000E-01
  8.50000000E-01  8.00000000E-01  8.50000000E-01  8.50000000E-01  8.50000000E-01
  8.00000000E-01  8.50000000E-01  8.50000000E-01  8.50000000E-01  8.00000000E-01
  8.50000000E-01  8.50000000E-01  8.50000000E-01  8.00000000E-01  8.50000000E-01
  8.50000000E-01  8.50000000E-01  8.00000000E-01  8.50000000E-01  8.50000000E-01
  8.50000000E-01  8.00000000E-01  8.50000000E-01  8.50000000E-01  8.50000000E-01
  8.00000000E-01  8.50000000E-01  8.50000000E-01  8.50000000E-01  8.00000000E-01
  8.50000000E-01  8.50000000E-01  8.50000000E-01  8.00000000E-01  8.50000000E-01
  8.50000000E-01  8.50000000E-01  8.00000000E-01  8.50000000E-01  8.50000000E-01
  8.50000000E-01  8.00000000E-01  8.50000000E-01  8.50000000E-01  8.50000000E-01
  8.00000000E-01  8.50000000E-01  8.50000000E-01  8.50000000E-01  8.00000000E-01
  8.50000000E-01  8.50000000E-01  8.50000000E-01  8.00000000E-01  8.50000000E-01
  8.50000000E-01  8.50000000E-01  8.00000000E-01  8.50000000E-01  8.50000000E-01
  8.50000000E-01  8.00000000E-01  8.50000000E-01  8.50000000E-01  8.50000000E-01
  8.00000000E-01  8.50000000E-01  8.50000000E-01  8.50000000E-01  8.00000000E-01
  8.50000000E-01  8.50000000E-01  8.50000000E-01  8.00000000E-01  8.50000000E-01
  8.50000000E-01  8.50000000E-01  8.00000000E-01  8.50000000E-01  8.50000000E-01
  8.50000000E-01  8.00000000E-01  8.50000000E-01  8.50000000E-01  8.50000000E-01
  8.00000000E-01  8.50000000E-01  8.50000000E-01  8.50000000E-01  8.00000000E-01
  8.50000000E-01  8.50000000E-01  8.50000000E-01  8.00000000E-01  8.50000000E-01
  8.50000000E-01  8.50000000E-01  8.00000000E-01  8.50000000E-01  8.50000000E-01
  8.50000000E-01  8.00000000E-01  8.50000000E-01  8.50000000E-01  8.50000000E-01
  8.00000000E-01  8.50000000E-01  8.50000000E-01  8.50000000E-01  8.00000000E-01
  8.50000000E-01  8.50000000E-01  8.50000000E-01  8.00000000E-01  8.50000000E-01
  8.50000000E-01  8.50000000E-01  8.00000000E-01  8.50000000E-01  8.50000000E-01
  8.50000000E-01  8.00000000E-01  8.50000000E-01  8.50000000E-01  8.50000000E-01
  8.00000000E-01  8.50000000E-01  8.50000000E-01  8.50000000E-01  8.00000000E-01
  8.50000000E-01  8.50000000E-01  8.50000000E-01  8.00000000E-01  8.50000000E-01
  8.50000000E-01  8.50000000E-01  8.00000000E-01  8.50000000E-01  8.50000000E-01
  8.50000000E-01  8.00000000E-01  8.50000000E-01  8.50000000E-01  8.50000000E-01
  8.00000000E-01  8.50000000E-01  8.50000000E-01  8.50000000E-01  8.00000000E-01
  8.50000000E-01  8.50000000E-01  8.50000000E-01  8.00000000E-01  8.50000000E-01
  8.50000000E-01  8.50000000E-01  8.00000000E-01  8.50000000E-01  8.50000000E-01
  8.50000000E-01  8.00000000E-01  8.50000000E-01  8.50000000E-01  8.50000000E-01
  8.00000000E-01  8.50000000E-01  8.50000000E-01  8.50000000E-01  8.00000000E-01
  8.50000000E-01  8.50000000E-01  8.50000000E-01  8.00000000E-01  8.50000000E-01
  8.50000000E-01  8.50000000E-01  8.00000000E-01  8.50000000E-01  8.50000000E-01
  8.50000000E-01  8.00000000E-01  8.50000000E-01  8.50000000E-01  8.50000000E-01
  8.00000000E-01  8.50000000E-01  8.50000000E-01  8.50000000E-01  8.00000000E-01
  8.50000000E-01  8.50000000E-01  8.50000000E-01  8.00000000E-01  8.50000000E-01
  8.50000000E-01  8.50000000E-01  8.00000000E-01  8.50000000E-01  8.50000000E-01
  8.50000000E-01  8.00000000E-01  8.50000000E-01  8.50000000E-01  8.50000000E-01
  8.00000000E-01  8.50000000E-01  8.50000000E-01  8.50000000E-01  8.00000000E-01
  8.50000000E-01  8.50000000E-01  8.50000000E-01  8.00000000E-01  8.50000000E-01
  8.50000000E-01  8.50000000E-01  8.00000000E-01  8.50000000E-01  8.50000000E-01
  8.50000000E-01  8.00000000E-01  8.50000000E-01  8.50000000E-01  8.50000000E-01
  8.00000000E-01  8.50000000E-01  8.50000000E-01  8.50000000E-01  8.00000000E-01
  8.50000000E-01  8.50000000E-01  8.50000000E-01  8.00000000E-01  8.50000000E-01
  8.50000000E-01  8.50000000E-01  8.00000000E-01  8.50000000E-01  8.50000000E-01
  8.50000000E-01  8.00000000E-01  8.50000000E-01  8.50000000E-01  8.50000000E-01
  8.00000000E-01  8.50000000E-01  8.50000000E-01  8.50000000E-01  8.00000000E-01
  8.50000000E-01  8.50000000E-01  8.50000000E-01  8.00000000E-01  8.50000000E-01
  8.50000000E-01  8.50000000E-01  8.00000000E-01  8.50000000E-01  8.50000000E-01
  8.50000000E-01  8.00000000E-01  8.50000000E-01  8.50000000E-01  8.50000000E-01
  8.00000000E-01  8.50000000E-01  8.50000000E-01  8.50000000E-01  8.00000000E-01
  8.50000000E-01  8.50000000E-01  8.50000000E-01  8.00000000E-01  8.50000000E-01
  8.50000000E-01  8.50000000E-01  8.00000000E-01  8.50000000E-01  8.50000000E-01
  8.50000000E-01  8.00000000E-01  8.50000000E-01  8.50000000E-01  8.50000000E-01
  8.00000000E-01  8.50000000E-01  8.50000000E-01  8.50000000E-01  8.00000000E-01
  8.50000000E-01  8.50000000E-01  8.50000000E-01  8.00000000E-01  8.50000000E-01
  8.50000000E-01  8.50000000E-01  8.00000000E-01  8.50000000E-01  8.50000000E-01
  8.50000000E-01  8.00000000E-01  8.50000000E-01  8.50000000E-01  8.50000000E-01
  8.00000000E-01  8.50000000E-01  8.50000000E-01  8.50000000E-01  8.00000000E-01
  8.50000000E-01  8.50000000E-01  8.50000000E-01  8.00000000E-01  8.50000000E-01
  8.50000000E-01  8.50000000E-01  8.00000000E-01  8.50000000E-01  8.50000000E-01
  8.50000000E-01  8.00000000E-01  8.50000000E-01  8.50000000E-01  8.50000000E-01
  8.00000000E-01  8.50000000E-01  8.50000000E-01  8.50000000E-01  8.00000000E-01
  8.50000000E-01  8.50000000E-01  8.50000000E-01  8.00000000E-01  8.50000000E-01
  8.50000000E-01  8.50000000E-01  8.00000000E-01  8.50000000E-01  8.50000000E-01
  8.50000000E-01  8.00000000E-01  8.50000000E-01  8.50000000E-01  8.50000000E-01
  8.00000000E-01  8.50000000E-01  8.50000000E-01  8.50000000E-01  8.00000000E-01
  8.50000000E-01  8.50000000E-01  8.50000000E-01  8.00000000E-01  8.50000000E-01
  8.50000000E-01  8.50000000E-01  8.00000000E-01  8.50000000E-01  8.50000000E-01
  8.50000000E-01  8.00000000E-01  8.50000000E-01  8.50000000E-01  8.50000000E-01
  8.00000000E-01  8.50000000E-01  8.50000000E-01  8.50000000E-01  8.00000000E-01
  8.50000000E-01  8.50000000E-01  8.50000000E-01  8.00000000E-01  8.50000000E-01
  8.50000000E-01  8.50000000E-01  8.00000000E-01  8.50000000E-01  8.50000000E-01
  8.50000000E-01  8.00000000E-01  8.50000000E-01  8.50000000E-01  8.50000000E-01
  8.00000000E-01  8.50000000E-01  8.50000000E-01  8.50000000E-01  8.00000000E-01
  8.50000000E-01  8.50000000E-01  8.50000000E-01  8.00000000E-01  8.50000000E-01
  8.50000000E-01  8.50000000E-01  8.00000000E-01  8.50000000E-01  8.50000000E-01
  8.50000000E-01  8.00000000E-01  8.50000000E-01  8.50000000E-01  8.50000000E-01
  8.00000000E-01  8.50000000E-01  8.50000000E-01  8.50000000E-01  8.00000000E-01
  8.50000000E-01  8.50000000E-01  8.50000000E-01  8.00000000E-01  8.50000000E-01
  8.50000000E-01  8.50000000E-01  8.00000000E-01  8.50000000E-01  8.50000000E-01
  8.50000000E-01  8.00000000E-01  8.50000000E-01  8.50000000E-01  8.50000000E-01
  8.00000000E-01  8.50000000E-01  8.50000000E-01  8.50000000E-01  8.00000000E-01
  8.50000000E-01  8.50000000E-01  8.50000000E-01  8.00000000E-01  8.50000000E-01
  8.50000000E-01  8.50000000E-01  8.00000000E-01  8.50000000E-01  8.50000000E-01
  8.50000000E-01  8.00000000E-01  8.50000000E-01  8.50000000E-01  8.50000000E-01
  8.00000000E-01  8.50000000E-01  8.50000000E-01  8.50000000E-01  8.00000000E-01
  8.50000000E-01  8.50000000E-01  8.50000000E-01  8.00000000E-01  8.50000000E-01
  8.50000000E-01  8.50000000E-01  8.00000000E-01  8.50000000E-01  8.50000000E-01
  8.50000000E-01  8.00000000E-01  8.50000000E-01  8.50000000E-01  8.50000000E-01
  8.00000000E-01  8.50000000E-01  8.50000000E-01  8.50000000E-01  8.00000000E-01
  8.50000000E-01  8.50000000E-01  8.50000000E-01  8.00000000E-01  8.50000000E-01
  8.50000000E-01  8.50000000E-01  8.00000000E-01  8.50000000E-01  8.50000000E-01
  8.50000000E-01  8.00000000E-01  8.50000000E-01  8.50000000E-01  8.50000000E-01
  8.00000000E-01  8.50000000E-01  8.50000000E-01  8.50000000E-01  8.00000000E-01
  8.50000000E-01  8.50000000E-01  8.50000000E-01  8.00000000E-01  8.50000000E-01
  8.50000000E-01  8.50000000E-01  8.00000000E-01  8.50000000E-01  8.50000000E-01
  8.50000000E-01  8.00000000E-01  8.50000000E-01  8.50000000E-01  8.50000000E-01
  8.00000000E-01  8.50000000E-01  8.50000000E-01  8.50000000E-01  8.00000000E-01
  8.50000000E-01  8.50000000E-01  8.50000000E-01  8.00000000E-01  8.50000000E-01
  8.50000000E-01  8.50000000E-01  8.00000000E-01  8.50000000E-01  8.50000000E-01
  8.50000000E-01  8.00000000E-01  8.50000000E-01  8.50000000E-01  8.50000000E-01
  8.00000000E-01  8.50000000E-01  8.50000000E-01  8.50000000E-01  8.00000000E-01
  8.50000000E-01  8.50000000E-01  8.50000000E-01  8.00000000E-01  8.50000000E-01
  8.50000000E-01  8.50000000E-01  8.00000000E-01  8.50000000E-01  8.50000000E-01
  8.50000000E-01  8.00000000E-01  8.50000000E-01  8.50000000E-01  8.50000000E-01
  8.00000000E-01  8.50000000E-01  8.50000000E-01  8.50000000E-01  8.00000000E-01
  8.50000000E-01  8.50000000E-01  8.50000000E-01  8.00000000E-01  8.50000000E-01
  8.50000000E-01  8.50000000E-01  8.00000000E-01  8.50000000E-01  8.50000000E-01
  8.50000000E-01  8.00000000E-01  8.50000000E-01  8.50000000E-01  8.50000000E-01
  8.00000000E-01  8.50000000E-01  8.50000000E-01  8.50000000E-01  8.00000000E-01
  8.50000000E-01  8.50000000E-01  8.50000000E-01  8.00000000E-01  8.50000000E-01
  8.50000000E-01  8.50000000E-01  8.00000000E-01  8.50000000E-01  8.50000000E-01
  8.50000000E-01  8.00000000E-01  8.50000000E-01  8.50000000E-01  8.50000000E-01
  8.00000000E-01  8.50000000E-01  8.50000000E-01  8.50000000E-01  8.00000000E-01
  8.50000000E-01  8.50000000E-01  8.50000000E-01  8.00000000E-01  8.50000000E-01
  8.50000000E-01  8.50000000E-01  8.00000000E-01  8.50000000E-01  8.50000000E-01
  8.50000000E-01  8.00000000E-01  8.50000000E-01  8.50000000E-01  8.50000000E-01
  8.00000000E-01  8.50000000E-01  8.50000000E-01  8.50000000E-01  8.00000000E-01
  8.50000000E-01  8.50000000E-01  8.50000000E-01  8.00000000E-01  8.50000000E-01
  8.50000000E-01  8.50000000E-01  8.00000000E-01  8.50000000E-01  8.50000000E-01
  8.50000000E-01  8.00000000E-01  8.50000000E-01  8.50000000E-01  8.50000000E-01
  8.00000000E-01  8.50000000E-01  8.50000000E-01  8.50000000E-01  8.00000000E-01
  8.50000000E-01  8.50000000E-01  8.50000000E-01  8.00000000E-01  8.50000000E-01
  8.50000000E-01  8.50000000E-01  8.00000000E-01  8.50000000E-01  8.50000000E-01
  8.50000000E-01  8.00000000E-01  8.50000000E-01  8.50000000E-01  8.50000000E-01
  8.00000000E-01  8.50000000E-01  8.50000000E-01  8.50000000E-01  8.00000000E-01
  8.50000000E-01  8.50000000E-01  8.50000000E-01  8.00000000E-01  8.50000000E-01
  8.50000000E-01  8.50000000E-01  8.00000000E-01  8.50000000E-01  8.50000000E-01
  8.50000000E-01  8.00000000E-01  8.50000000E-01  8.50000000E-01  8.50000000E-01
  8.00000000E-01  8.50000000E-01  8.50000000E-01  8.50000000E-01  8.00000000E-01
  8.50000000E-01  8.50000000E-01  8.50000000E-01  8.00000000E-01  8.50000000E-01
  8.50000000E-01  8.50000000E-01  8.00000000E-01  8.50000000E-01  8.50000000E-01
  8.50000000E-01  8.00000000E-01  8.50000000E-01  8.50000000E-01  8.50000000E-01
  8.00000000E-01  8.50000000E-01  8.50000000E-01  8.50000000E-01  8.00000000E-01
  8.50000000E-01  8.50000000E-01  8.50000000E-01  8.00000000E-01  8.50000000E-01
  8.50000000E-01  8.50000000E-01  8.00000000E-01  8.50000000E-01  8.50000000E-01
  8.50000000E-01  8.00000000E-01  8.50000000E-01  8.50000000E-01  8.50000000E-01
  8.00000000E-01  8.50000000E-01  8.50000000E-01  8.50000000E-01  8.00000000E-01
  8.50000000E-01  8.50000000E-01  8.50000000E-01  8.00000000E-01  8.50000000E-01
  8.50000000E-01  8.50000000E-01  8.00000000E-01  8.50000000E-01  8.50000000E-01
  8.50000000E-01  8.00000000E-01  8.50000000E-01  8.50000000E-01  8.50000000E-01
  8.00000000E-01  8.50000000E-01  8.50000000E-01  8.50000000E-01  8.00000000E-01
  8.50000000E-01  8.50000000E-01  8.50000000E-01  8.00000000E-01  8.50000000E-01
  8.50000000E-01  8.50000000E-01  8.00000000E-01  8.50000000E-01  8.50000000E-01
  8.50000000E-01  8.00000000E-01  8.50000000E-01  8.50000000E-01  8.50000000E-01
  8.00000000E-01  8.50000000E-01  8.50000000E-01  8.50000000E-01  8.00000000E-01
  8.50000000E-01  8.50000000E-01  8.50000000E-01  8.00000000E-01  8.50000000E-01
  8.50000000E-01  8.50000000E-01  8.00000000E-01  8.50000000E-01  8.50000000E-01
  8.50000000E-01  8.00000000E-01  8.50000000E-01  8.50000000E-01  8.50000000E-01
  8.00000000E-01  8.50000000E-01  8.50000000E-01  8.50000000E-01  8.00000000E-01
  8.50000000E-01  8.50000000E-01  8.50000000E-01  8.00000000E-01  8.50000000E-01
  8.50000000E-01  8.50000000E-01  8.00000000E-01  8.50000000E-01  8.50000000E-01
  8.50000000E-01  8.00000000E-01  8.50000000E-01  8.50000000E-01  8.50000000E-01
  8.00000000E-01  8.50000000E-01  8.50000000E-01  8.50000000E-01  8.00000000E-01
  8.50000000E-01  8.50000000E-01  8.50000000E-01  8.00000000E-01  8.50000000E-01
  8.50000000E-01  8.50000000E-01  8.00000000E-01  8.50000000E-01  8.50000000E-01
  8.50000000E-01  8.00000000E-01  8.50000000E-01  8.50000000E-01  8.50000000E-01
  8.00000000E-01  8.50000000E-01  8.50000000E-01  8.50000000E-01  8.00000000E-01
  8.50000000E-01  8.50000000E-01  8.50000000E-01  8.00000000E-01  8.50000000E-01
  8.50000000E-01  8.50000000E-01  8.00000000E-01  8.50000000E-01  8.50000000E-01
  8.50000000E-01  8.00000000E-01  8.50000000E-01  8.50000000E-01  8.50000000E-01
  8.00000000E-01  8.50000000E-01  8.50000000E-01  8.50000000E-01  8.00000000E-01
  8.50000000E-01  8.50000000E-01  8.50000000E-01  8.00000000E-01  8.50000000E-01
  8.50000000E-01  8.50000000E-01  8.00000000E-01  8.50000000E-01  8.50000000E-01
  8.50000000E-01  8.00000000E-01  8.50000000E-01  8.50000000E-01  8.50000000E-01
  8.00000000E-01  8.50000000E-01  8.50000000E-01  8.50000000E-01  8.00000000E-01
  8.50000000E-01  8.50000000E-01  8.50000000E-01  8.00000000E-01  8.50000000E-01
  8.50000000E-01  8.50000000E-01  8.00000000E-01  8.50000000E-01  8.50000000E-01
  8.50000000E-01  8.00000000E-01  8.50000000E-01  8.50000000E-01  8.50000000E-01
  8.00000000E-01  8.50000000E-01  8.50000000E-01  8.50000000E-01  8.00000000E-01
  8.50000000E-01  8.50000000E-01  8.50000000E-01  8.00000000E-01  8.50000000E-01
  8.50000000E-01  8.50000000E-01  8.00000000E-01  8.50000000E-01  8.50000000E-01
  8.50000000E-01  8.00000000E-01  8.50000000E-01  8.50000000E-01  8.50000000E-01
  8.00000000E-01  8.50000000E-01  8.50000000E-01  8.50000000E-01  8.00000000E-01
  8.50000000E-01  8.50000000E-01  8.50000000E-01  8.00000000E-01  8.50000000E-01
  8.50000000E-01  8.50000000E-01  8.00000000E-01  8.50000000E-01  8.50000000E-01
  8.50000000E-01  8.00000000E-01  8.50000000E-01  8.50000000E-01  8.50000000E-01
  8.00000000E-01  8.50000000E-01  8.50000000E-01  8.50000000E-01  8.00000000E-01
  8.50000000E-01  8.50000000E-01  8.50000000E-01  8.00000000E-01  8.50000000E-01
  8.50000000E-01  8.50000000E-01  8.00000000E-01  8.50000000E-01  8.50000000E-01
  8.50000000E-01  8.00000000E-01  8.50000000E-01  8.50000000E-01  8.50000000E-01
  8.00000000E-01  8.50000000E-01  8.50000000E-01  8.50000000E-01  8.00000000E-01
  8.50000000E-01  8.50000000E-01  8.50000000E-01  8.00000000E-01  8.50000000E-01
  8.50000000E-01  8.50000000E-01  8.00000000E-01  8.50000000E-01  8.50000000E-01
  8.50000000E-01  8.00000000E-01  8.50000000E-01  8.50000000E-01  8.50000000E-01
  8.00000000E-01  8.50000000E-01  8.50000000E-01  8.50000000E-01  8.00000000E-01
  8.50000000E-01  8.50000000E-01  8.50000000E-01  8.00000000E-01  8.50000000E-01
  8.50000000E-01  8.50000000E-01  8.00000000E-01  8.50000000E-01  8.50000000E-01
  8.50000000E-01  8.00000000E-01  8.50000000E-01  8.50000000E-01  8.50000000E-01
  8.00000000E-01  8.50000000E-01  8.50000000E-01  8.50000000E-01  8.00000000E-01
  8.50000000E-01  8.50000000E-01  8.50000000E-01  8.00000000E-01  8.50000000E-01
  8.50000000E-01  8.50000000E-01  8.00000000E-01  8.50000000E-01  8.50000000E-01
  8.50000000E-01  8.00000000E-01  8.50000000E-01  8.50000000E-01  8.50000000E-01
  8.00000000E-01  8.50000000E-01  8.50000000E-01  8.50000000E-01  8.00000000E-01
  8.50000000E-01  8.50000000E-01  8.50000000E-01  8.00000000E-01  8.50000000E-01
  8.50000000E-01  8.50000000E-01  8.00000000E-01  8.50000000E-01  8.50000000E-01
  8.50000000E-01  8.00000000E-01  8.50000000E-01  8.50000000E-01  8.50000000E-01
  8.00000000E-01  8.50000000E-01  8.50000000E-01  8.50000000E-01  8.00000000E-01
  8.50000000E-01  8.50000000E-01  8.50000000E-01  8.00000000E-01  8.50000000E-01
  8.50000000E-01  8.50000000E-01  8.00000000E-01  8.50000000E-01  8.50000000E-01
  8.50000000E-01  8.00000000E-01  8.50000000E-01  8.50000000E-01  8.50000000E-01
  8.00000000E-01  8.50000000E-01  8.50000000E-01  8.50000000E-01  8.00000000E-01
  8.50000000E-01  8.50000000E-01  8.50000000E-01  8.00000000E-01  8.50000000E-01
  8.50000000E-01  8.50000000E-01  8.00000000E-01  8.50000000E-01  8.50000000E-01
  8.50000000E-01  8.00000000E-01  8.50000000E-01  8.50000000E-01  8.50000000E-01
  8.00000000E-01  8.50000000E-01  8.50000000E-01  8.50000000E-01  8.00000000E-01
  8.50000000E-01  8.50000000E-01  8.50000000E-01  8.00000000E-01  8.50000000E-01
  8.50000000E-01  8.50000000E-01  8.00000000E-01  8.50000000E-01  8.50000000E-01
  8.50000000E-01  8.00000000E-01  8.50000000E-01  8.50000000E-01  8.50000000E-01
  8.00000000E-01  8.50000000E-01  8.50000000E-01  8.50000000E-01  8.00000000E-01
  8.50000000E-01  8.50000000E-01  8.50000000E-01  8.00000000E-01  8.50000000E-01
  8.50000000E-01  8.50000000E-01  8.00000000E-01  8.50000000E-01  8.50000000E-01
  8.50000000E-01  8.00000000E-01  8.50000000E-01  8.50000000E-01  8.50000000E-01
  8.00000000E-01  8.50000000E-01  8.50000000E-01  8.50000000E-01  8.00000000E-01
  8.50000000E-01  8.50000000E-01  8.50000000E-01  8.00000000E-01  8.50000000E-01
  8.50000000E-01  8.50000000E-01  8.00000000E-01  8.50000000E-01  8.50000000E-01
  8.50000000E-01  8.00000000E-01  8.50000000E-01  8.50000000E-01  8.50000000E-01
  8.00000000E-01  8.50000000E-01  8.50000000E-01  8.50000000E-01  8.00000000E-01
  8.50000000E-01  8.50000000E-01  8.50000000E-01  8.00000000E-01  8.50000000E-01
  8.50000000E-01  8.50000000E-01  8.00000000E-01  8.50000000E-01  8.50000000E-01
  8.50000000E-01  8.00000000E-01  8.50000000E-01  8.50000000E-01  8.50000000E-01
  8.00000000E-01  8.50000000E-01  8.50000000E-01  8.50000000E-01  8.00000000E-01
  8.50000000E-01  8.50000000E-01  8.50000000E-01  8.00000000E-01  8.50000000E-01
  8.50000000E-01  8.50000000E-01  8.00000000E-01  8.50000000E-01  8.50000000E-01
  8.50000000E-01  8.00000000E-01  8.50000000E-01  8.50000000E-01  8.50000000E-01
  8.00000000E-01  8.50000000E-01  8.50000000E-01  8.50000000E-01  8.00000000E-01
  8.50000000E-01  8.50000000E-01  8.50000000E-01  8.00000000E-01  8.50000000E-01
  8.50000000E-01  8.50000000E-01  8.00000000E-01  8.50000000E-01  8.50000000E-01
  8.50000000E-01  8.00000000E-01  8.50000000E-01  8.50000000E-01  8.50000000E-01
  8.00000000E-01  8.50000000E-01  8.50000000E-01  8.50000000E-01  8.00000000E-01
  8.50000000E-01  8.50000000E-01  8.50000000E-01  8.00000000E-01  8.50000000E-01
  8.50000000E-01  8.50000000E-01  8.00000000E-01  8.50000000E-01  8.50000000E-01
  8.50000000E-01  8.00000000E-01  8.50000000E-01  8.50000000E-01  8.50000000E-01
  8.00000000E-01  8.50000000E-01  8.50000000E-01  8.50000000E-01  8.00000000E-01
  8.50000000E-01  8.50000000E-01  8.50000000E-01  8.00000000E-01  8.50000000E-01
  8.50000000E-01  8.50000000E-01  8.00000000E-01  8.50000000E-01  8.50000000E-01
  8.50000000E-01  8.00000000E-01  8.50000000E-01  8.50000000E-01  8.50000000E-01
  8.00000000E-01  8.50000000E-01  8.50000000E-01  8.50000000E-01  8.00000000E-01
  8.50000000E-01  8.50000000E-01  8.50000000E-01  8.00000000E-01  8.50000000E-01
  8.50000000E-01  8.50000000E-01  8.00000000E-01  8.50000000E-01  8.50000000E-01
  8.50000000E-01  8.00000000E-01  8.50000000E-01  8.50000000E-01  8.50000000E-01
  8.00000000E-01  8.50000000E-01  8.50000000E-01  8.50000000E-01  8.00000000E-01
  8.50000000E-01  8.50000000E-01  8.50000000E-01  8.00000000E-01  8.50000000E-01
  8.50000000E-01  8.50000000E-01  8.00000000E-01  8.50000000E-01  8.50000000E-01
  8.50000000E-01  8.00000000E-01  8.50000000E-01  8.50000000E-01  8.50000000E-01
  8.00000000E-01  8.50000000E-01  8.50000000E-01  8.50000000E-01  8.00000000E-01
  8.50000000E-01  8.50000000E-01  8.50000000E-01  8.00000000E-01  8.50000000E-01
  8.50000000E-01  8.50000000E-01  8.00000000E-01  8.50000000E-01  8.50000000E-01
  8.50000000E-01  8.00000000E-01  8.50000000E-01  8.50000000E-01  8.50000000E-01
  8.00000000E-01  8.50000000E-01  8.50000000E-01  8.50000000E-01  8.00000000E-01
  8.50000000E-01  8.50000000E-01  8.50000000E-01  8.00000000E-01  8.50000000E-01
  8.50000000E-01  8.50000000E-01  8.00000000E-01  8.50000000E-01  8.50000000E-01
  8.50000000E-01  8.00000000E-01  8.50000000E-01  8.50000000E-01  8.50000000E-01
  8.00000000E-01  8.50000000E-01  8.50000000E-01  8.50000000E-01  8.00000000E-01
  8.50000000E-01  8.50000000E-01  8.50000000E-01  8.00000000E-01  8.50000000E-01
  8.50000000E-01  8.50000000E-01  8.00000000E-01  8.50000000E-01  8.50000000E-01
  8.50000000E-01  8.00000000E-01  8.50000000E-01  8.50000000E-01  8.50000000E-01
  8.00000000E-01  8.50000000E-01  8.50000000E-01  8.50000000E-01  8.00000000E-01
  8.50000000E-01  8.50000000E-01  8.50000000E-01  8.00000000E-01  8.50000000E-01
  8.50000000E-01  8.50000000E-01  8.00000000E-01  8.50000000E-01  8.50000000E-01
  8.50000000E-01  8.00000000E-01  8.50000000E-01  8.50000000E-01  8.50000000E-01
  8.00000000E-01  8.50000000E-01  8.50000000E-01  8.50000000E-01  8.00000000E-01
  8.50000000E-01  8.50000000E-01  8.50000000E-01  8.00000000E-01  8.50000000E-01
  8.50000000E-01  8.50000000E-01  8.00000000E-01  8.50000000E-01  8.50000000E-01
  8.50000000E-01  8.00000000E-01  8.50000000E-01  8.50000000E-01  8.50000000E-01
  8.00000000E-01  8.50000000E-01  8.50000000E-01  8.50000000E-01  8.00000000E-01
  8.50000000E-01  8.50000000E-01  8.50000000E-01  8.00000000E-01  8.50000000E-01
  8.50000000E-01  8.50000000E-01  8.00000000E-01  8.50000000E-01  8.50000000E-01
  8.50000000E-01  8.00000000E-01  8.50000000E-01  8.50000000E-01  8.50000000E-01
  8.00000000E-01  8.50000000E-01  8.50000000E-01  8.50000000E-01  8.00000000E-01
  8.50000000E-01  8.50000000E-01  8.50000000E-01  8.00000000E-01  8.50000000E-01
  8.50000000E-01  8.50000000E-01  8.00000000E-01  8.50000000E-01  8.50000000E-01
  8.50000000E-01  8.00000000E-01  8.50000000E-01  8.50000000E-01  8.50000000E-01
  8.00000000E-01  8.50000000E-01  8.50000000E-01  8.50000000E-01  8.00000000E-01
  8.50000000E-01  8.50000000E-01  8.50000000E-01  8.00000000E-01  8.50000000E-01
  8.50000000E-01  8.50000000E-01  8.00000000E-01  8.50000000E-01  8.50000000E-01
  8.50000000E-01  8.00000000E-01  8.50000000E-01  8.50000000E-01  8.50000000E-01
  8.00000000E-01  8.50000000E-01  8.50000000E-01  8.50000000E-01  8.00000000E-01
  8.50000000E-01  8.50000000E-01  8.50000000E-01  8.00000000E-01  8.50000000E-01
  8.50000000E-01  8.50000000E-01  8.00000000E-01  8.50000000E-01  8.50000000E-01
  8.50000000E-01  8.00000000E-01  8.50000000E-01  8.50000000E-01  8.50000000E-01
  8.00000000E-01  8.50000000E-01  8.50000000E-01  8.50000000E-01  8.00000000E-01
  8.50000000E-01  8.50000000E-01  8.50000000E-01  8.00000000E-01  8.50000000E-01
  8.50000000E-01  8.50000000E-01  8.00000000E-01  8.50000000E-01  8.50000000E-01
  8.50000000E-01  8.00000000E-01  8.50000000E-01  8.50000000E-01  8.50000000E-01
  8.00000000E-01  8.50000000E-01  8.50000000E-01  8.50000000E-01  8.00000000E-01
  8.50000000E-01  8.50000000E-01  8.50000000E-01  8.00000000E-01  8.50000000E-01
  8.50000000E-01  8.50000000E-01  8.00000000E-01  8.50000000E-01  8.50000000E-01
  8.50000000E-01  8.00000000E-01  8.50000000E-01  8.50000000E-01  8.50000000E-01
  8.00000000E-01  8.50000000E-01  8.50000000E-01  8.50000000E-01  8.00000000E-01
  8.50000000E-01  8.50000000E-01  8.50000000E-01  8.00000000E-01  8.50000000E-01
  8.50000000E-01  8.50000000E-01  8.00000000E-01  8.50000000E-01  8.50000000E-01
  8.50000000E-01  8.00000000E-01  8.50000000E-01  8.50000000E-01  8.50000000E-01
  8.00000000E-01  8.50000000E-01  8.50000000E-01  8.50000000E-01  8.00000000E-01
  8.50000000E-01  8.50000000E-01  8.50000000E-01  8.00000000E-01  8.50000000E-01
  8.50000000E-01  8.50000000E-01  8.00000000E-01  8.50000000E-01  8.50000000E-01
  8.50000000E-01  8.00000000E-01  8.50000000E-01  8.50000000E-01  8.50000000E-01
  8.00000000E-01  8.50000000E-01  8.50000000E-01  8.50000000E-01  8.00000000E-01
  8.50000000E-01  8.50000000E-01  8.50000000E-01  8.00000000E-01  8.50000000E-01
  8.50000000E-01  8.50000000E-01  8.00000000E-01  8.50000000E-01  8.50000000E-01
  8.50000000E-01  8.00000000E-01  8.50000000E-01  8.50000000E-01  8.50000000E-01
  8.00000000E-01  8.50000000E-01  8.50000000E-01  8.50000000E-01  8.00000000E-01
  8.50000000E-01  8.50000000E-01  8.50000000E-01  8.00000000E-01  8.50000000E-01
  8.50000000E-01  8.50000000E-01  8.00000000E-01  8.50000000E-01  8.50000000E-01
  8.50000000E-01  8.00000000E-01  8.50000000E-01  8.50000000E-01  8.50000000E-01
  8.00000000E-01  8.50000000E-01  8.50000000E-01  8.50000000E-01  8.00000000E-01
  8.50000000E-01  8.50000000E-01  8.50000000E-01  8.00000000E-01  8.50000000E-01
  8.50000000E-01  8.50000000E-01  8.00000000E-01  8.50000000E-01  8.50000000E-01
  8.50000000E-01  8.00000000E-01  8.50000000E-01  8.50000000E-01  8.50000000E-01
  8.00000000E-01  8.50000000E-01  8.50000000E-01  8.50000000E-01  8.00000000E-01
  8.50000000E-01  8.50000000E-01  8.50000000E-01  8.00000000E-01  8.50000000E-01
  8.50000000E-01  8.50000000E-01  8.00000000E-01  8.50000000E-01  8.50000000E-01
  8.50000000E-01  8.00000000E-01  8.50000000E-01  8.50000000E-01  8.50000000E-01
  8.00000000E-01  8.50000000E-01  8.50000000E-01  8.50000000E-01  8.00000000E-01
  8.50000000E-01  8.50000000E-01  8.50000000E-01  8.00000000E-01  8.50000000E-01
  8.50000000E-01  8.50000000E-01  8.00000000E-01  8.50000000E-01  8.50000000E-01
  8.50000000E-01  8.00000000E-01  8.50000000E-01  8.50000000E-01  8.50000000E-01
  8.00000000E-01  8.50000000E-01  8.50000000E-01  8.50000000E-01  8.00000000E-01
  8.50000000E-01  8.50000000E-01  8.50000000E-01  8.00000000E-01  8.50000000E-01
  8.50000000E-01  8.50000000E-01  8.00000000E-01  8.50000000E-01  8.50000000E-01
  8.50000000E-01  8.00000000E-01  8.50000000E-01  8.50000000E-01  8.50000000E-01
  8.00000000E-01  8.50000000E-01  8.50000000E-01  8.50000000E-01  8.00000000E-01
  8.50000000E-01  8.50000000E-01  8.50000000E-01  8.00000000E-01  8.50000000E-01
  8.50000000E-01  8.50000000E-01  8.00000000E-01  8.50000000E-01  8.50000000E-01
  8.50000000E-01  8.00000000E-01  8.50000000E-01  8.50000000E-01  8.50000000E-01
  8.00000000E-01  8.50000000E-01  8.50000000E-01  8.50000000E-01  8.00000000E-01
  8.50000000E-01  8.50000000E-01  8.50000000E-01  8.00000000E-01  8.50000000E-01
  8.50000000E-01  8.50000000E-01  8.00000000E-01  8.50000000E-01  8.50000000E-01
  8.50000000E-01  8.00000000E-01  8.50000000E-01  8.50000000E-01  8.50000000E-01
  8.00000000E-01  8.50000000E-01  8.50000000E-01  8.50000000E-01  8.00000000E-01
  8.50000000E-01  8.50000000E-01  8.50000000E-01  8.00000000E-01  8.50000000E-01
  8.50000000E-01  8.50000000E-01  8.00000000E-01  8.50000000E-01  8.50000000E-01
  8.50000000E-01  8.00000000E-01  8.50000000E-01  8.50000000E-01  8.50000000E-01
  8.00000000E-01  8.50000000E-01  8.50000000E-01  8.50000000E-01  8.00000000E-01
  8.50000000E-01  8.50000000E-01  8.50000000E-01  8.00000000E-01  8.50000000E-01
  8.50000000E-01  8.50000000E-01  8.00000000E-01  8.50000000E-01  8.50000000E-01
  8.50000000E-01  8.00000000E-01  8.50000000E-01  8.50000000E-01  8.50000000E-01
  8.00000000E-01  8.50000000E-01  8.50000000E-01  8.50000000E-01  8.00000000E-01
  8.50000000E-01  8.50000000E-01  8.50000000E-01  8.00000000E-01  8.50000000E-01
  8.50000000E-01  8.50000000E-01  8.00000000E-01  8.50000000E-01  8.50000000E-01
  8.50000000E-01  8.00000000E-01  8.50000000E-01  8.50000000E-01  8.50000000E-01
  8.00000000E-01  8.50000000E-01  8.50000000E-01  8.50000000E-01  8.00000000E-01
  8.50000000E-01  8.50000000E-01  8.50000000E-01  8.00000000E-01  8.50000000E-01
  8.50000000E-01  8.50000000E-01  8.00000000E-01  8.50000000E-01  8.50000000E-01
  8.50000000E-01  8.00000000E-01  8.50000000E-01  8.50000000E-01  8.50000000E-01
  8.00000000E-01  8.50000000E-01  8.50000000E-01  8.50000000E-01  8.00000000E-01
  8.50000000E-01  8.50000000E-01  8.50000000E-01  8.00000000E-01  8.50000000E-01
  8.50000000E-01  8.50000000E-01  8.00000000E-01  8.50000000E-01  8.50000000E-01
  8.50000000E-01  8.00000000E-01  8.50000000E-01  8.50000000E-01  8.50000000E-01
  8.00000000E-01  8.50000000E-01  8.50000000E-01  8.50000000E-01  8.00000000E-01
  8.50000000E-01  8.50000000E-01  8.50000000E-01  8.00000000E-01  8.50000000E-01
  8.50000000E-01  8.50000000E-01  8.00000000E-01  8.50000000E-01  8.50000000E-01
  8.50000000E-01  8.00000000E-01  8.50000000E-01  8.50000000E-01  8.50000000E-01
  8.00000000E-01  8.50000000E-01  8.50000000E-01  8.50000000E-01  8.00000000E-01
  8.50000000E-01  8.50000000E-01  8.50000000E-01  8.00000000E-01  8.50000000E-01
  8.50000000E-01  8.50000000E-01  8.00000000E-01  8.50000000E-01  8.50000000E-01
  8.50000000E-01  8.00000000E-01  8.50000000E-01  8.50000000E-01  8.50000000E-01
  8.00000000E-01  8.50000000E-01  8.50000000E-01  8.50000000E-01  8.00000000E-01
  8.50000000E-01  8.50000000E-01  8.50000000E-01  8.00000000E-01  8.50000000E-01
  8.50000000E-01  8.50000000E-01  8.00000000E-01  8.50000000E-01  8.50000000E-01
  8.50000000E-01  8.00000000E-01  8.50000000E-01  8.50000000E-01  8.50000000E-01
  8.00000000E-01  8.50000000E-01  8.50000000E-01  8.50000000E-01  8.00000000E-01
  8.50000000E-01  8.50000000E-01  8.50000000E-01  8.00000000E-01  8.50000000E-01
  8.50000000E-01  8.50000000E-01  8.00000000E-01  8.50000000E-01  8.50000000E-01
  8.50000000E-01  8.00000000E-01  8.50000000E-01  8.50000000E-01  8.50000000E-01
  8.00000000E-01  8.50000000E-01  8.50000000E-01  8.50000000E-01  8.00000000E-01
  8.50000000E-01  8.50000000E-01  8.50000000E-01  8.00000000E-01  8.50000000E-01
  8.50000000E-01  8.50000000E-01  8.00000000E-01  8.50000000E-01  8.50000000E-01
  8.50000000E-01  8.00000000E-01  8.50000000E-01  8.50000000E-01  8.50000000E-01
  8.00000000E-01  8.50000000E-01  8.50000000E-01  8.50000000E-01  8.00000000E-01
  8.50000000E-01  8.50000000E-01  8.50000000E-01  8.00000000E-01  8.50000000E-01
  8.50000000E-01  8.50000000E-01  8.00000000E-01  8.50000000E-01  8.50000000E-01
  8.50000000E-01  8.00000000E-01  8.50000000E-01  8.50000000E-01  8.50000000E-01
  8.00000000E-01  8.50000000E-01  8.50000000E-01  8.50000000E-01  8.00000000E-01
  8.50000000E-01  8.50000000E-01  8.50000000E-01  8.00000000E-01  8.50000000E-01
  8.50000000E-01  8.50000000E-01  8.00000000E-01  8.50000000E-01  8.50000000E-01
  8.50000000E-01  8.00000000E-01  8.50000000E-01  8.50000000E-01  8.50000000E-01
  8.00000000E-01  8.50000000E-01  8.50000000E-01  8.50000000E-01  8.00000000E-01
  8.50000000E-01  8.50000000E-01  8.50000000E-01  8.00000000E-01  8.50000000E-01
  8.50000000E-01  8.50000000E-01  8.00000000E-01  8.50000000E-01  8.50000000E-01
  8.50000000E-01  8.00000000E-01  8.50000000E-01  8.50000000E-01  8.50000000E-01
  8.00000000E-01  8.50000000E-01  8.50000000E-01  8.50000000E-01  8.00000000E-01
  8.50000000E-01  8.50000000E-01  8.50000000E-01  8.00000000E-01  8.50000000E-01
  8.50000000E-01  8.50000000E-01  8.00000000E-01  8.50000000E-01  8.50000000E-01
  8.50000000E-01  8.00000000E-01  8.50000000E-01  8.50000000E-01  8.50000000E-01
  8.00000000E-01  8.50000000E-01  8.50000000E-01  8.50000000E-01  8.00000000E-01
  8.50000000E-01  8.50000000E-01  8.50000000E-01  8.00000000E-01  8.50000000E-01
  8.50000000E-01  8.50000000E-01  8.00000000E-01  8.50000000E-01  8.50000000E-01
  8.50000000E-01  8.00000000E-01  8.50000000E-01  8.50000000E-01  8.50000000E-01
  8.00000000E-01  8.50000000E-01  8.50000000E-01  8.50000000E-01  8.00000000E-01
  8.50000000E-01  8.50000000E-01  8.50000000E-01  8.00000000E-01  8.50000000E-01
  8.50000000E-01  8.50000000E-01  8.00000000E-01  8.50000000E-01  8.50000000E-01
  8.50000000E-01  8.00000000E-01  8.50000000E-01  8.50000000E-01  8.50000000E-01
  8.00000000E-01  8.50000000E-01  8.50000000E-01  8.50000000E-01  8.00000000E-01
  8.50000000E-01  8.50000000E-01  8.50000000E-01  8.00000000E-01  8.50000000E-01
  8.50000000E-01  8.50000000E-01  8.00000000E-01  8.50000000E-01  8.50000000E-01
  8.50000000E-01  8.00000000E-01  8.50000000E-01  8.50000000E-01  8.50000000E-01
  8.00000000E-01  8.50000000E-01  8.50000000E-01  8.50000000E-01  8.00000000E-01
  8.50000000E-01  8.50000000E-01  8.50000000E-01  8.00000000E-01  8.50000000E-01
  8.50000000E-01  8.50000000E-01  8.00000000E-01  8.50000000E-01  8.50000000E-01
  8.50000000E-01  8.00000000E-01  8.50000000E-01  8.50000000E-01  8.50000000E-01
  8.00000000E-01  8.50000000E-01  8.50000000E-01  8.50000000E-01  8.00000000E-01
  8.50000000E-01  8.50000000E-01  8.50000000E-01  8.00000000E-01  8.50000000E-01
  8.50000000E-01  8.50000000E-01  8.00000000E-01  8.50000000E-01  8.50000000E-01
  8.50000000E-01  8.00000000E-01  8.50000000E-01  8.50000000E-01  8.50000000E-01
  8.00000000E-01  8.50000000E-01  8.50000000E-01  8.50000000E-01  8.00000000E-01
  8.50000000E-01  8.50000000E-01  8.50000000E-01  8.00000000E-01  8.50000000E-01
  8.50000000E-01  8.50000000E-01  8.00000000E-01  8.50000000E-01  8.50000000E-01
  8.50000000E-01  8.00000000E-01  8.50000000E-01  8.50000000E-01  8.50000000E-01
  8.00000000E-01  8.50000000E-01  8.50000000E-01  8.50000000E-01  8.00000000E-01
  8.50000000E-01  8.50000000E-01  8.50000000E-01  8.00000000E-01  8.50000000E-01
  8.50000000E-01  8.50000000E-01  8.00000000E-01  8.50000000E-01  8.50000000E-01
  8.50000000E-01  8.00000000E-01  8.50000000E-01  8.50000000E-01  8.50000000E-01
  8.00000000E-01  8.50000000E-01  8.50000000E-01  8.50000000E-01  8.00000000E-01
  8.50000000E-01  8.50000000E-01  8.50000000E-01  8.00000000E-01  8.50000000E-01
  8.50000000E-01  8.50000000E-01  8.00000000E-01  8.50000000E-01  8.50000000E-01
  8.50000000E-01  8.00000000E-01  8.50000000E-01  8.50000000E-01  8.50000000E-01
  8.00000000E-01  8.50000000E-01  8.50000000E-01  8.50000000E-01  8.00000000E-01
  8.50000000E-01  8.50000000E-01  8.50000000E-01  8.00000000E-01  8.50000000E-01
  8.50000000E-01  8.50000000E-01  8.00000000E-01  8.50000000E-01  8.50000000E-01
  8.50000000E-01  8.00000000E-01  8.50000000E-01  8.50000000E-01  8.50000000E-01
  8.00000000E-01  8.50000000E-01  8.50000000E-01  8.50000000E-01  8.00000000E-01
  8.50000000E-01  8.50000000E-01  8.50000000E-01  8.00000000E-01  8.50000000E-01
  8.50000000E-01  8.50000000E-01  8.00000000E-01  8.50000000E-01  8.50000000E-01
  8.50000000E-01  8.00000000E-01  8.50000000E-01  8.50000000E-01  8.50000000E-01
  8.00000000E-01  8.50000000E-01  8.50000000E-01  8.50000000E-01  8.00000000E-01
  8.50000000E-01  8.50000000E-01  8.50000000E-01  8.00000000E-01  8.50000000E-01
  8.50000000E-01  8.50000000E-01  8.00000000E-01  8.50000000E-01  8.50000000E-01
  8.50000000E-01  8.00000000E-01  8.50000000E-01  8.50000000E-01  8.50000000E-01
  8.00000000E-01  8.50000000E-01  8.50000000E-01  8.50000000E-01  8.00000000E-01
  8.50000000E-01  8.50000000E-01  8.50000000E-01  8.00000000E-01  8.50000000E-01
  8.50000000E-01  8.50000000E-01  8.00000000E-01  8.50000000E-01  8.50000000E-01
  8.50000000E-01  8.00000000E-01  8.50000000E-01  8.50000000E-01  8.50000000E-01
  8.00000000E-01  8.50000000E-01  8.50000000E-01  8.50000000E-01  8.00000000E-01
  8.50000000E-01  8.50000000E-01  8.50000000E-01  8.00000000E-01  8.50000000E-01
  8.50000000E-01  8.50000000E-01  8.00000000E-01  8.50000000E-01  8.50000000E-01
  8.50000000E-01  8.00000000E-01  8.50000000E-01  8.50000000E-01  8.50000000E-01
  8.00000000E-01  8.50000000E-01  8.50000000E-01  8.50000000E-01  8.00000000E-01
  8.50000000E-01  8.50000000E-01  8.50000000E-01  8.00000000E-01  8.50000000E-01
  8.50000000E-01  8.50000000E-01  8.00000000E-01  8.50000000E-01  8.50000000E-01
  8.50000000E-01  8.00000000E-01  8.50000000E-01  8.50000000E-01  8.50000000E-01
  8.00000000E-01  8.50000000E-01  8.50000000E-01  8.50000000E-01  8.00000000E-01
  8.50000000E-01  8.50000000E-01  8.50000000E-01  8.00000000E-01  8.50000000E-01
  8.50000000E-01  8.50000000E-01  8.00000000E-01  8.50000000E-01  8.50000000E-01
  8.50000000E-01  8.00000000E-01  8.50000000E-01  8.50000000E-01  8.50000000E-01
  8.00000000E-01  8.50000000E-01  8.50000000E-01  8.50000000E-01  8.00000000E-01
  8.50000000E-01  8.50000000E-01  8.50000000E-01  8.00000000E-01  8.50000000E-01
  8.50000000E-01  8.50000000E-01  8.00000000E-01  8.50000000E-01  8.50000000E-01
  8.50000000E-01  8.00000000E-01  8.50000000E-01  8.50000000E-01  8.50000000E-01
  8.00000000E-01  8.50000000E-01  8.50000000E-01  8.50000000E-01  8.00000000E-01
  8.50000000E-01  8.50000000E-01  8.50000000E-01  8.00000000E-01  8.50000000E-01
  8.50000000E-01  8.50000000E-01  8.00000000E-01  8.50000000E-01  8.50000000E-01
  8.50000000E-01  8.00000000E-01  8.50000000E-01  8.50000000E-01  8.50000000E-01
  8.00000000E-01  8.50000000E-01  8.50000000E-01  8.50000000E-01  8.00000000E-01
  8.50000000E-01  8.50000000E-01  8.50000000E-01  8.00000000E-01  8.50000000E-01
  8.50000000E-01  8.50000000E-01  8.00000000E-01  8.50000000E-01  8.50000000E-01
  8.50000000E-01  8.00000000E-01  8.50000000E-01  8.50000000E-01  8.50000000E-01
  8.00000000E-01  8.50000000E-01  8.50000000E-01  8.50000000E-01  8.00000000E-01
  8.50000000E-01  8.50000000E-01  8.50000000E-01  8.00000000E-01  8.50000000E-01
  8.50000000E-01  8.50000000E-01  8.00000000E-01  8.50000000E-01  8.50000000E-01
  8.50000000E-01  8.00000000E-01  8.50000000E-01  8.50000000E-01  8.50000000E-01
  8.00000000E-01  8.50000000E-01  8.50000000E-01  8.50000000E-01  8.00000000E-01
  8.50000000E-01  8.50000000E-01  8.50000000E-01  8.00000000E-01  8.50000000E-01
  8.50000000E-01  8.50000000E-01  8.00000000E-01  8.50000000E-01  8.50000000E-01
  8.50000000E-01  8.00000000E-01  8.50000000E-01  8.50000000E-01  8.50000000E-01
  8.00000000E-01  8.50000000E-01  8.50000000E-01  8.50000000E-01  8.00000000E-01
  8.50000000E-01  8.50000000E-01  8.50000000E-01  8.00000000E-01  8.50000000E-01
  8.50000000E-01  8.50000000E-01  8.00000000E-01  8.50000000E-01  8.50000000E-01
  8.50000000E-01  8.00000000E-01  8.50000000E-01  8.50000000E-01  8.50000000E-01
  8.00000000E-01  8.50000000E-01  8.50000000E-01  8.50000000E-01  8.00000000E-01
  8.50000000E-01  8.50000000E-01  8.50000000E-01  8.00000000E-01  8.50000000E-01
  8.50000000E-01  8.50000000E-01  8.00000000E-01  8.50000000E-01  8.50000000E-01
  8.50000000E-01  8.00000000E-01  8.50000000E-01  8.50000000E-01  8.50000000E-01
  8.00000000E-01  8.50000000E-01  8.50000000E-01  8.50000000E-01  8.00000000E-01
  8.50000000E-01  8.50000000E-01  8.50000000E-01  8.00000000E-01  8.50000000E-01
  8.50000000E-01  8.50000000E-01  8.00000000E-01  8.50000000E-01  8.50000000E-01
  8.50000000E-01  8.00000000E-01  8.50000000E-01  8.50000000E-01  8.50000000E-01
  8.00000000E-01  8.50000000E-01  8.50000000E-01  8.50000000E-01  8.00000000E-01
  8.50000000E-01  8.50000000E-01  8.50000000E-01  8.00000000E-01  8.50000000E-01
  8.50000000E-01  8.50000000E-01  8.00000000E-01  8.50000000E-01  8.50000000E-01
  8.50000000E-01  8.00000000E-01  8.50000000E-01  8.50000000E-01  8.50000000E-01
  8.00000000E-01  8.50000000E-01  8.50000000E-01  8.50000000E-01  8.00000000E-01
  8.50000000E-01  8.50000000E-01  8.50000000E-01  8.00000000E-01  8.50000000E-01
  8.50000000E-01  8.50000000E-01  8.00000000E-01  8.50000000E-01  8.50000000E-01
  8.50000000E-01  8.00000000E-01  8.50000000E-01  8.50000000E-01  8.50000000E-01
  8.00000000E-01  8.50000000E-01  8.50000000E-01  8.50000000E-01  8.00000000E-01
  8.50000000E-01  8.50000000E-01  8.50000000E-01  8.00000000E-01  8.50000000E-01
  8.50000000E-01  8.50000000E-01  8.00000000E-01  8.50000000E-01  8.50000000E-01
  8.50000000E-01  8.00000000E-01  8.50000000E-01  8.50000000E-01  8.50000000E-01
  8.00000000E-01  8.50000000E-01  8.50000000E-01  8.50000000E-01  8.00000000E-01
  8.50000000E-01  8.50000000E-01  8.50000000E-01  8.00000000E-01  8.50000000E-01
  8.50000000E-01  8.50000000E-01  8.00000000E-01  8.50000000E-01  8.50000000E-01
  8.50000000E-01  8.00000000E-01  8.50000000E-01  8.50000000E-01  8.50000000E-01
  8.00000000E-01  8.50000000E-01  8.50000000E-01  8.50000000E-01  8.00000000E-01
  8.50000000E-01  8.50000000E-01  8.50000000E-01  8.00000000E-01  8.50000000E-01
  8.50000000E-01  8.50000000E-01  8.00000000E-01  8.50000000E-01  8.50000000E-01
  8.50000000E-01  8.00000000E-01  8.50000000E-01  8.50000000E-01  8.50000000E-01
  8.00000000E-01  8.50000000E-01  8.50000000E-01  8.50000000E-01  8.00000000E-01
  8.50000000E-01  8.50000000E-01  8.50000000E-01  8.00000000E-01  8.50000000E-01
  8.50000000E-01  8.50000000E-01  8.00000000E-01  8.50000000E-01  8.50000000E-01
  8.50000000E-01  8.00000000E-01  8.50000000E-01  8.50000000E-01  8.50000000E-01
  8.00000000E-01  8.50000000E-01  8.50000000E-01  8.50000000E-01  8.00000000E-01
  8.50000000E-01  8.50000000E-01  8.50000000E-01  8.00000000E-01  8.50000000E-01
  8.50000000E-01  8.50000000E-01  8.00000000E-01  8.50000000E-01  8.50000000E-01
  8.50000000E-01  8.00000000E-01  8.50000000E-01  8.50000000E-01  8.50000000E-01
  8.00000000E-01  8.50000000E-01  8.50000000E-01  8.50000000E-01  8.00000000E-01
  8.50000000E-01  8.50000000E-01  8.50000000E-01  8.00000000E-01  8.50000000E-01
  8.50000000E-01  8.50000000E-01  8.00000000E-01  8.50000000E-01  8.50000000E-01
  8.50000000E-01  8.00000000E-01  8.50000000E-01  8.50000000E-01  8.50000000E-01
  8.00000000E-01  8.50000000E-01  8.50000000E-01  8.50000000E-01  8.00000000E-01
  8.50000000E-01  8.50000000E-01  8.50000000E-01  8.00000000E-01  8.50000000E-01
  8.50000000E-01  8.50000000E-01  8.00000000E-01  8.50000000E-01  8.50000000E-01
  8.50000000E-01  8.00000000E-01  8.50000000E-01  8.50000000E-01  8.50000000E-01
  8.00000000E-01  8.50000000E-01  8.50000000E-01  8.50000000E-01  8.00000000E-01
  8.50000000E-01  8.50000000E-01  8.50000000E-01  8.00000000E-01  8.50000000E-01
  8.50000000E-01  8.50000000E-01  8.00000000E-01  8.50000000E-01  8.50000000E-01
  8.50000000E-01  8.00000000E-01  8.50000000E-01  8.50000000E-01  8.50000000E-01
  8.00000000E-01  8.50000000E-01  8.50000000E-01  8.50000000E-01  8.00000000E-01
  8.50000000E-01  8.50000000E-01  8.50000000E-01  8.00000000E-01  8.50000000E-01
  8.50000000E-01  8.50000000E-01  8.00000000E-01  8.50000000E-01  8.50000000E-01
  8.50000000E-01  8.00000000E-01  8.50000000E-01  8.50000000E-01  8.50000000E-01
  8.00000000E-01  8.50000000E-01  8.50000000E-01  8.50000000E-01  8.00000000E-01
  8.50000000E-01  8.50000000E-01  8.50000000E-01  8.00000000E-01  8.50000000E-01
  8.50000000E-01  8.50000000E-01  8.00000000E-01  8.50000000E-01  8.50000000E-01
  8.50000000E-01  8.00000000E-01  8.50000000E-01  8.50000000E-01  8.50000000E-01
  8.00000000E-01  8.50000000E-01  8.50000000E-01  8.50000000E-01  8.00000000E-01
  8.50000000E-01  8.50000000E-01  8.50000000E-01  8.00000000E-01  8.50000000E-01
  8.50000000E-01  8.50000000E-01  8.00000000E-01  8.50000000E-01  8.50000000E-01
  8.50000000E-01  8.00000000E-01  8.50000000E-01  8.50000000E-01  8.50000000E-01
  8.00000000E-01  8.50000000E-01  8.50000000E-01  8.50000000E-01  8.00000000E-01
  8.50000000E-01  8.50000000E-01  8.50000000E-01  8.00000000E-01  8.50000000E-01
  8.50000000E-01  8.50000000E-01  8.00000000E-01  8.50000000E-01  8.50000000E-01
  8.50000000E-01  8.00000000E-01  8.50000000E-01  8.50000000E-01  8.50000000E-01
  8.00000000E-01  8.50000000E-01  8.50000000E-01  8.50000000E-01  8.00000000E-01
  8.50000000E-01  8.50000000E-01  8.50000000E-01  8.00000000E-01  8.50000000E-01
  8.50000000E-01  8.50000000E-01  8.00000000E-01  8.50000000E-01  8.50000000E-01
  8.50000000E-01  8.00000000E-01  8.50000000E-01  8.50000000E-01  8.50000000E-01
  8.00000000E-01  8.50000000E-01  8.50000000E-01  8.50000000E-01  8.00000000E-01
  8.50000000E-01  8.50000000E-01  8.50000000E-01  8.00000000E-01  8.50000000E-01
  8.50000000E-01  8.50000000E-01  8.00000000E-01  8.50000000E-01  8.50000000E-01
  8.50000000E-01  8.00000000E-01  8.50000000E-01  8.50000000E-01  8.50000000E-01
  8.00000000E-01  8.50000000E-01  8.50000000E-01  8.50000000E-01  8.00000000E-01
  8.50000000E-01  8.50000000E-01  8.50000000E-01  8.00000000E-01  8.50000000E-01
  8.50000000E-01  8.50000000E-01  8.00000000E-01  8.50000000E-01  8.50000000E-01
  8.50000000E-01  8.00000000E-01  8.50000000E-01  8.50000000E-01  8.50000000E-01
  8.00000000E-01  8.50000000E-01  8.50000000E-01  8.50000000E-01  8.00000000E-01
  8.50000000E-01  8.50000000E-01  8.50000000E-01  8.00000000E-01  8.50000000E-01
  8.50000000E-01  8.50000000E-01  8.00000000E-01  8.50000000E-01  8.50000000E-01
  8.50000000E-01  8.00000000E-01  8.50000000E-01  8.50000000E-01  8.50000000E-01
  8.00000000E-01  8.50000000E-01  8.50000000E-01  8.50000000E-01  8.00000000E-01
  8.50000000E-01  8.50000000E-01  8.50000000E-01  8.00000000E-01  8.50000000E-01
  8.50000000E-01  8.50000000E-01  8.00000000E-01  8.50000000E-01  8.50000000E-01
  8.50000000E-01  8.00000000E-01  8.50000000E-01  8.50000000E-01  8.50000000E-01
  8.00000000E-01  8.50000000E-01  8.50000000E-01  8.50000000E-01  8.00000000E-01
  8.50000000E-01  8.50000000E-01  8.50000000E-01  8.00000000E-01  8.50000000E-01
  8.50000000E-01  8.50000000E-01  8.00000000E-01  8.50000000E-01  8.50000000E-01
  8.50000000E-01  8.00000000E-01  8.50000000E-01  8.50000000E-01  8.50000000E-01
  8.00000000E-01  8.50000000E-01  8.50000000E-01  8.50000000E-01  8.00000000E-01
  8.50000000E-01  8.50000000E-01  8.50000000E-01  8.00000000E-01  8.50000000E-01
  8.50000000E-01  8.50000000E-01  8.00000000E-01  8.50000000E-01  8.50000000E-01
  8.50000000E-01  8.00000000E-01  8.50000000E-01  8.50000000E-01  8.50000000E-01
  8.00000000E-01  8.50000000E-01  8.50000000E-01  8.50000000E-01  8.00000000E-01
  8.50000000E-01  8.50000000E-01  8.50000000E-01  8.00000000E-01  8.50000000E-01
  8.50000000E-01  8.50000000E-01  8.00000000E-01  8.50000000E-01  8.50000000E-01
  8.50000000E-01  8.00000000E-01  8.50000000E-01  8.50000000E-01  8.50000000E-01
  8.00000000E-01  8.50000000E-01  8.50000000E-01  8.50000000E-01  8.00000000E-01
  8.50000000E-01  8.50000000E-01  8.50000000E-01  8.00000000E-01  8.50000000E-01
  8.50000000E-01  8.50000000E-01  8.00000000E-01  8.50000000E-01  8.50000000E-01
  8.50000000E-01  8.00000000E-01  8.50000000E-01  8.50000000E-01  8.50000000E-01
  8.00000000E-01  8.50000000E-01  8.50000000E-01  8.50000000E-01  8.00000000E-01
  8.50000000E-01  8.50000000E-01  8.50000000E-01  8.00000000E-01  8.50000000E-01
  8.50000000E-01  8.50000000E-01  8.00000000E-01  8.50000000E-01  8.50000000E-01
  8.50000000E-01  8.00000000E-01  8.50000000E-01  8.50000000E-01  8.50000000E-01
  8.00000000E-01  8.50000000E-01  8.50000000E-01  8.50000000E-01  8.00000000E-01
  8.50000000E-01  8.50000000E-01  8.50000000E-01  8.00000000E-01  8.50000000E-01
  8.50000000E-01  8.50000000E-01  8.00000000E-01  8.50000000E-01  8.50000000E-01
  8.50000000E-01  8.00000000E-01  8.50000000E-01  8.50000000E-01  8.50000000E-01
  8.00000000E-01  8.50000000E-01  8.50000000E-01  8.50000000E-01  8.00000000E-01
  8.50000000E-01  8.50000000E-01  8.50000000E-01  8.00000000E-01  8.50000000E-01
  8.50000000E-01  8.50000000E-01  8.00000000E-01  8.50000000E-01  8.50000000E-01
  8.50000000E-01  8.00000000E-01  8.50000000E-01  8.50000000E-01  8.50000000E-01
  8.00000000E-01  8.50000000E-01  8.50000000E-01  8.50000000E-01  8.00000000E-01
  8.50000000E-01  8.50000000E-01  8.50000000E-01  8.00000000E-01  8.50000000E-01
  8.50000000E-01  8.50000000E-01  8.00000000E-01  8.50000000E-01  8.50000000E-01
  8.50000000E-01  8.00000000E-01  8.50000000E-01  8.50000000E-01  8.50000000E-01
  8.00000000E-01  8.50000000E-01  8.50000000E-01  8.50000000E-01  8.00000000E-01
  8.50000000E-01  8.50000000E-01  8.50000000E-01  8.00000000E-01  8.50000000E-01
  8.50000000E-01  8.50000000E-01  8.00000000E-01  8.50000000E-01  8.50000000E-01
  8.50000000E-01  8.00000000E-01  8.50000000E-01  8.50000000E-01  8.50000000E-01
  8.00000000E-01  8.50000000E-01  8.50000000E-01  8.50000000E-01  8.00000000E-01
  8.50000000E-01  8.50000000E-01  8.50000000E-01  8.00000000E-01  8.50000000E-01
  8.50000000E-01  8.50000000E-01  8.00000000E-01  8.50000000E-01  8.50000000E-01
  8.50000000E-01  8.00000000E-01  8.50000000E-01  8.50000000E-01  8.50000000E-01
  8.00000000E-01  8.50000000E-01  8.50000000E-01  8.50000000E-01  8.00000000E-01
  8.50000000E-01  8.50000000E-01  8.50000000E-01  8.00000000E-01  8.50000000E-01
  8.50000000E-01  8.50000000E-01  8.00000000E-01  8.50000000E-01  8.50000000E-01
  8.50000000E-01  8.00000000E-01  8.50000000E-01  8.50000000E-01  8.50000000E-01
  8.00000000E-01  8.50000000E-01  8.50000000E-01  8.50000000E-01  8.00000000E-01
  8.50000000E-01  8.50000000E-01  8.50000000E-01  8.00000000E-01  8.50000000E-01
  8.50000000E-01  8.50000000E-01  8.00000000E-01  8.50000000E-01  8.50000000E-01
  8.50000000E-01  8.00000000E-01  8.50000000E-01  8.50000000E-01  8.50000000E-01
  8.00000000E-01  8.50000000E-01  8.50000000E-01  8.50000000E-01  8.00000000E-01
  8.50000000E-01  8.50000000E-01  8.50000000E-01  8.00000000E-01  8.50000000E-01
  8.50000000E-01  8.50000000E-01  8.00000000E-01  8.50000000E-01  8.50000000E-01
  8.50000000E-01  8.00000000E-01  8.50000000E-01  8.50000000E-01  8.50000000E-01
  8.00000000E-01  8.50000000E-01  8.50000000E-01  8.50000000E-01  8.00000000E-01
  8.50000000E-01  8.50000000E-01  8.50000000E-01  8.00000000E-01  8.50000000E-01
  8.50000000E-01  8.50000000E-01  8.00000000E-01  8.50000000E-01  8.50000000E-01
  8.50000000E-01  8.00000000E-01  8.50000000E-01  8.50000000E-01  8.50000000E-01
  8.00000000E-01  8.50000000E-01  8.50000000E-01  8.50000000E-01  8.00000000E-01
  8.50000000E-01  8.50000000E-01  8.50000000E-01  8.00000000E-01  8.50000000E-01
  8.50000000E-01  8.50000000E-01  8.00000000E-01  8.50000000E-01  8.50000000E-01
  8.50000000E-01  8.00000000E-01  8.50000000E-01  8.50000000E-01  8.50000000E-01
  8.00000000E-01  8.50000000E-01  8.50000000E-01  8.50000000E-01  8.00000000E-01
  8.50000000E-01  8.50000000E-01  8.50000000E-01  8.00000000E-01  8.50000000E-01
  8.50000000E-01  8.50000000E-01  8.00000000E-01  8.50000000E-01  8.50000000E-01
  8.50000000E-01  8.00000000E-01  8.50000000E-01  8.50000000E-01  8.50000000E-01
  8.00000000E-01  8.50000000E-01  8.50000000E-01  8.50000000E-01  8.00000000E-01
  8.50000000E-01  8.50000000E-01  8.50000000E-01  8.00000000E-01  8.50000000E-01
  8.50000000E-01  8.50000000E-01  8.00000000E-01  8.50000000E-01  8.50000000E-01
  8.50000000E-01  8.00000000E-01  8.50000000E-01  8.50000000E-01  8.50000000E-01
  8.00000000E-01  8.50000000E-01  8.50000000E-01  8.50000000E-01  8.00000000E-01
  8.50000000E-01  8.50000000E-01  8.50000000E-01  8.00000000E-01  8.50000000E-01
  8.50000000E-01  8.50000000E-01  8.00000000E-01  8.50000000E-01  8.50000000E-01
  8.50000000E-01  8.00000000E-01  8.50000000E-01  8.50000000E-01  8.50000000E-01
  8.00000000E-01  8.50000000E-01  8.50000000E-01  8.50000000E-01  8.00000000E-01
  8.50000000E-01  8.50000000E-01  8.50000000E-01  8.00000000E-01  8.50000000E-01
  8.50000000E-01  8.50000000E-01  8.00000000E-01  8.50000000E-01  8.50000000E-01
  8.50000000E-01  8.00000000E-01  8.50000000E-01  8.50000000E-01  8.50000000E-01
  8.00000000E-01  8.50000000E-01  8.50000000E-01  8.50000000E-01  8.00000000E-01
  8.50000000E-01  8.50000000E-01  8.50000000E-01  8.00000000E-01  8.50000000E-01
  8.50000000E-01  8.50000000E-01  8.00000000E-01  8.50000000E-01  8.50000000E-01
  8.50000000E-01  8.00000000E-01  8.50000000E-01  8.50000000E-01  8.50000000E-01
  8.00000000E-01  8.50000000E-01  8.50000000E-01  8.50000000E-01  8.00000000E-01
  8.50000000E-01  8.50000000E-01  8.50000000E-01  8.00000000E-01  8.50000000E-01
  8.50000000E-01  8.50000000E-01  8.00000000E-01  8.50000000E-01  8.50000000E-01
  8.50000000E-01  8.00000000E-01  8.50000000E-01  8.50000000E-01  8.50000000E-01
  8.00000000E-01  8.50000000E-01  8.50000000E-01  8.50000000E-01  8.00000000E-01
  8.50000000E-01  8.50000000E-01  8.50000000E-01  8.00000000E-01  8.50000000E-01
  8.50000000E-01  8.50000000E-01  8.00000000E-01  8.50000000E-01  8.50000000E-01
  8.50000000E-01  8.00000000E-01  8.50000000E-01  8.50000000E-01  8.50000000E-01
  8.00000000E-01  8.50000000E-01  8.50000000E-01  8.50000000E-01  8.00000000E-01
  8.50000000E-01  8.50000000E-01  8.50000000E-01  8.00000000E-01  8.50000000E-01
  8.50000000E-01  8.50000000E-01  8.00000000E-01  8.50000000E-01  8.50000000E-01
  8.50000000E-01  8.00000000E-01  8.50000000E-01  8.50000000E-01  8.50000000E-01
  8.00000000E-01  8.50000000E-01  8.50000000E-01  8.50000000E-01  8.00000000E-01
  8.50000000E-01  8.50000000E-01  8.50000000E-01  8.00000000E-01  8.50000000E-01
  8.50000000E-01  8.50000000E-01  8.00000000E-01  8.50000000E-01  8.50000000E-01
  8.50000000E-01  8.00000000E-01  8.50000000E-01  8.50000000E-01  8.50000000E-01
  8.00000000E-01  8.50000000E-01  8.50000000E-01  8.50000000E-01  8.00000000E-01
  8.50000000E-01  8.50000000E-01  8.50000000E-01  8.00000000E-01  8.50000000E-01
  8.50000000E-01  8.50000000E-01  8.00000000E-01  8.50000000E-01  8.50000000E-01
  8.50000000E-01  8.00000000E-01  8.50000000E-01  8.50000000E-01  8.50000000E-01
  8.00000000E-01  8.50000000E-01  8.50000000E-01  8.50000000E-01  8.00000000E-01
  8.50000000E-01  8.50000000E-01  8.50000000E-01  8.00000000E-01  8.50000000E-01
  8.50000000E-01  8.50000000E-01  8.00000000E-01  8.50000000E-01  8.50000000E-01
  8.50000000E-01  8.00000000E-01  8.50000000E-01  8.50000000E-01  8.50000000E-01
  8.00000000E-01  8.50000000E-01  8.50000000E-01  8.50000000E-01  8.00000000E-01
  8.50000000E-01  8.50000000E-01  8.50000000E-01  8.00000000E-01  8.50000000E-01
  8.50000000E-01  8.50000000E-01  8.00000000E-01  8.50000000E-01  8.50000000E-01
  8.50000000E-01  8.00000000E-01  8.50000000E-01  8.50000000E-01  8.50000000E-01
  8.00000000E-01  8.50000000E-01  8.50000000E-01  8.50000000E-01  8.00000000E-01
  8.50000000E-01  8.50000000E-01  8.50000000E-01  8.00000000E-01  8.50000000E-01
  8.50000000E-01  8.50000000E-01  8.00000000E-01  8.50000000E-01  8.50000000E-01
  8.50000000E-01  8.00000000E-01  8.50000000E-01  8.50000000E-01  8.50000000E-01
  8.00000000E-01  8.50000000E-01  8.50000000E-01  8.50000000E-01  8.00000000E-01
  8.50000000E-01  8.50000000E-01  8.50000000E-01  8.00000000E-01  8.50000000E-01
  8.50000000E-01  8.50000000E-01  8.00000000E-01  8.50000000E-01  8.50000000E-01
  8.50000000E-01  8.00000000E-01  8.50000000E-01  8.50000000E-01  8.50000000E-01
  8.00000000E-01  8.50000000E-01  8.50000000E-01  8.50000000E-01  8.00000000E-01
  8.50000000E-01  8.50000000E-01  8.50000000E-01  8.00000000E-01  8.50000000E-01
  8.50000000E-01  8.50000000E-01  8.00000000E-01  8.50000000E-01  8.50000000E-01
  8.50000000E-01  8.00000000E-01  8.50000000E-01  8.50000000E-01  8.50000000E-01
  8.00000000E-01  8.50000000E-01  8.50000000E-01  8.50000000E-01  8.00000000E-01
  8.50000000E-01  8.50000000E-01  8.50000000E-01  8.00000000E-01  8.50000000E-01
  8.50000000E-01  8.50000000E-01  8.00000000E-01  8.50000000E-01  8.50000000E-01
  8.50000000E-01  8.00000000E-01  8.50000000E-01  8.50000000E-01  8.50000000E-01
  8.00000000E-01  8.50000000E-01  8.50000000E-01  8.50000000E-01  8.00000000E-01
  8.50000000E-01  8.50000000E-01  8.50000000E-01  8.00000000E-01  8.50000000E-01
  8.50000000E-01  8.50000000E-01  8.00000000E-01  8.50000000E-01  8.50000000E-01
  8.50000000E-01  8.00000000E-01  8.50000000E-01  8.50000000E-01  8.50000000E-01
  8.00000000E-01  8.50000000E-01  8.50000000E-01  8.50000000E-01  8.00000000E-01
  8.50000000E-01  8.50000000E-01  8.50000000E-01  8.00000000E-01  8.50000000E-01
  8.50000000E-01  8.50000000E-01  8.00000000E-01  8.50000000E-01  8.50000000E-01
  8.50000000E-01  8.00000000E-01  8.50000000E-01  8.50000000E-01  8.50000000E-01
  8.00000000E-01  8.50000000E-01  8.50000000E-01  8.50000000E-01  8.00000000E-01
  8.50000000E-01  8.50000000E-01  8.50000000E-01  8.00000000E-01  8.50000000E-01
  8.50000000E-01  8.50000000E-01  8.00000000E-01  8.50000000E-01  8.50000000E-01
  8.50000000E-01  8.00000000E-01  8.50000000E-01  8.50000000E-01  8.50000000E-01
  8.00000000E-01  8.50000000E-01  8.50000000E-01  8.50000000E-01  8.00000000E-01
  8.50000000E-01  8.50000000E-01  8.50000000E-01  8.00000000E-01  8.50000000E-01
  8.50000000E-01  8.50000000E-01  8.00000000E-01  8.50000000E-01  8.50000000E-01
  8.50000000E-01  8.00000000E-01  8.50000000E-01  8.50000000E-01  8.50000000E-01
  8.00000000E-01  8.50000000E-01  8.50000000E-01  8.50000000E-01  8.00000000E-01
  8.50000000E-01  8.50000000E-01  8.50000000E-01  8.00000000E-01  8.50000000E-01
  8.50000000E-01  8.50000000E-01  8.00000000E-01  8.50000000E-01  8.50000000E-01
  8.50000000E-01  8.00000000E-01  8.50000000E-01  8.50000000E-01  8.50000000E-01
  8.00000000E-01  8.50000000E-01  8.50000000E-01  8.50000000E-01  8.00000000E-01
  8.50000000E-01  8.50000000E-01  8.50000000E-01  8.00000000E-01  8.50000000E-01
  8.50000000E-01  8.50000000E-01  8.00000000E-01  8.50000000E-01  8.50000000E-01
  8.50000000E-01  8.00000000E-01  8.50000000E-01  8.50000000E-01  8.50000000E-01
  8.00000000E-01  8.50000000E-01  8.50000000E-01  8.50000000E-01  8.00000000E-01
  8.50000000E-01  8.50000000E-01  8.50000000E-01  8.00000000E-01  8.50000000E-01
  8.50000000E-01  8.50000000E-01  8.00000000E-01  8.50000000E-01  8.50000000E-01
  8.50000000E-01  8.00000000E-01  8.50000000E-01  8.50000000E-01  8.50000000E-01
  8.00000000E-01  8.50000000E-01  8.50000000E-01  8.50000000E-01  8.00000000E-01
  8.50000000E-01  8.50000000E-01  8.50000000E-01  8.00000000E-01  8.50000000E-01
  8.50000000E-01  8.50000000E-01  8.00000000E-01  8.50000000E-01  8.50000000E-01
  8.50000000E-01  8.00000000E-01  8.50000000E-01  8.50000000E-01  8.50000000E-01
  8.00000000E-01  8.50000000E-01  8.50000000E-01  8.50000000E-01  8.00000000E-01
  8.50000000E-01  8.50000000E-01  8.50000000E-01  8.00000000E-01  8.50000000E-01
  8.50000000E-01  8.50000000E-01  8.00000000E-01  8.50000000E-01  8.50000000E-01
  8.50000000E-01  8.00000000E-01  8.50000000E-01  8.50000000E-01  8.50000000E-01
  8.00000000E-01  8.50000000E-01  8.50000000E-01  8.50000000E-01  8.00000000E-01
  8.50000000E-01  8.50000000E-01  8.50000000E-01  8.00000000E-01  8.50000000E-01
  8.50000000E-01  8.50000000E-01  8.00000000E-01  8.50000000E-01  8.50000000E-01
  8.50000000E-01  8.00000000E-01  8.50000000E-01  8.50000000E-01  8.50000000E-01
  8.00000000E-01  8.50000000E-01  8.50000000E-01  8.50000000E-01  8.00000000E-01
  8.50000000E-01  8.50000000E-01  8.50000000E-01  8.00000000E-01  8.50000000E-01
  8.50000000E-01  8.50000000E-01  8.00000000E-01  8.50000000E-01  8.50000000E-01
  8.50000000E-01  8.00000000E-01  8.50000000E-01  8.50000000E-01  8.50000000E-01
  8.00000000E-01  8.50000000E-01  8.50000000E-01  8.50000000E-01  8.00000000E-01
  8.50000000E-01  8.50000000E-01  8.50000000E-01  8.00000000E-01  8.50000000E-01
  8.50000000E-01  8.50000000E-01  8.00000000E-01  8.50000000E-01  8.50000000E-01
  8.50000000E-01  8.00000000E-01  8.50000000E-01  8.50000000E-01  8.50000000E-01
  8.00000000E-01  8.50000000E-01  8.50000000E-01  8.50000000E-01  8.00000000E-01
  8.50000000E-01  8.50000000E-01  8.50000000E-01  8.00000000E-01  8.50000000E-01
  8.50000000E-01  8.50000000E-01  8.00000000E-01  8.50000000E-01  8.50000000E-01
  8.50000000E-01  8.00000000E-01  8.50000000E-01  8.50000000E-01  8.50000000E-01
  8.00000000E-01  8.50000000E-01  8.50000000E-01  8.50000000E-01  8.00000000E-01
  8.50000000E-01  8.50000000E-01  8.50000000E-01  8.00000000E-01  8.50000000E-01
  8.50000000E-01  8.50000000E-01  8.00000000E-01  8.50000000E-01  8.50000000E-01
  8.50000000E-01  8.00000000E-01  8.50000000E-01  8.50000000E-01  8.50000000E-01
  8.00000000E-01  8.50000000E-01  8.50000000E-01  8.50000000E-01  8.00000000E-01
  8.50000000E-01  8.50000000E-01  8.50000000E-01  8.00000000E-01  8.50000000E-01
  8.50000000E-01  8.50000000E-01  8.00000000E-01  8.50000000E-01  8.50000000E-01
  8.50000000E-01  8.00000000E-01  8.50000000E-01  8.50000000E-01  8.50000000E-01
  8.00000000E-01  8.50000000E-01  8.50000000E-01  8.50000000E-01  8.00000000E-01
  8.50000000E-01  8.50000000E-01  8.50000000E-01  8.00000000E-01  8.50000000E-01
  8.50000000E-01  8.50000000E-01  8.00000000E-01  8.50000000E-01  8.50000000E-01
  8.50000000E-01  8.00000000E-01  8.50000000E-01  8.50000000E-01  8.50000000E-01
  8.00000000E-01  8.50000000E-01  8.50000000E-01  8.50000000E-01  8.00000000E-01
  8.50000000E-01  8.50000000E-01  8.50000000E-01  8.00000000E-01  8.50000000E-01
  8.50000000E-01  8.50000000E-01  8.00000000E-01  8.50000000E-01  8.50000000E-01
  8.50000000E-01  8.00000000E-01  8.50000000E-01  8.50000000E-01  8.50000000E-01
  8.00000000E-01  8.50000000E-01  8.50000000E-01  8.50000000E-01  8.00000000E-01
  8.50000000E-01  8.50000000E-01  8.50000000E-01  8.00000000E-01  8.50000000E-01
  8.50000000E-01  8.50000000E-01  8.00000000E-01  8.50000000E-01  8.50000000E-01
  8.50000000E-01  8.00000000E-01  8.50000000E-01  8.50000000E-01  8.50000000E-01
  8.00000000E-01  8.50000000E-01  8.50000000E-01  8.50000000E-01  8.00000000E-01
  8.50000000E-01  8.50000000E-01  8.50000000E-01  8.00000000E-01  8.50000000E-01
  8.50000000E-01  8.50000000E-01  8.00000000E-01  8.50000000E-01  8.50000000E-01
  8.50000000E-01  8.00000000E-01  8.50000000E-01  8.50000000E-01  8.50000000E-01
  8.00000000E-01  8.50000000E-01  8.50000000E-01  8.50000000E-01  8.00000000E-01
  8.50000000E-01  8.50000000E-01  8.50000000E-01  8.00000000E-01  8.50000000E-01
  8.50000000E-01  8.50000000E-01  8.00000000E-01  8.50000000E-01  8.50000000E-01
  8.50000000E-01  8.00000000E-01  8.50000000E-01  8.50000000E-01  8.50000000E-01
  8.00000000E-01  8.50000000E-01  8.50000000E-01  8.50000000E-01  8.00000000E-01
  8.50000000E-01  8.50000000E-01  8.50000000E-01  8.00000000E-01  8.50000000E-01
  8.50000000E-01  8.50000000E-01  8.00000000E-01  8.50000000E-01  8.50000000E-01
  8.50000000E-01  8.00000000E-01  8.50000000E-01  8.50000000E-01  8.50000000E-01
  8.00000000E-01  8.50000000E-01  8.50000000E-01  8.50000000E-01  8.00000000E-01
  8.50000000E-01  8.50000000E-01  8.50000000E-01  8.00000000E-01  8.50000000E-01
  8.50000000E-01  8.50000000E-01  8.00000000E-01  8.50000000E-01  8.50000000E-01
  8.50000000E-01  8.00000000E-01  8.50000000E-01  8.50000000E-01  8.50000000E-01
  8.00000000E-01  8.50000000E-01  8.50000000E-01  8.50000000E-01  8.00000000E-01
  8.50000000E-01  8.50000000E-01  8.50000000E-01  8.00000000E-01  8.50000000E-01
  8.50000000E-01  8.50000000E-01  8.00000000E-01  8.50000000E-01  8.50000000E-01
  8.50000000E-01  8.00000000E-01  8.50000000E-01  8.50000000E-01  8.50000000E-01
  8.00000000E-01  8.50000000E-01  8.50000000E-01  8.50000000E-01  8.00000000E-01
  8.50000000E-01  8.50000000E-01  8.50000000E-01  8.00000000E-01  8.50000000E-01
  8.50000000E-01  8.50000000E-01  8.00000000E-01  8.50000000E-01  8.50000000E-01
  8.50000000E-01  8.00000000E-01  8.50000000E-01  8.50000000E-01  8.50000000E-01
  8.00000000E-01  8.50000000E-01  8.50000000E-01  8.50000000E-01  8.00000000E-01
  8.50000000E-01  8.50000000E-01  8.50000000E-01  8.00000000E-01  8.50000000E-01
  8.50000000E-01  8.50000000E-01  8.00000000E-01  8.50000000E-01  8.50000000E-01
  8.50000000E-01  8.00000000E-01  8.50000000E-01  8.50000000E-01  8.50000000E-01
  8.00000000E-01  8.50000000E-01  8.50000000E-01  8.50000000E-01  8.00000000E-01
  8.50000000E-01  8.50000000E-01  8.50000000E-01  8.00000000E-01  8.50000000E-01
  8.50000000E-01  8.50000000E-01  8.00000000E-01  8.50000000E-01  8.50000000E-01
  8.50000000E-01  8.00000000E-01  8.50000000E-01  8.50000000E-01  8.50000000E-01
  8.00000000E-01  8.50000000E-01  8.50000000E-01  8.50000000E-01  8.00000000E-01
  8.50000000E-01  8.50000000E-01  8.50000000E-01  8.00000000E-01  8.50000000E-01
  8.50000000E-01  8.50000000E-01  8.00000000E-01  8.50000000E-01  8.50000000E-01
  8.50000000E-01  8.00000000E-01  8.50000000E-01  8.50000000E-01  8.50000000E-01
  8.00000000E-01  8.50000000E-01  8.50000000E-01  8.50000000E-01  8.00000000E-01
  8.50000000E-01  8.50000000E-01  8.50000000E-01  8.00000000E-01  8.50000000E-01
  8.50000000E-01  8.50000000E-01  8.00000000E-01  8.50000000E-01  8.50000000E-01
  8.50000000E-01  8.00000000E-01  8.50000000E-01  8.50000000E-01  8.50000000E-01
  8.00000000E-01  8.50000000E-01  8.50000000E-01  8.50000000E-01  8.00000000E-01
  8.50000000E-01  8.50000000E-01  8.50000000E-01  8.00000000E-01  8.50000000E-01
  8.50000000E-01  8.50000000E-01  8.00000000E-01  8.50000000E-01  8.50000000E-01
  8.50000000E-01  8.00000000E-01  8.50000000E-01  8.50000000E-01  8.50000000E-01
  8.00000000E-01  8.50000000E-01  8.50000000E-01  8.50000000E-01  8.00000000E-01
  8.50000000E-01  8.50000000E-01  8.50000000E-01  8.00000000E-01  8.50000000E-01
  8.50000000E-01  8.50000000E-01  8.00000000E-01  8.50000000E-01  8.50000000E-01
  8.50000000E-01  8.00000000E-01  8.50000000E-01  8.50000000E-01  8.50000000E-01
  8.00000000E-01  8.50000000E-01  8.50000000E-01  8.50000000E-01  8.00000000E-01
  8.50000000E-01  8.50000000E-01  8.50000000E-01  8.00000000E-01  8.50000000E-01
  8.50000000E-01  8.50000000E-01  8.00000000E-01  8.50000000E-01  8.50000000E-01
  8.50000000E-01  8.00000000E-01  8.50000000E-01  8.50000000E-01  8.50000000E-01
  8.00000000E-01  8.50000000E-01  8.50000000E-01  8.50000000E-01  8.00000000E-01
  8.50000000E-01  8.50000000E-01  8.50000000E-01  8.00000000E-01  8.50000000E-01
  8.50000000E-01  8.50000000E-01  8.00000000E-01  8.50000000E-01  8.50000000E-01
  8.50000000E-01  8.00000000E-01  8.50000000E-01  8.50000000E-01  8.50000000E-01
  8.00000000E-01  8.50000000E-01  8.50000000E-01  8.50000000E-01  8.00000000E-01
  8.50000000E-01  8.50000000E-01  8.50000000E-01  8.00000000E-01  8.50000000E-01
  8.50000000E-01  8.50000000E-01  8.00000000E-01  8.50000000E-01  8.50000000E-01
  8.50000000E-01  8.00000000E-01  8.50000000E-01  8.50000000E-01  8.50000000E-01
  8.00000000E-01  8.50000000E-01  8.50000000E-01  8.50000000E-01  8.00000000E-01
  8.50000000E-01  8.50000000E-01  8.50000000E-01  8.00000000E-01  8.50000000E-01
  8.50000000E-01  8.50000000E-01  8.00000000E-01  8.50000000E-01  8.50000000E-01
  8.50000000E-01  8.00000000E-01  8.50000000E-01  8.50000000E-01  8.50000000E-01
  8.00000000E-01  8.50000000E-01  8.50000000E-01  8.50000000E-01  8.00000000E-01
  8.50000000E-01  8.50000000E-01  8.50000000E-01  8.00000000E-01  8.50000000E-01
  8.50000000E-01  8.50000000E-01  8.00000000E-01  8.50000000E-01  8.50000000E-01
  8.50000000E-01  8.00000000E-01  8.50000000E-01  8.50000000E-01  8.50000000E-01
  8.00000000E-01  8.50000000E-01  8.50000000E-01  8.50000000E-01  8.00000000E-01
  8.50000000E-01  8.50000000E-01  8.50000000E-01  8.00000000E-01  8.50000000E-01
  8.50000000E-01  8.50000000E-01  8.00000000E-01  8.50000000E-01  8.50000000E-01
  8.50000000E-01  8.00000000E-01  8.50000000E-01  8.50000000E-01  8.50000000E-01
  8.00000000E-01  8.50000000E-01  8.50000000E-01  8.50000000E-01  8.00000000E-01
  8.50000000E-01  8.50000000E-01  8.50000000E-01  8.00000000E-01  8.50000000E-01
  8.50000000E-01  8.50000000E-01  8.00000000E-01  8.50000000E-01  8.50000000E-01
  8.50000000E-01  8.00000000E-01  8.50000000E-01  8.50000000E-01  8.50000000E-01
  8.00000000E-01  8.50000000E-01  8.50000000E-01  8.50000000E-01  8.00000000E-01
  8.50000000E-01  8.50000000E-01  8.50000000E-01  8.00000000E-01  8.50000000E-01
  8.50000000E-01  8.50000000E-01  8.00000000E-01  8.50000000E-01  8.50000000E-01
  8.50000000E-01  8.00000000E-01  8.50000000E-01  8.50000000E-01  8.50000000E-01
  8.00000000E-01  8.50000000E-01  8.50000000E-01  8.50000000E-01  8.00000000E-01
  8.50000000E-01  8.50000000E-01  8.50000000E-01  8.00000000E-01  8.50000000E-01
  8.50000000E-01  8.50000000E-01  8.00000000E-01  8.50000000E-01  8.50000000E-01
  8.50000000E-01  8.00000000E-01  8.50000000E-01  8.50000000E-01  8.50000000E-01
  8.00000000E-01  8.50000000E-01  8.50000000E-01  8.50000000E-01  8.00000000E-01
  8.50000000E-01  8.50000000E-01  8.50000000E-01  8.00000000E-01  8.50000000E-01
  8.50000000E-01  8.50000000E-01  8.00000000E-01  8.50000000E-01  8.50000000E-01
  8.50000000E-01  8.00000000E-01  8.50000000E-01  8.50000000E-01  8.50000000E-01
  8.00000000E-01  8.50000000E-01  8.50000000E-01  8.50000000E-01  8.00000000E-01
  8.50000000E-01  8.50000000E-01  8.50000000E-01  8.00000000E-01  8.50000000E-01
  8.50000000E-01  8.50000000E-01  8.00000000E-01  8.50000000E-01  8.50000000E-01
  8.50000000E-01  8.00000000E-01  8.50000000E-01  8.50000000E-01  8.50000000E-01
  8.00000000E-01  8.50000000E-01  8.50000000E-01  8.50000000E-01  8.00000000E-01
  8.50000000E-01  8.50000000E-01  8.50000000E-01  8.00000000E-01  8.50000000E-01
  8.50000000E-01  8.50000000E-01  8.00000000E-01  8.50000000E-01  8.50000000E-01
  8.50000000E-01  8.00000000E-01  8.50000000E-01  8.50000000E-01  8.50000000E-01
  8.00000000E-01  8.50000000E-01  8.50000000E-01  8.50000000E-01  8.00000000E-01
  8.50000000E-01  8.50000000E-01  8.50000000E-01  8.00000000E-01  8.50000000E-01
  8.50000000E-01  8.50000000E-01  8.00000000E-01  8.50000000E-01  8.50000000E-01
  8.50000000E-01  8.00000000E-01  8.50000000E-01  8.50000000E-01  8.50000000E-01
  8.00000000E-01  8.50000000E-01  8.50000000E-01  8.50000000E-01  8.00000000E-01
  8.50000000E-01  8.50000000E-01  8.50000000E-01  8.00000000E-01  8.50000000E-01
  8.50000000E-01  8.50000000E-01  8.00000000E-01  8.50000000E-01  8.50000000E-01
  8.50000000E-01  8.00000000E-01  8.50000000E-01  8.50000000E-01  8.50000000E-01
  8.00000000E-01  8.50000000E-01  8.50000000E-01  8.50000000E-01  8.00000000E-01
  8.50000000E-01  8.50000000E-01  8.50000000E-01  8.00000000E-01  8.50000000E-01
  8.50000000E-01  8.50000000E-01  8.00000000E-01  8.50000000E-01  8.50000000E-01
  8.50000000E-01  8.00000000E-01  8.50000000E-01  8.50000000E-01  8.50000000E-01
  8.00000000E-01  8.50000000E-01  8.50000000E-01  8.50000000E-01  8.00000000E-01
  8.50000000E-01  8.50000000E-01  8.50000000E-01  8.00000000E-01  8.50000000E-01
  8.50000000E-01  8.50000000E-01  8.00000000E-01  8.50000000E-01  8.50000000E-01
  8.50000000E-01  8.00000000E-01  8.50000000E-01  8.50000000E-01  8.50000000E-01
  8.00000000E-01  8.50000000E-01  8.50000000E-01  8.50000000E-01  8.00000000E-01
  8.50000000E-01  8.50000000E-01  8.50000000E-01  8.00000000E-01  8.50000000E-01
  8.50000000E-01  8.50000000E-01  8.00000000E-01  8.50000000E-01  8.50000000E-01
  8.50000000E-01  8.00000000E-01  8.50000000E-01  8.50000000E-01  8.50000000E-01
  8.00000000E-01  8.50000000E-01  8.50000000E-01  8.50000000E-01  8.00000000E-01
  8.50000000E-01  8.50000000E-01  8.50000000E-01  8.00000000E-01  8.50000000E-01
  8.50000000E-01  8.50000000E-01  8.00000000E-01  8.50000000E-01  8.50000000E-01
  8.50000000E-01  8.00000000E-01  8.50000000E-01  8.50000000E-01  8.50000000E-01
  8.00000000E-01  8.50000000E-01  8.50000000E-01  8.50000000E-01  8.00000000E-01
  8.50000000E-01  8.50000000E-01  8.50000000E-01  8.00000000E-01  8.50000000E-01
  8.50000000E-01  8.50000000E-01  8.00000000E-01  8.50000000E-01  8.50000000E-01
  8.50000000E-01  8.00000000E-01  8.50000000E-01  8.50000000E-01  8.50000000E-01
  8.00000000E-01  8.50000000E-01  8.50000000E-01  8.50000000E-01  8.00000000E-01
  8.50000000E-01  8.50000000E-01  8.50000000E-01  8.00000000E-01  8.50000000E-01
  8.50000000E-01  8.50000000E-01  8.00000000E-01  8.50000000E-01  8.50000000E-01
  8.50000000E-01  8.00000000E-01  8.50000000E-01  8.50000000E-01  8.50000000E-01
  8.00000000E-01  8.50000000E-01  8.50000000E-01  8.50000000E-01  8.00000000E-01
  8.50000000E-01  8.50000000E-01  8.50000000E-01  8.00000000E-01  8.50000000E-01
  8.50000000E-01  8.50000000E-01  8.00000000E-01  8.50000000E-01  8.50000000E-01
  8.50000000E-01  8.00000000E-01  8.50000000E-01  8.50000000E-01  8.50000000E-01
  8.00000000E-01  8.50000000E-01  8.50000000E-01  8.50000000E-01  8.00000000E-01
  8.50000000E-01  8.50000000E-01  8.50000000E-01  8.00000000E-01  8.50000000E-01
  8.50000000E-01  8.50000000E-01  8.00000000E-01  8.50000000E-01  8.50000000E-01
  8.50000000E-01  8.00000000E-01  8.50000000E-01  8.50000000E-01  8.50000000E-01
  8.00000000E-01  8.50000000E-01  8.50000000E-01  8.50000000E-01  8.00000000E-01
  8.50000000E-01  8.50000000E-01  8.50000000E-01  8.00000000E-01  8.50000000E-01
  8.50000000E-01  8.50000000E-01  8.00000000E-01  8.50000000E-01  8.50000000E-01
  8.50000000E-01  8.00000000E-01  8.50000000E-01  8.50000000E-01  8.50000000E-01
  8.00000000E-01  8.50000000E-01  8.50000000E-01  8.50000000E-01  8.00000000E-01
  8.50000000E-01  8.50000000E-01  8.50000000E-01  8.00000000E-01  8.50000000E-01
  8.50000000E-01  8.50000000E-01  8.00000000E-01  8.50000000E-01  8.50000000E-01
  8.50000000E-01  8.00000000E-01  8.50000000E-01  8.50000000E-01  8.50000000E-01
  8.00000000E-01  8.50000000E-01  8.50000000E-01  8.50000000E-01  8.00000000E-01
  8.50000000E-01  8.50000000E-01  8.50000000E-01  8.00000000E-01  8.50000000E-01
  8.50000000E-01  8.50000000E-01  8.00000000E-01  8.50000000E-01  8.50000000E-01
  8.50000000E-01  8.00000000E-01  8.50000000E-01  8.50000000E-01  8.50000000E-01
  8.00000000E-01  8.50000000E-01  8.50000000E-01  8.50000000E-01  8.00000000E-01
  8.50000000E-01  8.50000000E-01  8.50000000E-01  8.00000000E-01  8.50000000E-01
  8.50000000E-01  8.50000000E-01  8.00000000E-01  8.50000000E-01  8.50000000E-01
  8.50000000E-01  8.00000000E-01  8.50000000E-01  8.50000000E-01  8.50000000E-01
  8.00000000E-01  8.50000000E-01  8.50000000E-01  8.50000000E-01  8.00000000E-01
  8.50000000E-01  8.50000000E-01  8.50000000E-01  8.00000000E-01  8.50000000E-01
  8.50000000E-01  8.50000000E-01  8.00000000E-01  8.50000000E-01  8.50000000E-01
  8.50000000E-01  8.00000000E-01  8.50000000E-01  8.50000000E-01  8.50000000E-01
  8.00000000E-01  8.50000000E-01  8.50000000E-01  8.50000000E-01  8.00000000E-01
  8.50000000E-01  8.50000000E-01  8.50000000E-01  8.00000000E-01  8.50000000E-01
  8.50000000E-01  8.50000000E-01  8.00000000E-01  8.50000000E-01  8.50000000E-01
  8.50000000E-01  8.00000000E-01  8.50000000E-01  8.50000000E-01  8.50000000E-01
  8.00000000E-01  8.50000000E-01  8.50000000E-01  8.50000000E-01  8.00000000E-01
  8.50000000E-01  8.50000000E-01  8.50000000E-01  8.00000000E-01  8.50000000E-01
  8.50000000E-01  8.50000000E-01  8.00000000E-01  8.50000000E-01  8.50000000E-01
  8.50000000E-01  8.00000000E-01  8.50000000E-01  8.50000000E-01  8.50000000E-01
  8.00000000E-01  8.50000000E-01  8.50000000E-01  8.50000000E-01  8.00000000E-01
  8.50000000E-01  8.50000000E-01  8.50000000E-01  8.00000000E-01  8.50000000E-01
  8.50000000E-01  8.50000000E-01  8.00000000E-01  8.50000000E-01  8.50000000E-01
  8.50000000E-01  8.00000000E-01  8.50000000E-01  8.50000000E-01  8.50000000E-01
  8.00000000E-01  8.50000000E-01  8.50000000E-01  8.50000000E-01  8.00000000E-01
  8.50000000E-01  8.50000000E-01  8.50000000E-01  8.00000000E-01  8.50000000E-01
  8.50000000E-01  8.50000000E-01  8.00000000E-01  8.50000000E-01  8.50000000E-01
  8.50000000E-01  8.00000000E-01  8.50000000E-01  8.50000000E-01  8.50000000E-01
  8.00000000E-01  8.50000000E-01  8.50000000E-01  8.50000000E-01  8.00000000E-01
  8.50000000E-01  8.50000000E-01  8.50000000E-01  8.00000000E-01  8.50000000E-01
  8.50000000E-01  8.50000000E-01  8.00000000E-01  8.50000000E-01  8.50000000E-01
  8.50000000E-01  8.00000000E-01  8.50000000E-01  8.50000000E-01  8.50000000E-01
  8.00000000E-01  8.50000000E-01  8.50000000E-01  8.50000000E-01  8.00000000E-01
  8.50000000E-01  8.50000000E-01  8.50000000E-01  8.00000000E-01  8.50000000E-01
  8.50000000E-01  8.50000000E-01  8.00000000E-01  8.50000000E-01  8.50000000E-01
  8.50000000E-01  8.00000000E-01  8.50000000E-01  8.50000000E-01  8.50000000E-01
  8.00000000E-01  8.50000000E-01  8.50000000E-01  8.50000000E-01  8.00000000E-01
  8.50000000E-01  8.50000000E-01  8.50000000E-01  8.00000000E-01  8.50000000E-01
  8.50000000E-01  8.50000000E-01  8.00000000E-01  8.50000000E-01  8.50000000E-01
  8.50000000E-01  8.00000000E-01  8.50000000E-01  8.50000000E-01  8.50000000E-01
  8.00000000E-01  8.50000000E-01  8.50000000E-01  8.50000000E-01  8.00000000E-01
  8.50000000E-01  8.50000000E-01  8.50000000E-01  8.00000000E-01  8.50000000E-01
  8.50000000E-01  8.50000000E-01  8.00000000E-01  8.50000000E-01  8.50000000E-01
  8.50000000E-01  8.00000000E-01  8.50000000E-01  8.50000000E-01  8.50000000E-01
  8.00000000E-01  8.50000000E-01  8.50000000E-01  8.50000000E-01  8.00000000E-01
  8.50000000E-01  8.50000000E-01  8.50000000E-01  8.00000000E-01  8.50000000E-01
  8.50000000E-01  8.50000000E-01  8.00000000E-01  8.50000000E-01  8.50000000E-01
  8.50000000E-01  8.00000000E-01  8.50000000E-01  8.50000000E-01  8.50000000E-01
  8.00000000E-01  8.50000000E-01  8.50000000E-01  8.50000000E-01  8.00000000E-01
  8.50000000E-01  8.50000000E-01  8.50000000E-01  8.00000000E-01  8.50000000E-01
  8.50000000E-01  8.50000000E-01  8.00000000E-01  8.50000000E-01  8.50000000E-01
  8.50000000E-01  8.00000000E-01  8.50000000E-01  8.50000000E-01  8.50000000E-01
  8.00000000E-01  8.50000000E-01  8.50000000E-01  8.50000000E-01  8.00000000E-01
  8.50000000E-01  8.50000000E-01  8.50000000E-01  8.00000000E-01  8.50000000E-01
  8.50000000E-01  8.50000000E-01  8.00000000E-01  8.50000000E-01  8.50000000E-01
  8.50000000E-01  8.00000000E-01  8.50000000E-01  8.50000000E-01  8.50000000E-01
  8.00000000E-01  8.50000000E-01  8.50000000E-01  8.50000000E-01  8.00000000E-01
  8.50000000E-01  8.50000000E-01  8.50000000E-01  8.00000000E-01  8.50000000E-01
  8.50000000E-01  8.50000000E-01  8.00000000E-01  8.50000000E-01  8.50000000E-01
  8.50000000E-01  8.00000000E-01  8.50000000E-01  8.50000000E-01  8.50000000E-01
  8.00000000E-01  8.50000000E-01  8.50000000E-01  8.50000000E-01  8.00000000E-01
  8.50000000E-01  8.50000000E-01  8.50000000E-01  8.00000000E-01  8.50000000E-01
  8.50000000E-01  8.50000000E-01  8.00000000E-01  8.50000000E-01  8.50000000E-01
  8.50000000E-01  8.00000000E-01  8.50000000E-01  8.50000000E-01  8.50000000E-01
  8.00000000E-01  8.50000000E-01  8.50000000E-01  8.50000000E-01  8.00000000E-01
  8.50000000E-01  8.50000000E-01  8.50000000E-01  8.00000000E-01  8.50000000E-01
  8.50000000E-01  8.50000000E-01  8.00000000E-01  8.50000000E-01  8.50000000E-01
  8.50000000E-01  8.00000000E-01  8.50000000E-01  8.50000000E-01  8.50000000E-01
  8.00000000E-01  8.50000000E-01  8.50000000E-01  8.50000000E-01  8.00000000E-01
  8.50000000E-01  8.50000000E-01  8.50000000E-01  8.00000000E-01  8.50000000E-01
  8.50000000E-01  8.50000000E-01  8.00000000E-01  8.50000000E-01  8.50000000E-01
  8.50000000E-01  8.00000000E-01  8.50000000E-01  8.50000000E-01  8.50000000E-01
  8.00000000E-01  8.50000000E-01  8.50000000E-01  8.50000000E-01  8.00000000E-01
  8.50000000E-01  8.50000000E-01  8.50000000E-01  8.00000000E-01  8.50000000E-01
  8.50000000E-01  8.50000000E-01  8.00000000E-01  8.50000000E-01  8.50000000E-01
  8.50000000E-01  8.00000000E-01  8.50000000E-01  8.50000000E-01  8.50000000E-01
  8.00000000E-01  8.50000000E-01  8.50000000E-01  8.50000000E-01  8.00000000E-01
  8.50000000E-01  8.50000000E-01  8.50000000E-01  8.00000000E-01  8.50000000E-01
  8.50000000E-01  8.50000000E-01  8.00000000E-01  8.50000000E-01  8.50000000E-01
  8.50000000E-01  8.00000000E-01  8.50000000E-01  8.50000000E-01  8.50000000E-01
  8.00000000E-01  8.50000000E-01  8.50000000E-01  8.50000000E-01  8.00000000E-01
  8.50000000E-01  8.50000000E-01  8.50000000E-01  8.00000000E-01  8.50000000E-01
  8.50000000E-01  8.50000000E-01  8.00000000E-01  8.50000000E-01  8.50000000E-01
  8.50000000E-01  8.00000000E-01  8.50000000E-01  8.50000000E-01  8.50000000E-01
  8.00000000E-01  8.50000000E-01  8.50000000E-01  8.50000000E-01  8.00000000E-01
  8.50000000E-01  8.50000000E-01  8.50000000E-01  8.00000000E-01  8.50000000E-01
  8.50000000E-01  8.50000000E-01  8.00000000E-01  8.50000000E-01  8.50000000E-01
  8.50000000E-01  8.00000000E-01  8.50000000E-01  8.50000000E-01  8.50000000E-01
  8.00000000E-01  8.50000000E-01  8.50000000E-01  8.50000000E-01  8.00000000E-01
  8.50000000E-01  8.50000000E-01  8.50000000E-01  8.00000000E-01  8.50000000E-01
  8.50000000E-01  8.50000000E-01  8.00000000E-01  8.50000000E-01  8.50000000E-01
  8.50000000E-01  8.00000000E-01  8.50000000E-01  8.50000000E-01  8.50000000E-01
  8.00000000E-01  8.50000000E-01  8.50000000E-01  8.50000000E-01  8.00000000E-01
  8.50000000E-01  8.50000000E-01  8.50000000E-01  8.00000000E-01  8.50000000E-01
  8.50000000E-01  8.50000000E-01  8.00000000E-01  8.50000000E-01  8.50000000E-01
  8.50000000E-01  8.00000000E-01  8.50000000E-01  8.50000000E-01  8.50000000E-01
  8.00000000E-01  8.50000000E-01  8.50000000E-01  8.50000000E-01  8.00000000E-01
  8.50000000E-01  8.50000000E-01  8.50000000E-01  8.00000000E-01  8.50000000E-01
  8.50000000E-01  8.50000000E-01  8.00000000E-01  8.50000000E-01  8.50000000E-01
  8.50000000E-01  8.00000000E-01  8.50000000E-01  8.50000000E-01  8.50000000E-01
  8.00000000E-01  8.50000000E-01  8.50000000E-01  8.50000000E-01  8.00000000E-01
  8.50000000E-01  8.50000000E-01  8.50000000E-01  8.00000000E-01  8.50000000E-01
  8.50000000E-01  8.50000000E-01  8.00000000E-01  8.50000000E-01  8.50000000E-01
  8.50000000E-01  8.00000000E-01  8.50000000E-01  8.50000000E-01  8.50000000E-01
  8.00000000E-01  8.50000000E-01  8.50000000E-01  8.50000000E-01  8.00000000E-01
  8.50000000E-01  8.50000000E-01  8.50000000E-01  8.00000000E-01  8.50000000E-01
  8.50000000E-01  8.50000000E-01  8.00000000E-01  8.50000000E-01  8.50000000E-01
  8.50000000E-01  8.00000000E-01  8.50000000E-01  8.50000000E-01  8.50000000E-01
  8.00000000E-01  8.50000000E-01  8.50000000E-01  8.50000000E-01  8.00000000E-01
  8.50000000E-01  8.50000000E-01  8.50000000E-01  8.00000000E-01  8.50000000E-01
  8.50000000E-01  8.50000000E-01  8.00000000E-01  8.50000000E-01  8.50000000E-01
  8.50000000E-01  8.00000000E-01  8.50000000E-01  8.50000000E-01  8.50000000E-01
  8.00000000E-01  8.50000000E-01  8.50000000E-01  8.50000000E-01  8.00000000E-01
  8.50000000E-01  8.50000000E-01  8.50000000E-01  8.00000000E-01  8.50000000E-01
  8.50000000E-01  8.50000000E-01  8.00000000E-01  8.50000000E-01  8.50000000E-01
  8.50000000E-01  8.00000000E-01  8.50000000E-01  8.50000000E-01  8.50000000E-01
  8.00000000E-01  8.50000000E-01  8.50000000E-01  8.50000000E-01  8.00000000E-01
  8.50000000E-01  8.50000000E-01  8.50000000E-01  8.00000000E-01  8.50000000E-01
  8.50000000E-01  8.50000000E-01  8.00000000E-01  8.50000000E-01  8.50000000E-01
  8.50000000E-01  8.00000000E-01  8.50000000E-01  8.50000000E-01  8.50000000E-01
  8.00000000E-01  8.50000000E-01  8.50000000E-01  8.50000000E-01  8.00000000E-01
  8.50000000E-01  8.50000000E-01  8.50000000E-01  8.00000000E-01  8.50000000E-01
  8.50000000E-01  8.50000000E-01  8.00000000E-01  8.50000000E-01  8.50000000E-01
  8.50000000E-01  8.00000000E-01  8.50000000E-01  8.50000000E-01  8.50000000E-01
  8.00000000E-01  8.50000000E-01  8.50000000E-01  8.50000000E-01  8.00000000E-01
  8.50000000E-01  8.50000000E-01  8.50000000E-01  8.00000000E-01  8.50000000E-01
  8.50000000E-01  8.50000000E-01  8.00000000E-01  8.50000000E-01  8.50000000E-01
  8.50000000E-01  8.00000000E-01  8.50000000E-01  8.50000000E-01  8.50000000E-01
  8.00000000E-01  8.50000000E-01  8.50000000E-01  8.50000000E-01  8.00000000E-01
  8.50000000E-01  8.50000000E-01  8.50000000E-01  8.00000000E-01  8.50000000E-01
  8.50000000E-01  8.50000000E-01  8.00000000E-01  8.50000000E-01  8.50000000E-01
  8.50000000E-01  8.00000000E-01  8.50000000E-01  8.50000000E-01  8.50000000E-01
  8.00000000E-01  8.50000000E-01  8.50000000E-01  8.50000000E-01  8.00000000E-01
  8.50000000E-01  8.50000000E-01  8.50000000E-01  8.00000000E-01  8.50000000E-01
  8.50000000E-01  8.50000000E-01  8.00000000E-01  8.50000000E-01  8.50000000E-01
  8.50000000E-01  8.00000000E-01  8.50000000E-01  8.50000000E-01  8.50000000E-01
  8.00000000E-01  8.50000000E-01  8.50000000E-01  8.50000000E-01  8.00000000E-01
  8.50000000E-01  8.50000000E-01  8.50000000E-01  8.00000000E-01  8.50000000E-01
  8.50000000E-01  8.50000000E-01  8.00000000E-01  8.50000000E-01  8.50000000E-01
  8.50000000E-01  8.00000000E-01  8.50000000E-01  8.50000000E-01  8.50000000E-01
  8.00000000E-01  8.50000000E-01  8.50000000E-01  8.50000000E-01  8.00000000E-01
  8.50000000E-01  8.50000000E-01  8.50000000E-01  8.00000000E-01  8.50000000E-01
  8.50000000E-01  8.50000000E-01  8.00000000E-01  8.50000000E-01  8.50000000E-01
  8.50000000E-01  8.00000000E-01  8.50000000E-01  8.50000000E-01  8.50000000E-01
  8.00000000E-01  8.50000000E-01  8.50000000E-01  8.50000000E-01  8.00000000E-01
  8.50000000E-01  8.50000000E-01  8.50000000E-01  8.00000000E-01  8.50000000E-01
  8.50000000E-01  8.50000000E-01  8.00000000E-01  8.50000000E-01  8.50000000E-01
  8.50000000E-01  8.00000000E-01  8.50000000E-01  8.50000000E-01  8.50000000E-01
  8.00000000E-01  8.50000000E-01  8.50000000E-01  8.50000000E-01  8.00000000E-01
  8.50000000E-01  8.50000000E-01  8.50000000E-01  8.00000000E-01  8.50000000E-01
  8.50000000E-01  8.50000000E-01  8.00000000E-01  8.50000000E-01  8.50000000E-01
  8.50000000E-01  8.00000000E-01  8.50000000E-01  8.50000000E-01  8.50000000E-01
  8.00000000E-01  8.50000000E-01  8.50000000E-01  8.50000000E-01  8.00000000E-01
  8.50000000E-01  8.50000000E-01  8.50000000E-01  8.00000000E-01  8.50000000E-01
  8.50000000E-01  8.50000000E-01  8.00000000E-01  8.50000000E-01  8.50000000E-01
  8.50000000E-01  8.00000000E-01  8.50000000E-01  8.50000000E-01  8.50000000E-01
  8.00000000E-01  8.50000000E-01  8.50000000E-01  8.50000000E-01  8.00000000E-01
  8.50000000E-01  8.50000000E-01  8.50000000E-01  8.00000000E-01  8.50000000E-01
  8.50000000E-01  8.50000000E-01  8.00000000E-01  8.50000000E-01  8.50000000E-01
  8.50000000E-01  8.00000000E-01  8.50000000E-01  8.50000000E-01  8.50000000E-01
  8.00000000E-01  8.50000000E-01  8.50000000E-01  8.50000000E-01  8.00000000E-01
  8.50000000E-01  8.50000000E-01  8.50000000E-01  8.00000000E-01  8.50000000E-01
  8.50000000E-01  8.50000000E-01  8.00000000E-01  8.50000000E-01  8.50000000E-01
  8.50000000E-01  8.00000000E-01  8.50000000E-01  8.50000000E-01  8.50000000E-01
  8.00000000E-01  8.50000000E-01  8.50000000E-01  8.50000000E-01  8.00000000E-01
  8.50000000E-01  8.50000000E-01  8.50000000E-01  8.00000000E-01  8.50000000E-01
  8.50000000E-01  8.50000000E-01  8.00000000E-01  8.50000000E-01  8.50000000E-01
  8.50000000E-01  8.00000000E-01  8.50000000E-01  8.50000000E-01  8.50000000E-01
  8.00000000E-01  8.50000000E-01  8.50000000E-01  8.50000000E-01  8.00000000E-01
  8.50000000E-01  8.50000000E-01  8.50000000E-01  8.00000000E-01  8.50000000E-01
  8.50000000E-01  8.50000000E-01  8.00000000E-01  8.50000000E-01  8.50000000E-01
  8.50000000E-01  8.00000000E-01  8.50000000E-01  8.50000000E-01  8.50000000E-01
  8.00000000E-01  8.50000000E-01  8.50000000E-01  8.50000000E-01  8.00000000E-01
  8.50000000E-01  8.50000000E-01  8.50000000E-01  8.00000000E-01  8.50000000E-01
  8.50000000E-01  8.50000000E-01  8.00000000E-01  8.50000000E-01  8.50000000E-01
  8.50000000E-01  8.00000000E-01  8.50000000E-01  8.50000000E-01  8.50000000E-01
  8.00000000E-01  8.50000000E-01  8.50000000E-01  8.50000000E-01  8.00000000E-01
  8.50000000E-01  8.50000000E-01  8.50000000E-01  8.00000000E-01  8.50000000E-01
  8.50000000E-01  8.50000000E-01  8.00000000E-01  8.50000000E-01  8.50000000E-01
  8.50000000E-01  8.00000000E-01  8.50000000E-01  8.50000000E-01  8.50000000E-01
  8.00000000E-01  8.50000000E-01  8.50000000E-01  8.50000000E-01  8.00000000E-01
  8.50000000E-01  8.50000000E-01  8.50000000E-01  8.00000000E-01  8.50000000E-01
  8.50000000E-01  8.50000000E-01  8.00000000E-01  8.50000000E-01  8.50000000E-01
  8.50000000E-01  8.00000000E-01  8.50000000E-01  8.50000000E-01  8.50000000E-01
  8.00000000E-01  8.50000000E-01  8.50000000E-01  8.50000000E-01  8.00000000E-01
  8.50000000E-01  8.50000000E-01  8.50000000E-01  8.00000000E-01  8.50000000E-01
  8.50000000E-01  8.50000000E-01  8.00000000E-01  8.50000000E-01  8.50000000E-01
  8.50000000E-01  8.00000000E-01  8.50000000E-01  8.50000000E-01  8.50000000E-01
  8.00000000E-01  8.50000000E-01  8.50000000E-01  8.50000000E-01  8.00000000E-01
  8.50000000E-01  8.50000000E-01  8.50000000E-01  8.00000000E-01  8.50000000E-01
  8.50000000E-01  8.50000000E-01  8.00000000E-01  8.50000000E-01  8.50000000E-01
  8.50000000E-01  8.00000000E-01  8.50000000E-01  8.50000000E-01  8.50000000E-01
  8.00000000E-01  8.50000000E-01  8.50000000E-01  8.50000000E-01  8.00000000E-01
  8.50000000E-01  8.50000000E-01  8.50000000E-01  8.00000000E-01  8.50000000E-01
  8.50000000E-01  8.50000000E-01  8.00000000E-01  8.50000000E-01  8.50000000E-01
  8.50000000E-01  8.00000000E-01  8.50000000E-01  8.50000000E-01  8.50000000E-01
  8.00000000E-01  8.50000000E-01  8.50000000E-01  8.50000000E-01  8.00000000E-01
  8.50000000E-01  8.50000000E-01  8.50000000E-01  8.00000000E-01  8.50000000E-01
  8.50000000E-01  8.50000000E-01  8.00000000E-01  8.50000000E-01  8.50000000E-01
  8.50000000E-01  8.00000000E-01  8.50000000E-01  8.50000000E-01  8.50000000E-01
  8.00000000E-01  8.50000000E-01  8.50000000E-01  8.50000000E-01  8.00000000E-01
  8.50000000E-01  8.50000000E-01  8.50000000E-01  8.00000000E-01  8.50000000E-01
  8.50000000E-01  8.50000000E-01  8.00000000E-01  8.50000000E-01  8.50000000E-01
  8.50000000E-01  8.00000000E-01  8.50000000E-01  8.50000000E-01  8.50000000E-01
  8.00000000E-01  8.50000000E-01  8.50000000E-01  8.50000000E-01  8.00000000E-01
  8.50000000E-01  8.50000000E-01  8.50000000E-01  8.00000000E-01  8.50000000E-01
  8.50000000E-01  8.50000000E-01  8.00000000E-01  8.50000000E-01  8.50000000E-01
  8.50000000E-01  8.00000000E-01  8.50000000E-01  8.50000000E-01  8.50000000E-01
  8.00000000E-01  8.50000000E-01  8.50000000E-01  8.50000000E-01  8.00000000E-01
  8.50000000E-01  8.50000000E-01  8.50000000E-01  8.00000000E-01  8.50000000E-01
  8.50000000E-01  8.50000000E-01  8.00000000E-01  8.50000000E-01  8.50000000E-01
  8.50000000E-01  8.00000000E-01  8.50000000E-01  8.50000000E-01  8.50000000E-01
  8.00000000E-01  8.50000000E-01  8.50000000E-01  8.50000000E-01  8.00000000E-01
  8.50000000E-01  8.50000000E-01  8.50000000E-01  8.00000000E-01  8.50000000E-01
  8.50000000E-01  8.50000000E-01  8.00000000E-01  8.50000000E-01  8.50000000E-01
  8.50000000E-01  8.00000000E-01  8.50000000E-01  8.50000000E-01  8.50000000E-01
  8.00000000E-01  8.50000000E-01  8.50000000E-01  8.50000000E-01  8.00000000E-01
  8.50000000E-01  8.50000000E-01  8.50000000E-01  8.00000000E-01  8.50000000E-01
  8.50000000E-01  8.50000000E-01  8.00000000E-01  8.50000000E-01  8.50000000E-01
  8.50000000E-01  8.00000000E-01  8.50000000E-01  8.50000000E-01  8.50000000E-01
  8.00000000E-01  8.50000000E-01  8.50000000E-01  8.50000000E-01  8.00000000E-01
  8.50000000E-01  8.50000000E-01  8.50000000E-01  8.00000000E-01  8.50000000E-01
  8.50000000E-01  8.50000000E-01  8.00000000E-01  8.50000000E-01  8.50000000E-01
  8.50000000E-01  8.00000000E-01  8.50000000E-01  8.50000000E-01  8.50000000E-01
  8.00000000E-01  8.50000000E-01  8.50000000E-01  8.50000000E-01  8.00000000E-01
  8.50000000E-01  8.50000000E-01  8.50000000E-01  8.00000000E-01  8.50000000E-01
  8.50000000E-01  8.50000000E-01  8.00000000E-01  8.50000000E-01  8.50000000E-01
  8.50000000E-01  8.00000000E-01  8.50000000E-01  8.50000000E-01  8.50000000E-01
  8.00000000E-01  8.50000000E-01  8.50000000E-01  8.50000000E-01  8.00000000E-01
  8.50000000E-01  8.50000000E-01  8.50000000E-01  8.00000000E-01  8.50000000E-01
  8.50000000E-01  8.50000000E-01  8.00000000E-01  8.50000000E-01  8.50000000E-01
  8.50000000E-01  8.00000000E-01  8.50000000E-01  8.50000000E-01  8.50000000E-01
  8.00000000E-01  8.50000000E-01  8.50000000E-01  8.50000000E-01  8.00000000E-01
  8.50000000E-01  8.50000000E-01  8.50000000E-01  8.00000000E-01  8.50000000E-01
  8.50000000E-01  8.50000000E-01  8.00000000E-01  8.50000000E-01  8.50000000E-01
  8.50000000E-01  8.00000000E-01  8.50000000E-01  8.50000000E-01  8.50000000E-01
  8.00000000E-01  8.50000000E-01  8.50000000E-01  8.50000000E-01  8.00000000E-01
  8.50000000E-01  8.50000000E-01  8.50000000E-01  8.00000000E-01  8.50000000E-01
  8.50000000E-01  8.50000000E-01  8.00000000E-01  8.50000000E-01  8.50000000E-01
  8.50000000E-01  8.00000000E-01  8.50000000E-01  8.50000000E-01  8.50000000E-01
  8.00000000E-01  8.50000000E-01  8.50000000E-01  8.50000000E-01  8.00000000E-01
  8.50000000E-01  8.50000000E-01  8.50000000E-01  8.00000000E-01  8.50000000E-01
  8.50000000E-01  8.50000000E-01  8.00000000E-01  8.50000000E-01  8.50000000E-01
  8.50000000E-01  8.00000000E-01  8.50000000E-01  8.50000000E-01  8.50000000E-01
  8.00000000E-01  8.50000000E-01  8.50000000E-01  8.50000000E-01  8.00000000E-01
  8.50000000E-01  8.50000000E-01  8.50000000E-01  8.00000000E-01  8.50000000E-01
  8.50000000E-01  8.50000000E-01  8.00000000E-01  8.50000000E-01  8.50000000E-01
  8.50000000E-01  8.00000000E-01  8.50000000E-01  8.50000000E-01  8.50000000E-01
  8.00000000E-01  8.50000000E-01  8.50000000E-01  8.50000000E-01  8.00000000E-01
  8.50000000E-01  8.50000000E-01  8.50000000E-01  8.00000000E-01  8.50000000E-01
  8.50000000E-01  8.50000000E-01  8.00000000E-01  8.50000000E-01  8.50000000E-01
  8.50000000E-01  8.00000000E-01  8.50000000E-01  8.50000000E-01  8.50000000E-01
  8.00000000E-01  8.50000000E-01  8.50000000E-01  8.50000000E-01  8.00000000E-01
  8.50000000E-01  8.50000000E-01  8.50000000E-01  8.00000000E-01  8.50000000E-01
  8.50000000E-01  8.50000000E-01  8.00000000E-01  8.50000000E-01  8.50000000E-01
  8.50000000E-01  8.00000000E-01  8.50000000E-01  8.50000000E-01  8.50000000E-01
  8.00000000E-01  8.50000000E-01  8.50000000E-01  8.50000000E-01  8.00000000E-01
  8.50000000E-01  8.50000000E-01  8.50000000E-01  8.00000000E-01  8.50000000E-01
  8.50000000E-01  8.50000000E-01  8.00000000E-01  8.50000000E-01  8.50000000E-01
  8.50000000E-01  8.00000000E-01  8.50000000E-01  8.50000000E-01  8.50000000E-01
  8.00000000E-01  8.50000000E-01  8.50000000E-01  8.50000000E-01  8.00000000E-01
  8.50000000E-01  8.50000000E-01  8.50000000E-01  8.00000000E-01  8.50000000E-01
  8.50000000E-01  8.50000000E-01  8.00000000E-01  8.50000000E-01  8.50000000E-01
  8.50000000E-01  8.00000000E-01  8.50000000E-01  8.50000000E-01  8.50000000E-01
  8.00000000E-01  8.50000000E-01  8.50000000E-01  8.50000000E-01  8.00000000E-01
  8.50000000E-01  8.50000000E-01  8.50000000E-01  8.00000000E-01  8.50000000E-01
  8.50000000E-01  8.50000000E-01  8.00000000E-01  8.50000000E-01  8.50000000E-01
  8.50000000E-01  8.00000000E-01  8.50000000E-01  8.50000000E-01  8.50000000E-01
  8.00000000E-01  8.50000000E-01  8.50000000E-01  8.50000000E-01  8.00000000E-01
  8.50000000E-01  8.50000000E-01  8.50000000E-01  8.00000000E-01  8.50000000E-01
  8.50000000E-01  8.50000000E-01  8.00000000E-01  8.50000000E-01  8.50000000E-01
  8.50000000E-01  8.00000000E-01  8.50000000E-01  8.50000000E-01  8.50000000E-01
  8.00000000E-01  8.50000000E-01  8.50000000E-01  8.50000000E-01  8.00000000E-01
  8.50000000E-01  8.50000000E-01  8.50000000E-01  8.00000000E-01  8.50000000E-01
  8.50000000E-01  8.50000000E-01  8.00000000E-01  8.50000000E-01  8.50000000E-01
  8.50000000E-01  8.00000000E-01  8.50000000E-01  8.50000000E-01  8.50000000E-01
  8.00000000E-01  8.50000000E-01  8.50000000E-01  8.50000000E-01  8.00000000E-01
  8.50000000E-01  8.50000000E-01  8.50000000E-01  8.00000000E-01  8.50000000E-01
  8.50000000E-01  8.50000000E-01  8.00000000E-01  8.50000000E-01  8.50000000E-01
  8.50000000E-01  8.00000000E-01  8.50000000E-01  8.50000000E-01  8.50000000E-01
  8.00000000E-01  8.50000000E-01  8.50000000E-01  8.50000000E-01  8.00000000E-01
  8.50000000E-01  8.50000000E-01  8.50000000E-01  8.00000000E-01  8.50000000E-01
  8.50000000E-01  8.50000000E-01  8.00000000E-01  8.50000000E-01  8.50000000E-01
  8.50000000E-01  8.00000000E-01  8.50000000E-01  8.50000000E-01  8.50000000E-01
  8.00000000E-01  8.50000000E-01  8.50000000E-01  8.50000000E-01  8.00000000E-01
  8.50000000E-01  8.50000000E-01  8.50000000E-01  8.00000000E-01  8.50000000E-01
  8.50000000E-01  8.50000000E-01  8.00000000E-01  8.50000000E-01  8.50000000E-01
  8.50000000E-01  8.00000000E-01  8.50000000E-01  8.50000000E-01  8.50000000E-01
  8.00000000E-01  8.50000000E-01  8.50000000E-01  8.50000000E-01  8.00000000E-01
  8.50000000E-01  8.50000000E-01  8.50000000E-01  8.00000000E-01  8.50000000E-01
  8.50000000E-01  8.50000000E-01  8.00000000E-01  8.50000000E-01  8.50000000E-01
  8.50000000E-01  8.00000000E-01  8.50000000E-01  8.50000000E-01  8.50000000E-01
  8.00000000E-01  8.50000000E-01  8.50000000E-01  8.50000000E-01  8.00000000E-01
  8.50000000E-01  8.50000000E-01  8.50000000E-01  8.00000000E-01  8.50000000E-01
  8.50000000E-01  8.50000000E-01  8.00000000E-01  8.50000000E-01  8.50000000E-01
  8.50000000E-01  8.00000000E-01  8.50000000E-01  8.50000000E-01  8.50000000E-01
  8.00000000E-01  8.50000000E-01  8.50000000E-01  8.50000000E-01  8.00000000E-01
  8.50000000E-01  8.50000000E-01  8.50000000E-01  8.00000000E-01  8.50000000E-01
  8.50000000E-01  8.50000000E-01  8.00000000E-01  8.50000000E-01  8.50000000E-01
  8.50000000E-01  8.00000000E-01  8.50000000E-01  8.50000000E-01  8.50000000E-01
  8.00000000E-01  8.50000000E-01  8.50000000E-01  8.50000000E-01  8.00000000E-01
  8.50000000E-01  8.50000000E-01  8.50000000E-01  8.00000000E-01  8.50000000E-01
  8.50000000E-01  8.50000000E-01  8.00000000E-01  8.50000000E-01  8.50000000E-01
  8.50000000E-01  8.00000000E-01  8.50000000E-01  8.50000000E-01  8.50000000E-01
  8.00000000E-01  8.50000000E-01  8.50000000E-01  8.50000000E-01  8.00000000E-01
  8.50000000E-01  8.50000000E-01  8.50000000E-01  8.00000000E-01  8.50000000E-01
  8.50000000E-01  8.50000000E-01  8.00000000E-01  8.50000000E-01  8.50000000E-01
  8.50000000E-01  8.00000000E-01  8.50000000E-01  8.50000000E-01  8.50000000E-01
  8.00000000E-01  8.50000000E-01  8.50000000E-01  8.50000000E-01  8.00000000E-01
  8.50000000E-01  8.50000000E-01  8.50000000E-01  8.00000000E-01  8.50000000E-01
  8.50000000E-01  8.50000000E-01  8.00000000E-01  8.50000000E-01  8.50000000E-01
  8.50000000E-01  8.00000000E-01  8.50000000E-01  8.50000000E-01  8.50000000E-01
  8.00000000E-01  8.50000000E-01  8.50000000E-01  8.50000000E-01  8.00000000E-01
  8.50000000E-01  8.50000000E-01  8.50000000E-01  8.00000000E-01  8.50000000E-01
  8.50000000E-01  8.50000000E-01  8.00000000E-01  8.50000000E-01  8.50000000E-01
  8.50000000E-01  8.00000000E-01  8.50000000E-01  8.50000000E-01  8.50000000E-01
  8.00000000E-01  8.50000000E-01  8.50000000E-01  8.50000000E-01  8.00000000E-01
  8.50000000E-01  8.50000000E-01  8.50000000E-01  8.00000000E-01  8.50000000E-01
  8.50000000E-01  8.50000000E-01  8.00000000E-01  8.50000000E-01  8.50000000E-01
  8.50000000E-01  8.00000000E-01  8.50000000E-01  8.50000000E-01  8.50000000E-01
  8.00000000E-01  8.50000000E-01  8.50000000E-01  8.50000000E-01  8.00000000E-01
  8.50000000E-01  8.50000000E-01  8.50000000E-01  8.00000000E-01  8.50000000E-01
  8.50000000E-01  8.50000000E-01  8.00000000E-01  8.50000000E-01  8.50000000E-01
  8.50000000E-01  8.00000000E-01  8.50000000E-01  8.50000000E-01  8.50000000E-01
  8.00000000E-01  8.50000000E-01  8.50000000E-01  8.50000000E-01  8.00000000E-01
  8.50000000E-01  8.50000000E-01  8.50000000E-01  8.00000000E-01  8.50000000E-01
  8.50000000E-01  8.50000000E-01  8.00000000E-01  8.50000000E-01  8.50000000E-01
  8.50000000E-01  8.00000000E-01  8.50000000E-01  8.50000000E-01  8.50000000E-01
  8.00000000E-01  8.50000000E-01  8.50000000E-01  8.50000000E-01  8.00000000E-01
  8.50000000E-01  8.50000000E-01  8.50000000E-01  8.00000000E-01  8.50000000E-01
  8.50000000E-01  8.50000000E-01  8.00000000E-01  8.50000000E-01  8.50000000E-01
  8.50000000E-01  8.00000000E-01  8.50000000E-01  8.50000000E-01  8.50000000E-01
  8.00000000E-01  8.50000000E-01  8.50000000E-01  8.50000000E-01  8.00000000E-01
  8.50000000E-01  8.50000000E-01  8.50000000E-01  8.00000000E-01  8.50000000E-01
  8.50000000E-01  8.50000000E-01  8.00000000E-01  8.50000000E-01  8.50000000E-01
  8.50000000E-01  8.00000000E-01  8.50000000E-01  8.50000000E-01  8.50000000E-01
  8.00000000E-01  8.50000000E-01  8.50000000E-01  8.50000000E-01  8.00000000E-01
  8.50000000E-01  8.50000000E-01  8.50000000E-01  8.00000000E-01  8.50000000E-01
  8.50000000E-01  8.50000000E-01  8.00000000E-01  8.50000000E-01  8.50000000E-01
  8.50000000E-01  8.00000000E-01  8.50000000E-01  8.50000000E-01  8.50000000E-01
  8.00000000E-01  8.50000000E-01  8.50000000E-01  8.50000000E-01  8.00000000E-01
  8.50000000E-01  8.50000000E-01  8.50000000E-01  8.00000000E-01  8.50000000E-01
  8.50000000E-01  8.50000000E-01  8.00000000E-01  8.50000000E-01  8.50000000E-01
  8.50000000E-01  8.00000000E-01  8.50000000E-01  8.50000000E-01  8.50000000E-01
  8.00000000E-01  8.50000000E-01  8.50000000E-01  8.50000000E-01  8.00000000E-01
  8.50000000E-01  8.50000000E-01  8.50000000E-01  8.00000000E-01  8.50000000E-01
  8.50000000E-01  8.50000000E-01  8.00000000E-01  8.50000000E-01  8.50000000E-01
  8.50000000E-01  8.00000000E-01  8.50000000E-01  8.50000000E-01  8.50000000E-01
  8.00000000E-01  8.50000000E-01  8.50000000E-01  8.50000000E-01  8.00000000E-01
  8.50000000E-01  8.50000000E-01  8.50000000E-01  8.00000000E-01  8.50000000E-01
  8.50000000E-01  8.50000000E-01  8.00000000E-01  8.50000000E-01  8.50000000E-01
  8.50000000E-01  8.00000000E-01  8.50000000E-01  8.50000000E-01  8.50000000E-01
  8.00000000E-01  8.50000000E-01  8.50000000E-01  8.50000000E-01  8.00000000E-01
  8.50000000E-01  8.50000000E-01  8.50000000E-01  8.00000000E-01  8.50000000E-01
  8.50000000E-01  8.50000000E-01  8.00000000E-01  8.50000000E-01  8.50000000E-01
  8.50000000E-01  8.00000000E-01  8.50000000E-01  8.50000000E-01  8.50000000E-01
  8.00000000E-01  8.50000000E-01  8.50000000E-01  8.50000000E-01  8.00000000E-01
  8.50000000E-01  8.50000000E-01  8.50000000E-01  8.00000000E-01  8.50000000E-01
  8.50000000E-01  8.50000000E-01  8.00000000E-01  8.50000000E-01  8.50000000E-01
  8.50000000E-01  8.00000000E-01  8.50000000E-01  8.50000000E-01  8.50000000E-01
  8.00000000E-01  8.50000000E-01  8.50000000E-01  8.50000000E-01  8.00000000E-01
  8.50000000E-01  8.50000000E-01  8.50000000E-01  8.00000000E-01  8.50000000E-01
  8.50000000E-01  8.50000000E-01  8.00000000E-01  8.50000000E-01  8.50000000E-01
  8.50000000E-01  8.00000000E-01  8.50000000E-01  8.50000000E-01  8.50000000E-01
  8.00000000E-01  8.50000000E-01  8.50000000E-01  8.50000000E-01  8.00000000E-01
  8.50000000E-01  8.50000000E-01  8.50000000E-01  8.00000000E-01  8.50000000E-01
  8.50000000E-01  8.50000000E-01  8.00000000E-01  8.50000000E-01  8.50000000E-01
  8.50000000E-01  8.00000000E-01  8.50000000E-01  8.50000000E-01  8.50000000E-01
  8.00000000E-01  8.50000000E-01  8.50000000E-01  8.50000000E-01  8.00000000E-01
  8.50000000E-01  8.50000000E-01  8.50000000E-01  8.00000000E-01  8.50000000E-01
  8.50000000E-01  8.50000000E-01  8.00000000E-01  8.50000000E-01  8.50000000E-01
  8.50000000E-01  8.00000000E-01  8.50000000E-01  8.50000000E-01  8.50000000E-01
  8.00000000E-01  8.50000000E-01  8.50000000E-01  8.50000000E-01  8.00000000E-01
  8.50000000E-01  8.50000000E-01  8.50000000E-01  8.00000000E-01  8.50000000E-01
  8.50000000E-01  8.50000000E-01  8.00000000E-01  8.50000000E-01  8.50000000E-01
  8.50000000E-01  8.00000000E-01  8.50000000E-01  8.50000000E-01  8.50000000E-01
  8.00000000E-01  8.50000000E-01  8.50000000E-01  8.50000000E-01  8.00000000E-01
  8.50000000E-01  8.50000000E-01  8.50000000E-01  8.00000000E-01  8.50000000E-01
  8.50000000E-01  8.50000000E-01  8.00000000E-01  8.50000000E-01  8.50000000E-01
  8.50000000E-01  8.00000000E-01  8.50000000E-01  8.50000000E-01  8.50000000E-01
  8.00000000E-01  8.50000000E-01  8.50000000E-01  8.50000000E-01  8.00000000E-01
  8.50000000E-01  8.50000000E-01  8.50000000E-01  8.00000000E-01  8.50000000E-01
  8.50000000E-01  8.50000000E-01  8.00000000E-01  8.50000000E-01  8.50000000E-01
  8.50000000E-01  8.00000000E-01  8.50000000E-01  8.50000000E-01  8.50000000E-01
  8.00000000E-01  8.50000000E-01  8.50000000E-01  8.50000000E-01  8.00000000E-01
  8.50000000E-01  8.50000000E-01  8.50000000E-01  8.00000000E-01  8.50000000E-01
  8.50000000E-01  8.50000000E-01  8.00000000E-01  8.50000000E-01  8.50000000E-01
  8.50000000E-01  8.00000000E-01  8.50000000E-01  8.50000000E-01  8.50000000E-01
  8.00000000E-01  8.50000000E-01  8.50000000E-01  8.50000000E-01  8.00000000E-01
  8.50000000E-01  8.50000000E-01  8.50000000E-01  8.00000000E-01  8.50000000E-01
  8.50000000E-01  8.50000000E-01  8.00000000E-01  8.50000000E-01  8.50000000E-01
  8.50000000E-01  8.00000000E-01  8.50000000E-01  8.50000000E-01  8.50000000E-01
  8.00000000E-01  8.50000000E-01  8.50000000E-01  8.50000000E-01  8.00000000E-01
  8.50000000E-01  8.50000000E-01  8.50000000E-01  8.00000000E-01  8.50000000E-01
  8.50000000E-01  8.50000000E-01  8.00000000E-01  8.50000000E-01  8.50000000E-01
  8.50000000E-01  8.00000000E-01  8.50000000E-01  8.50000000E-01  8.50000000E-01
  8.00000000E-01  8.50000000E-01  8.50000000E-01  8.50000000E-01  8.00000000E-01
  8.50000000E-01  8.50000000E-01  8.50000000E-01  8.00000000E-01  8.50000000E-01
  8.50000000E-01  8.50000000E-01  8.00000000E-01  8.50000000E-01  8.50000000E-01
  8.50000000E-01  8.00000000E-01  8.50000000E-01  8.50000000E-01  8.50000000E-01
  8.00000000E-01  8.50000000E-01  8.50000000E-01  8.50000000E-01  8.00000000E-01
  8.50000000E-01  8.50000000E-01  8.50000000E-01  8.00000000E-01  8.50000000E-01
  8.50000000E-01  8.50000000E-01  8.00000000E-01  8.50000000E-01  8.50000000E-01
  8.50000000E-01  8.00000000E-01  8.50000000E-01  8.50000000E-01  8.50000000E-01
  8.00000000E-01  8.50000000E-01  8.50000000E-01  8.50000000E-01  8.00000000E-01
  8.50000000E-01  8.50000000E-01  8.50000000E-01  8.00000000E-01  8.50000000E-01
  8.50000000E-01  8.50000000E-01  8.00000000E-01  8.50000000E-01  8.50000000E-01
  8.50000000E-01  8.00000000E-01  8.50000000E-01  8.50000000E-01  8.50000000E-01
  8.00000000E-01  8.50000000E-01  8.50000000E-01  8.50000000E-01  8.00000000E-01
  8.50000000E-01  8.50000000E-01  8.50000000E-01  8.00000000E-01  8.50000000E-01
  8.50000000E-01  8.50000000E-01  8.00000000E-01  8.50000000E-01  8.50000000E-01
  8.50000000E-01  8.00000000E-01  8.50000000E-01  8.50000000E-01  8.50000000E-01
  8.00000000E-01  8.50000000E-01  8.50000000E-01  8.50000000E-01  8.00000000E-01
  8.50000000E-01  8.50000000E-01  8.50000000E-01  8.00000000E-01  8.50000000E-01
  8.50000000E-01  8.50000000E-01  8.00000000E-01  8.50000000E-01  8.50000000E-01
  8.50000000E-01  8.00000000E-01  8.50000000E-01  8.50000000E-01  8.50000000E-01
  8.00000000E-01  8.50000000E-01  8.50000000E-01  8.50000000E-01  8.00000000E-01
  8.50000000E-01  8.50000000E-01  8.50000000E-01  8.00000000E-01  8.50000000E-01
  8.50000000E-01  8.50000000E-01  8.00000000E-01  8.50000000E-01  8.50000000E-01
  8.50000000E-01  8.00000000E-01  8.50000000E-01  8.50000000E-01  8.50000000E-01
  8.00000000E-01  8.50000000E-01  8.50000000E-01  8.50000000E-01  8.00000000E-01
  8.50000000E-01  8.50000000E-01  8.50000000E-01  8.00000000E-01  8.50000000E-01
  8.50000000E-01  8.50000000E-01  8.00000000E-01  8.50000000E-01  8.50000000E-01
  8.50000000E-01  8.00000000E-01  8.50000000E-01  8.50000000E-01  8.50000000E-01
  8.00000000E-01  8.50000000E-01  8.50000000E-01  8.50000000E-01  8.00000000E-01
  8.50000000E-01  8.50000000E-01  8.50000000E-01  8.00000000E-01  8.50000000E-01
  8.50000000E-01  8.50000000E-01  8.00000000E-01  8.50000000E-01  8.50000000E-01
  8.50000000E-01  8.00000000E-01  8.50000000E-01  8.50000000E-01  8.50000000E-01
  8.00000000E-01  8.50000000E-01  8.50000000E-01  8.50000000E-01  8.00000000E-01
  8.50000000E-01  8.50000000E-01  8.50000000E-01  8.00000000E-01  8.50000000E-01
  8.50000000E-01  8.50000000E-01  8.00000000E-01  8.50000000E-01  8.50000000E-01
  8.50000000E-01  8.00000000E-01  8.50000000E-01  8.50000000E-01  8.50000000E-01
  8.00000000E-01  8.50000000E-01  8.50000000E-01  8.50000000E-01  8.00000000E-01
  8.50000000E-01  8.50000000E-01  8.50000000E-01  8.00000000E-01  8.50000000E-01
  8.50000000E-01  8.50000000E-01  8.00000000E-01  8.50000000E-01  8.50000000E-01
  8.50000000E-01  8.00000000E-01  8.50000000E-01  8.50000000E-01  8.50000000E-01
  8.00000000E-01  8.50000000E-01  8.50000000E-01  8.50000000E-01  8.00000000E-01
  8.50000000E-01  8.50000000E-01  8.50000000E-01  8.00000000E-01  8.50000000E-01
  8.50000000E-01  8.50000000E-01  8.00000000E-01  8.50000000E-01  8.50000000E-01
  8.50000000E-01  8.00000000E-01  8.50000000E-01  8.50000000E-01  8.50000000E-01
  8.00000000E-01  8.50000000E-01  8.50000000E-01  8.50000000E-01  8.00000000E-01
  8.50000000E-01  8.50000000E-01  8.50000000E-01  8.00000000E-01  8.50000000E-01
  8.50000000E-01  8.50000000E-01  8.00000000E-01  8.50000000E-01  8.50000000E-01
  8.50000000E-01  8.00000000E-01  8.50000000E-01  8.50000000E-01  8.50000000E-01
  8.00000000E-01  8.50000000E-01  8.50000000E-01  8.50000000E-01  8.00000000E-01
  8.50000000E-01  8.50000000E-01  8.50000000E-01  8.00000000E-01  8.50000000E-01
  8.50000000E-01  8.50000000E-01  8.00000000E-01  8.50000000E-01  8.50000000E-01
  8.50000000E-01  8.00000000E-01  8.50000000E-01  8.50000000E-01  8.50000000E-01
  8.00000000E-01  8.50000000E-01  8.50000000E-01  8.50000000E-01  8.00000000E-01
  8.50000000E-01  8.50000000E-01  8.50000000E-01  8.00000000E-01  8.50000000E-01
  8.50000000E-01  8.50000000E-01  8.00000000E-01  8.50000000E-01  8.50000000E-01
  8.50000000E-01  8.00000000E-01  8.50000000E-01  8.50000000E-01  8.50000000E-01
  8.00000000E-01  8.50000000E-01  8.50000000E-01  8.50000000E-01  8.00000000E-01
  8.50000000E-01  8.50000000E-01  8.50000000E-01  8.00000000E-01  8.50000000E-01
  8.50000000E-01  8.50000000E-01  8.00000000E-01  8.50000000E-01  8.50000000E-01
  8.50000000E-01  8.00000000E-01  8.50000000E-01  8.50000000E-01  8.50000000E-01
  8.00000000E-01  8.50000000E-01  8.50000000E-01  8.50000000E-01  8.00000000E-01
  8.50000000E-01  8.50000000E-01  8.50000000E-01  8.00000000E-01  8.50000000E-01
  8.50000000E-01  8.50000000E-01  8.00000000E-01  8.50000000E-01  8.50000000E-01
  8.50000000E-01  8.00000000E-01  8.50000000E-01  8.50000000E-01  8.50000000E-01
  8.00000000E-01  8.50000000E-01  8.50000000E-01  8.50000000E-01  8.00000000E-01
  8.50000000E-01  8.50000000E-01  8.50000000E-01  8.00000000E-01  8.50000000E-01
  8.50000000E-01  8.50000000E-01  8.00000000E-01  8.50000000E-01  8.50000000E-01
  8.50000000E-01  8.00000000E-01  8.50000000E-01  8.50000000E-01  8.50000000E-01
  8.00000000E-01  8.50000000E-01  8.50000000E-01  8.50000000E-01  8.00000000E-01
  8.50000000E-01  8.50000000E-01  8.50000000E-01  8.00000000E-01  8.50000000E-01
  8.50000000E-01  8.50000000E-01  8.00000000E-01  8.50000000E-01  8.50000000E-01
  8.50000000E-01  8.00000000E-01  8.50000000E-01  8.50000000E-01  8.50000000E-01
  8.00000000E-01  8.50000000E-01  8.50000000E-01  8.50000000E-01  8.00000000E-01
  8.50000000E-01  8.50000000E-01  8.50000000E-01  8.00000000E-01  8.50000000E-01
  8.50000000E-01  8.50000000E-01  8.00000000E-01  8.50000000E-01  8.50000000E-01
  8.50000000E-01  8.00000000E-01  8.50000000E-01  8.50000000E-01  8.50000000E-01
  8.00000000E-01  8.50000000E-01  8.50000000E-01  8.50000000E-01  8.00000000E-01
  8.50000000E-01  8.50000000E-01  8.50000000E-01  8.00000000E-01  8.50000000E-01
  8.50000000E-01  8.50000000E-01  8.00000000E-01  8.50000000E-01  8.50000000E-01
  8.50000000E-01  8.00000000E-01  8.50000000E-01  8.50000000E-01  8.50000000E-01
  8.00000000E-01  8.50000000E-01  8.50000000E-01  8.50000000E-01  8.00000000E-01
  8.50000000E-01  8.50000000E-01  8.50000000E-01  8.00000000E-01  8.50000000E-01
  8.50000000E-01  8.50000000E-01  8.00000000E-01  8.50000000E-01  8.50000000E-01
  8.50000000E-01  8.00000000E-01  8.50000000E-01  8.50000000E-01  8.50000000E-01
  8.00000000E-01  8.50000000E-01  8.50000000E-01  8.50000000E-01  8.00000000E-01
  8.50000000E-01  8.50000000E-01  8.50000000E-01  8.00000000E-01  8.50000000E-01
  8.50000000E-01  8.50000000E-01  8.00000000E-01  8.50000000E-01  8.50000000E-01
  8.50000000E-01  8.00000000E-01  8.50000000E-01  8.50000000E-01  8.50000000E-01
  8.00000000E-01  8.50000000E-01  8.50000000E-01  8.50000000E-01  8.00000000E-01
  8.50000000E-01  8.50000000E-01  8.50000000E-01  8.00000000E-01  8.50000000E-01
  8.50000000E-01  8.50000000E-01  8.00000000E-01  8.50000000E-01  8.50000000E-01
  8.50000000E-01  8.00000000E-01  8.50000000E-01  8.50000000E-01  8.50000000E-01
  8.00000000E-01  8.50000000E-01  8.50000000E-01  8.50000000E-01  8.00000000E-01
  8.50000000E-01  8.50000000E-01  8.50000000E-01  8.00000000E-01  8.50000000E-01
  8.50000000E-01  8.50000000E-01  8.00000000E-01  8.50000000E-01  8.50000000E-01
  8.50000000E-01  8.00000000E-01  8.50000000E-01  8.50000000E-01  8.50000000E-01
  8.00000000E-01  8.50000000E-01  8.50000000E-01  8.50000000E-01  8.00000000E-01
  8.50000000E-01  8.50000000E-01  8.50000000E-01  8.00000000E-01  8.50000000E-01
  8.50000000E-01  8.50000000E-01  8.00000000E-01  8.50000000E-01  8.50000000E-01
  8.50000000E-01  8.00000000E-01  8.50000000E-01  8.50000000E-01  8.50000000E-01
  8.00000000E-01  8.50000000E-01  8.50000000E-01  8.50000000E-01  8.00000000E-01
  8.50000000E-01  8.50000000E-01  8.50000000E-01  8.00000000E-01  8.50000000E-01
  8.50000000E-01  8.50000000E-01  8.00000000E-01  8.50000000E-01  8.50000000E-01
  8.50000000E-01  8.00000000E-01  8.50000000E-01  8.50000000E-01  8.50000000E-01
  8.00000000E-01  8.50000000E-01  8.50000000E-01  8.50000000E-01  8.00000000E-01
  8.50000000E-01  8.50000000E-01  8.50000000E-01  8.00000000E-01  8.50000000E-01
  8.50000000E-01  8.50000000E-01  8.00000000E-01  8.50000000E-01  8.50000000E-01
  8.50000000E-01  8.00000000E-01  8.50000000E-01  8.50000000E-01  8.50000000E-01
  8.00000000E-01  8.50000000E-01  8.50000000E-01  8.50000000E-01  8.00000000E-01
  8.50000000E-01  8.50000000E-01  8.50000000E-01  8.00000000E-01  8.50000000E-01
  8.50000000E-01  8.50000000E-01  8.00000000E-01  8.50000000E-01  8.50000000E-01
  8.50000000E-01  8.00000000E-01  8.50000000E-01  8.50000000E-01  8.50000000E-01
  8.00000000E-01  8.50000000E-01  8.50000000E-01  8.50000000E-01  8.00000000E-01
  8.50000000E-01  8.50000000E-01  8.50000000E-01  8.00000000E-01  8.50000000E-01
  8.50000000E-01  8.50000000E-01  8.00000000E-01  8.50000000E-01  8.50000000E-01
  8.50000000E-01  8.00000000E-01  8.50000000E-01  8.50000000E-01  8.50000000E-01
  8.00000000E-01  8.50000000E-01  8.50000000E-01  8.50000000E-01  8.00000000E-01
  8.50000000E-01  8.50000000E-01  8.50000000E-01  8.00000000E-01  8.50000000E-01
  8.50000000E-01  8.50000000E-01  8.00000000E-01  8.50000000E-01  8.50000000E-01
  8.50000000E-01  8.00000000E-01  8.50000000E-01  8.50000000E-01  8.50000000E-01
  8.00000000E-01  8.50000000E-01  8.50000000E-01  8.50000000E-01  8.00000000E-01
  8.50000000E-01  8.50000000E-01  8.50000000E-01  8.00000000E-01  8.50000000E-01
  8.50000000E-01  8.50000000E-01  8.00000000E-01  8.50000000E-01  8.50000000E-01
  8.50000000E-01  8.00000000E-01  8.50000000E-01  8.50000000E-01  8.50000000E-01
  8.00000000E-01  8.50000000E-01  8.50000000E-01  8.50000000E-01  8.00000000E-01
  8.50000000E-01  8.50000000E-01  8.50000000E-01  8.00000000E-01  8.50000000E-01
  8.50000000E-01  8.50000000E-01  8.00000000E-01  8.50000000E-01  8.50000000E-01
  8.50000000E-01  8.00000000E-01  8.50000000E-01  8.50000000E-01  8.50000000E-01
  8.00000000E-01  8.50000000E-01  8.50000000E-01  8.50000000E-01  8.00000000E-01
  8.50000000E-01  8.50000000E-01  8.50000000E-01  8.00000000E-01  8.50000000E-01
  8.50000000E-01  8.50000000E-01  8.00000000E-01  8.50000000E-01  8.50000000E-01
  8.50000000E-01  8.00000000E-01  8.50000000E-01  8.50000000E-01  8.50000000E-01
  8.00000000E-01  8.50000000E-01  8.50000000E-01  8.50000000E-01  8.00000000E-01
  8.50000000E-01  8.50000000E-01  8.50000000E-01  8.00000000E-01  8.50000000E-01
  8.50000000E-01  8.50000000E-01  8.00000000E-01  8.50000000E-01  8.50000000E-01
  8.50000000E-01  8.00000000E-01  8.50000000E-01  8.50000000E-01  8.50000000E-01
  8.00000000E-01  8.50000000E-01  8.50000000E-01  8.50000000E-01  8.00000000E-01
  8.50000000E-01  8.50000000E-01  8.50000000E-01  8.00000000E-01  8.50000000E-01
  8.50000000E-01  8.50000000E-01  8.00000000E-01  8.50000000E-01  8.50000000E-01
  8.50000000E-01  8.00000000E-01  8.50000000E-01  8.50000000E-01  8.50000000E-01
  8.00000000E-01  8.50000000E-01  8.50000000E-01  8.50000000E-01  8.00000000E-01
  8.50000000E-01  8.50000000E-01  8.50000000E-01  8.00000000E-01  8.50000000E-01
  8.50000000E-01  8.50000000E-01  8.00000000E-01  8.50000000E-01  8.50000000E-01
  8.50000000E-01  8.00000000E-01  8.50000000E-01  8.50000000E-01  8.50000000E-01
  8.00000000E-01  8.50000000E-01  8.50000000E-01  8.50000000E-01  8.00000000E-01
  8.50000000E-01  8.50000000E-01  8.50000000E-01  8.00000000E-01  8.50000000E-01
  8.50000000E-01  8.50000000E-01  8.00000000E-01  8.50000000E-01  8.50000000E-01
  8.50000000E-01  8.00000000E-01  8.50000000E-01  8.50000000E-01  8.50000000E-01
  8.00000000E-01  8.50000000E-01  8.50000000E-01  8.50000000E-01  8.00000000E-01
  8.50000000E-01  8.50000000E-01  8.50000000E-01  8.00000000E-01  8.50000000E-01
  8.50000000E-01  8.50000000E-01  8.00000000E-01  8.50000000E-01  8.50000000E-01
  8.50000000E-01  8.00000000E-01  8.50000000E-01  8.50000000E-01  8.50000000E-01
  8.00000000E-01  8.50000000E-01  8.50000000E-01  8.50000000E-01  8.00000000E-01
  8.50000000E-01  8.50000000E-01  8.50000000E-01  8.00000000E-01  8.50000000E-01
  8.50000000E-01  8.50000000E-01  8.00000000E-01  8.50000000E-01  8.50000000E-01
  8.50000000E-01  8.00000000E-01  8.50000000E-01  8.50000000E-01  8.50000000E-01
  8.00000000E-01  8.50000000E-01  8.50000000E-01  8.50000000E-01  8.00000000E-01
  8.50000000E-01  8.50000000E-01  8.50000000E-01  8.00000000E-01  8.50000000E-01
  8.50000000E-01  8.50000000E-01  8.00000000E-01  8.50000000E-01  8.50000000E-01
  8.50000000E-01  8.00000000E-01  8.50000000E-01  8.50000000E-01  8.50000000E-01
  8.00000000E-01  8.50000000E-01  8.50000000E-01  8.50000000E-01  8.00000000E-01
  8.50000000E-01  8.50000000E-01  8.50000000E-01  8.00000000E-01  8.50000000E-01
  8.50000000E-01  8.50000000E-01  8.00000000E-01  8.50000000E-01  8.50000000E-01
  8.50000000E-01  8.00000000E-01  8.50000000E-01  8.50000000E-01  8.50000000E-01
  8.00000000E-01  8.50000000E-01  8.50000000E-01  8.50000000E-01  8.00000000E-01
  8.50000000E-01  8.50000000E-01  8.50000000E-01  8.00000000E-01  8.50000000E-01
  8.50000000E-01  8.50000000E-01  8.00000000E-01  8.50000000E-01  8.50000000E-01
  8.50000000E-01  8.00000000E-01  8.50000000E-01  8.50000000E-01  8.50000000E-01
  8.00000000E-01  8.50000000E-01  8.50000000E-01  8.50000000E-01  8.00000000E-01
  8.50000000E-01  8.50000000E-01  8.50000000E-01  8.00000000E-01  8.50000000E-01
  8.50000000E-01  8.50000000E-01  8.00000000E-01  8.50000000E-01  8.50000000E-01
  8.50000000E-01  8.00000000E-01  8.50000000E-01  8.50000000E-01  8.50000000E-01
  8.00000000E-01  8.50000000E-01  8.50000000E-01  8.50000000E-01  8.00000000E-01
  8.50000000E-01  8.50000000E-01  8.50000000E-01  8.00000000E-01  8.50000000E-01
  8.50000000E-01  8.50000000E-01  8.00000000E-01  8.50000000E-01  8.50000000E-01
  8.50000000E-01  8.00000000E-01  8.50000000E-01  8.50000000E-01  8.50000000E-01
  8.00000000E-01  8.50000000E-01  8.50000000E-01  8.50000000E-01  8.00000000E-01
  8.50000000E-01  8.50000000E-01  8.50000000E-01  8.00000000E-01  8.50000000E-01
  8.50000000E-01  8.50000000E-01  8.00000000E-01  8.50000000E-01  8.50000000E-01
  8.50000000E-01  8.00000000E-01  8.50000000E-01  8.50000000E-01  8.50000000E-01
  8.00000000E-01  8.50000000E-01  8.50000000E-01  8.50000000E-01  8.00000000E-01
  8.50000000E-01  8.50000000E-01  8.50000000E-01  8.00000000E-01  8.50000000E-01
  8.50000000E-01  8.50000000E-01  8.00000000E-01  8.50000000E-01  8.50000000E-01
  8.50000000E-01  8.00000000E-01  8.50000000E-01  8.50000000E-01  8.50000000E-01
  8.00000000E-01  8.50000000E-01  8.50000000E-01  8.50000000E-01  8.00000000E-01
  8.50000000E-01  8.50000000E-01  8.50000000E-01  8.00000000E-01  8.50000000E-01
  8.50000000E-01  8.50000000E-01  8.00000000E-01  8.50000000E-01  8.50000000E-01
  8.50000000E-01  8.00000000E-01  8.50000000E-01  8.50000000E-01  8.50000000E-01
  8.00000000E-01  8.50000000E-01  8.50000000E-01  8.50000000E-01  8.00000000E-01
  8.50000000E-01  8.50000000E-01  8.50000000E-01  8.00000000E-01  8.50000000E-01
  8.50000000E-01  8.50000000E-01  8.00000000E-01  8.50000000E-01  8.50000000E-01
  8.50000000E-01  8.00000000E-01  8.50000000E-01  8.50000000E-01  8.50000000E-01
  8.00000000E-01  8.50000000E-01  8.50000000E-01  8.50000000E-01  8.00000000E-01
  8.50000000E-01  8.50000000E-01  8.50000000E-01  8.00000000E-01  8.50000000E-01
  8.50000000E-01  8.50000000E-01  8.00000000E-01  8.50000000E-01  8.50000000E-01
  8.50000000E-01  8.00000000E-01  8.50000000E-01  8.50000000E-01  8.50000000E-01
  8.00000000E-01  8.50000000E-01  8.50000000E-01  8.50000000E-01  8.00000000E-01
  8.50000000E-01  8.50000000E-01  8.50000000E-01  8.00000000E-01  8.50000000E-01
  8.50000000E-01  8.50000000E-01  8.00000000E-01  8.50000000E-01  8.50000000E-01
  8.50000000E-01  8.00000000E-01  8.50000000E-01  8.50000000E-01  8.50000000E-01
  8.00000000E-01  8.50000000E-01  8.50000000E-01  8.50000000E-01  8.00000000E-01
  8.50000000E-01  8.50000000E-01  8.50000000E-01  8.00000000E-01  8.50000000E-01
  8.50000000E-01  8.50000000E-01  8.00000000E-01  8.50000000E-01  8.50000000E-01
  8.50000000E-01  8.00000000E-01  8.50000000E-01  8.50000000E-01  8.50000000E-01
  8.00000000E-01  8.50000000E-01  8.50000000E-01  8.50000000E-01  8.00000000E-01
  8.50000000E-01  8.50000000E-01  8.50000000E-01  8.00000000E-01  8.50000000E-01
  8.50000000E-01  8.50000000E-01  8.00000000E-01  8.50000000E-01  8.50000000E-01
  8.50000000E-01  8.00000000E-01  8.50000000E-01  8.50000000E-01  8.50000000E-01
  8.00000000E-01  8.50000000E-01  8.50000000E-01  8.50000000E-01  8.00000000E-01
  8.50000000E-01  8.50000000E-01  8.50000000E-01  8.00000000E-01  8.50000000E-01
  8.50000000E-01  8.50000000E-01  8.00000000E-01  8.50000000E-01  8.50000000E-01
  8.50000000E-01  8.00000000E-01  8.50000000E-01  8.50000000E-01  8.50000000E-01
  8.00000000E-01  8.50000000E-01  8.50000000E-01  8.50000000E-01  8.00000000E-01
  8.50000000E-01  8.50000000E-01  8.50000000E-01  8.00000000E-01  8.50000000E-01
  8.50000000E-01  8.50000000E-01  8.00000000E-01  8.50000000E-01  8.50000000E-01
  8.50000000E-01  8.00000000E-01  8.50000000E-01  8.50000000E-01  8.50000000E-01
  8.00000000E-01  8.50000000E-01  8.50000000E-01  8.50000000E-01  8.00000000E-01
  8.50000000E-01  8.50000000E-01  8.50000000E-01  8.00000000E-01  8.50000000E-01
  8.50000000E-01  8.50000000E-01  8.00000000E-01  8.50000000E-01  8.50000000E-01
  8.50000000E-01  8.00000000E-01  8.50000000E-01  8.50000000E-01  8.50000000E-01
  8.00000000E-01  8.50000000E-01  8.50000000E-01  8.50000000E-01  8.00000000E-01
  8.50000000E-01  8.50000000E-01  8.50000000E-01  8.00000000E-01  8.50000000E-01
  8.50000000E-01  8.50000000E-01  8.00000000E-01  8.50000000E-01  8.50000000E-01
  8.50000000E-01  8.00000000E-01  8.50000000E-01  8.50000000E-01  8.50000000E-01
  8.00000000E-01  8.50000000E-01  8.50000000E-01  8.50000000E-01  8.00000000E-01
  8.50000000E-01  8.50000000E-01  8.50000000E-01  8.00000000E-01  8.50000000E-01
  8.50000000E-01  8.50000000E-01  8.00000000E-01  8.50000000E-01  8.50000000E-01
  8.50000000E-01  8.00000000E-01  8.50000000E-01  8.50000000E-01  8.50000000E-01
  8.00000000E-01  8.50000000E-01  8.50000000E-01  8.50000000E-01  8.00000000E-01
  8.50000000E-01  8.50000000E-01  8.50000000E-01  8.00000000E-01  8.50000000E-01
  8.50000000E-01  8.50000000E-01  8.00000000E-01  8.50000000E-01  8.50000000E-01
  8.50000000E-01  8.00000000E-01  8.50000000E-01  8.50000000E-01  8.50000000E-01
  8.00000000E-01  8.50000000E-01  8.50000000E-01  8.50000000E-01  8.00000000E-01
  8.50000000E-01  8.50000000E-01  8.50000000E-01  8.00000000E-01  8.50000000E-01
  8.50000000E-01  8.50000000E-01  8.00000000E-01  8.50000000E-01  8.50000000E-01
  8.50000000E-01  8.00000000E-01  8.50000000E-01  8.50000000E-01  8.50000000E-01
  8.00000000E-01  8.50000000E-01  8.50000000E-01  8.50000000E-01  8.00000000E-01
  8.50000000E-01  8.50000000E-01  8.50000000E-01  8.00000000E-01  8.50000000E-01
  8.50000000E-01  8.50000000E-01  8.00000000E-01  8.50000000E-01  8.50000000E-01
  8.50000000E-01  8.00000000E-01  8.50000000E-01  8.50000000E-01  8.50000000E-01
  8.00000000E-01  8.50000000E-01  8.50000000E-01  8.50000000E-01  8.00000000E-01
  8.50000000E-01  8.50000000E-01  8.50000000E-01  8.00000000E-01  8.50000000E-01
  8.50000000E-01  8.50000000E-01  8.00000000E-01  8.50000000E-01  8.50000000E-01
  8.50000000E-01  8.00000000E-01  8.50000000E-01  8.50000000E-01  8.50000000E-01
  8.00000000E-01  8.50000000E-01  8.50000000E-01  8.50000000E-01  8.00000000E-01
  8.50000000E-01  8.50000000E-01  8.50000000E-01  8.00000000E-01  8.50000000E-01
  8.50000000E-01  8.50000000E-01  8.00000000E-01  8.50000000E-01  8.50000000E-01
  8.50000000E-01  8.00000000E-01  8.50000000E-01  8.50000000E-01  8.50000000E-01
  8.00000000E-01  8.50000000E-01  8.50000000E-01  8.50000000E-01  8.00000000E-01
  8.50000000E-01  8.50000000E-01  8.50000000E-01  8.00000000E-01  8.50000000E-01
  8.50000000E-01  8.50000000E-01  8.00000000E-01  8.50000000E-01  8.50000000E-01
  8.50000000E-01  8.00000000E-01  8.50000000E-01  8.50000000E-01  8.50000000E-01
  8.00000000E-01  8.50000000E-01  8.50000000E-01  8.50000000E-01  8.00000000E-01
  8.50000000E-01  8.50000000E-01  8.50000000E-01  8.00000000E-01  8.50000000E-01
  8.50000000E-01  8.50000000E-01  8.00000000E-01  8.50000000E-01  8.50000000E-01
  8.50000000E-01  8.00000000E-01  8.50000000E-01  8.50000000E-01  8.50000000E-01
  8.00000000E-01  8.50000000E-01  8.50000000E-01  8.50000000E-01  8.00000000E-01
  8.50000000E-01  8.50000000E-01  8.50000000E-01  8.00000000E-01  8.50000000E-01
  8.50000000E-01  8.50000000E-01  8.00000000E-01  8.50000000E-01  8.50000000E-01
  8.50000000E-01  8.00000000E-01  8.50000000E-01  8.50000000E-01  8.50000000E-01
  8.00000000E-01  8.50000000E-01  8.50000000E-01  8.50000000E-01  8.00000000E-01
  8.50000000E-01  8.50000000E-01  8.50000000E-01  8.00000000E-01  8.50000000E-01
  8.50000000E-01  8.50000000E-01  8.00000000E-01  8.50000000E-01  8.50000000E-01
  8.50000000E-01  8.00000000E-01  8.50000000E-01  8.50000000E-01  8.50000000E-01
  8.00000000E-01  8.50000000E-01  8.50000000E-01  8.50000000E-01  8.00000000E-01
  8.50000000E-01  8.50000000E-01  8.50000000E-01  8.00000000E-01  8.50000000E-01
  8.50000000E-01  8.50000000E-01  8.00000000E-01  8.50000000E-01  8.50000000E-01
  8.50000000E-01  8.00000000E-01  8.50000000E-01  8.50000000E-01  8.50000000E-01
  8.00000000E-01  8.50000000E-01  8.50000000E-01  8.50000000E-01  8.00000000E-01
  8.50000000E-01  8.50000000E-01  8.50000000E-01  8.00000000E-01  8.50000000E-01
  8.50000000E-01  8.50000000E-01  8.00000000E-01  8.50000000E-01  8.50000000E-01
  8.50000000E-01  8.00000000E-01  8.50000000E-01  8.50000000E-01  8.50000000E-01
  8.00000000E-01  8.50000000E-01  8.50000000E-01  8.50000000E-01  8.00000000E-01
  8.50000000E-01  8.50000000E-01  8.50000000E-01  8.00000000E-01  8.50000000E-01
  8.50000000E-01  8.50000000E-01  8.00000000E-01  8.50000000E-01  8.50000000E-01
  8.50000000E-01  8.00000000E-01  8.50000000E-01  8.50000000E-01  8.50000000E-01
  8.00000000E-01  8.50000000E-01  8.50000000E-01  8.50000000E-01  8.00000000E-01
  8.50000000E-01  8.50000000E-01  8.50000000E-01  8.00000000E-01  8.50000000E-01
  8.50000000E-01  8.50000000E-01  8.00000000E-01  8.50000000E-01  8.50000000E-01
  8.50000000E-01  8.00000000E-01  8.50000000E-01  8.50000000E-01  8.50000000E-01
  8.00000000E-01  8.50000000E-01  8.50000000E-01  8.50000000E-01  8.00000000E-01
  8.50000000E-01  8.50000000E-01  8.50000000E-01  8.00000000E-01  8.50000000E-01
  8.50000000E-01  8.50000000E-01  8.00000000E-01  8.50000000E-01  8.50000000E-01
  8.50000000E-01  8.00000000E-01  8.50000000E-01  8.50000000E-01  8.50000000E-01
  8.00000000E-01  8.50000000E-01  8.50000000E-01  8.50000000E-01  8.00000000E-01
  8.50000000E-01  8.50000000E-01  8.50000000E-01  8.00000000E-01  8.50000000E-01
  8.50000000E-01  8.50000000E-01  8.00000000E-01  8.50000000E-01  8.50000000E-01
  8.50000000E-01  8.00000000E-01  8.50000000E-01  8.50000000E-01  8.50000000E-01
  8.00000000E-01  8.50000000E-01  8.50000000E-01  8.50000000E-01  8.00000000E-01
  8.50000000E-01  8.50000000E-01  8.50000000E-01  8.00000000E-01  8.50000000E-01
  8.50000000E-01  8.50000000E-01  8.00000000E-01  8.50000000E-01  8.50000000E-01
  8.50000000E-01  8.00000000E-01  8.50000000E-01  8.50000000E-01  8.50000000E-01
  8.00000000E-01  8.50000000E-01  8.50000000E-01  8.50000000E-01  8.00000000E-01
  8.50000000E-01  8.50000000E-01  8.50000000E-01  8.00000000E-01  8.50000000E-01
  8.50000000E-01  8.50000000E-01  8.00000000E-01  8.50000000E-01  8.50000000E-01
  8.50000000E-01  8.00000000E-01  8.50000000E-01  8.50000000E-01  8.50000000E-01
  8.00000000E-01  8.50000000E-01  8.50000000E-01  8.50000000E-01  8.00000000E-01
  8.50000000E-01  8.50000000E-01  8.50000000E-01  8.00000000E-01  8.50000000E-01
  8.50000000E-01  8.50000000E-01  8.00000000E-01  8.50000000E-01  8.50000000E-01
  8.50000000E-01  8.00000000E-01  8.50000000E-01  8.50000000E-01  8.50000000E-01
  8.00000000E-01  8.50000000E-01  8.50000000E-01  8.50000000E-01  8.00000000E-01
  8.50000000E-01  8.50000000E-01  8.50000000E-01  8.00000000E-01  8.50000000E-01
  8.50000000E-01  8.50000000E-01  8.00000000E-01  8.50000000E-01  8.50000000E-01
  8.50000000E-01  8.00000000E-01  8.50000000E-01  8.50000000E-01  8.50000000E-01
  8.00000000E-01  8.50000000E-01  8.50000000E-01  8.50000000E-01  8.00000000E-01
  8.50000000E-01  8.50000000E-01  8.50000000E-01  8.00000000E-01  8.50000000E-01
  8.50000000E-01  8.50000000E-01  8.00000000E-01  8.50000000E-01  8.50000000E-01
  8.50000000E-01  8.00000000E-01  8.50000000E-01  8.50000000E-01  8.50000000E-01
  8.00000000E-01  8.50000000E-01  8.50000000E-01  8.50000000E-01  8.00000000E-01
  8.50000000E-01  8.50000000E-01  8.50000000E-01  8.00000000E-01  8.50000000E-01
  8.50000000E-01  8.50000000E-01  8.00000000E-01  8.50000000E-01  8.50000000E-01
  8.50000000E-01  8.00000000E-01  8.50000000E-01  8.50000000E-01  8.50000000E-01
  8.00000000E-01  8.50000000E-01  8.50000000E-01  8.50000000E-01  8.00000000E-01
  8.50000000E-01  8.50000000E-01  8.50000000E-01  8.00000000E-01  8.50000000E-01
  8.50000000E-01  8.50000000E-01  8.00000000E-01  8.50000000E-01  8.50000000E-01
  8.50000000E-01  8.00000000E-01  8.50000000E-01  8.50000000E-01  8.50000000E-01
  8.00000000E-01  8.50000000E-01  8.50000000E-01  8.50000000E-01  8.00000000E-01
  8.50000000E-01  8.50000000E-01  8.50000000E-01  8.00000000E-01  8.50000000E-01
  8.50000000E-01  8.50000000E-01  8.00000000E-01  8.50000000E-01  8.50000000E-01
  8.50000000E-01  8.00000000E-01  8.50000000E-01  8.50000000E-01  8.50000000E-01
  8.00000000E-01  8.50000000E-01  8.50000000E-01  8.50000000E-01  8.00000000E-01
  8.50000000E-01  8.50000000E-01  8.50000000E-01  8.00000000E-01  8.50000000E-01
  8.50000000E-01  8.50000000E-01  8.00000000E-01  8.50000000E-01  8.50000000E-01
  8.50000000E-01  8.00000000E-01  8.50000000E-01  8.50000000E-01  8.50000000E-01
  8.00000000E-01  8.50000000E-01  8.50000000E-01  8.50000000E-01  8.00000000E-01
  8.50000000E-01  8.50000000E-01  8.50000000E-01  8.00000000E-01  8.50000000E-01
  8.50000000E-01  8.50000000E-01  8.00000000E-01  8.50000000E-01  8.50000000E-01
  8.50000000E-01  8.00000000E-01  8.50000000E-01  8.50000000E-01  8.50000000E-01
  8.00000000E-01  8.50000000E-01  8.50000000E-01  8.50000000E-01  8.00000000E-01
  8.50000000E-01  8.50000000E-01  8.50000000E-01  8.00000000E-01  8.50000000E-01
  8.50000000E-01  8.50000000E-01  8.00000000E-01  8.50000000E-01  8.50000000E-01
  8.50000000E-01  8.00000000E-01  8.50000000E-01  8.50000000E-01  8.50000000E-01
  8.00000000E-01  8.50000000E-01  8.50000000E-01  8.50000000E-01  8.00000000E-01
  8.50000000E-01  8.50000000E-01  8.50000000E-01  8.00000000E-01  8.50000000E-01
  8.50000000E-01  8.50000000E-01  8.00000000E-01  8.50000000E-01  8.50000000E-01
  8.50000000E-01  8.00000000E-01  8.50000000E-01  8.50000000E-01  8.50000000E-01
  8.00000000E-01  8.50000000E-01  8.50000000E-01  8.50000000E-01  8.00000000E-01
  8.50000000E-01  8.50000000E-01  8.50000000E-01  8.00000000E-01  8.50000000E-01
  8.50000000E-01  8.50000000E-01  8.00000000E-01  8.50000000E-01  8.50000000E-01
  8.50000000E-01  8.00000000E-01  8.50000000E-01  8.50000000E-01  8.50000000E-01
  8.00000000E-01  8.50000000E-01  8.50000000E-01  8.50000000E-01  8.00000000E-01
  8.50000000E-01  8.50000000E-01  8.50000000E-01  8.00000000E-01  8.50000000E-01
  8.50000000E-01  8.50000000E-01  8.00000000E-01  8.50000000E-01  8.50000000E-01
  8.50000000E-01  8.00000000E-01  8.50000000E-01  8.50000000E-01  8.50000000E-01
  8.00000000E-01  8.50000000E-01  8.50000000E-01  8.50000000E-01  8.00000000E-01
  8.50000000E-01  8.50000000E-01  8.50000000E-01  8.00000000E-01  8.50000000E-01
  8.50000000E-01  8.50000000E-01  8.00000000E-01  8.50000000E-01  8.50000000E-01
  8.50000000E-01  8.00000000E-01  8.50000000E-01  8.50000000E-01  8.50000000E-01
  8.00000000E-01  8.50000000E-01  8.50000000E-01  8.50000000E-01  8.00000000E-01
  8.50000000E-01  8.50000000E-01  8.50000000E-01  8.00000000E-01  8.50000000E-01
  8.50000000E-01  8.50000000E-01  8.00000000E-01  8.50000000E-01  8.50000000E-01
  8.50000000E-01  8.00000000E-01  8.50000000E-01  8.50000000E-01  8.50000000E-01
  8.00000000E-01  8.50000000E-01  8.50000000E-01  8.50000000E-01  8.00000000E-01
  8.50000000E-01  8.50000000E-01  8.50000000E-01  8.00000000E-01  8.50000000E-01
  8.50000000E-01  8.50000000E-01  8.00000000E-01  8.50000000E-01  8.50000000E-01
  8.50000000E-01  8.00000000E-01  8.50000000E-01  8.50000000E-01  8.50000000E-01
  8.00000000E-01  8.50000000E-01  8.50000000E-01  8.50000000E-01  8.00000000E-01
  8.50000000E-01  8.50000000E-01  8.50000000E-01  8.00000000E-01  8.50000000E-01
  8.50000000E-01  8.50000000E-01  8.00000000E-01  8.50000000E-01  8.50000000E-01
  8.50000000E-01  8.00000000E-01  8.50000000E-01  8.50000000E-01  8.50000000E-01
  8.00000000E-01  8.50000000E-01  8.50000000E-01  8.50000000E-01  8.00000000E-01
  8.50000000E-01  8.50000000E-01  8.50000000E-01  8.00000000E-01  8.50000000E-01
  8.50000000E-01  8.50000000E-01  8.00000000E-01  8.50000000E-01  8.50000000E-01
  8.50000000E-01  8.00000000E-01  8.50000000E-01  8.50000000E-01  8.50000000E-01
  8.00000000E-01  8.50000000E-01  8.50000000E-01  8.50000000E-01  8.00000000E-01
  8.50000000E-01  8.50000000E-01  8.50000000E-01  8.00000000E-01  8.50000000E-01
  8.50000000E-01  8.50000000E-01  8.00000000E-01  8.50000000E-01  8.50000000E-01
  8.50000000E-01  8.00000000E-01  8.50000000E-01  8.50000000E-01  8.50000000E-01
  8.00000000E-01  8.50000000E-01  8.50000000E-01  8.50000000E-01  8.00000000E-01
  8.50000000E-01  8.50000000E-01  8.50000000E-01  8.00000000E-01  8.50000000E-01
  8.50000000E-01  8.50000000E-01  8.00000000E-01  8.50000000E-01  8.50000000E-01
  8.50000000E-01  8.00000000E-01  8.50000000E-01  8.50000000E-01  8.50000000E-01
  8.00000000E-01  8.50000000E-01  8.50000000E-01  8.50000000E-01  8.00000000E-01
  8.50000000E-01  8.50000000E-01  8.50000000E-01  8.00000000E-01  8.50000000E-01
  8.50000000E-01  8.50000000E-01  8.00000000E-01  8.50000000E-01  8.50000000E-01
  8.50000000E-01  8.00000000E-01  8.50000000E-01  8.50000000E-01  8.50000000E-01
  8.00000000E-01  8.50000000E-01  8.50000000E-01  8.50000000E-01  8.00000000E-01
  8.50000000E-01  8.50000000E-01  8.50000000E-01  8.00000000E-01  8.50000000E-01
  8.50000000E-01  8.50000000E-01  8.00000000E-01  8.50000000E-01  8.50000000E-01
  8.50000000E-01  8.00000000E-01  8.50000000E-01  8.50000000E-01  8.50000000E-01
  8.00000000E-01  8.50000000E-01  8.50000000E-01  8.50000000E-01  8.00000000E-01
  8.50000000E-01  8.50000000E-01  8.50000000E-01  8.00000000E-01  8.50000000E-01
  8.50000000E-01  8.50000000E-01  8.00000000E-01  8.50000000E-01  8.50000000E-01
  8.50000000E-01  8.00000000E-01  8.50000000E-01  8.50000000E-01  8.50000000E-01
  8.00000000E-01  8.50000000E-01  8.50000000E-01  8.50000000E-01  8.00000000E-01
  8.50000000E-01  8.50000000E-01  8.50000000E-01  8.00000000E-01  8.50000000E-01
  8.50000000E-01  8.50000000E-01  8.00000000E-01  8.50000000E-01  8.50000000E-01
  8.50000000E-01  8.00000000E-01  8.50000000E-01  8.50000000E-01  8.50000000E-01
  8.00000000E-01  8.50000000E-01  8.50000000E-01  8.50000000E-01  8.00000000E-01
  8.50000000E-01  8.50000000E-01  8.50000000E-01  8.00000000E-01  8.50000000E-01
  8.50000000E-01  8.50000000E-01  8.00000000E-01  8.50000000E-01  8.50000000E-01
  8.50000000E-01  8.00000000E-01  8.50000000E-01  8.50000000E-01  8.50000000E-01
  8.00000000E-01  8.50000000E-01  8.50000000E-01  8.50000000E-01  8.00000000E-01
  8.50000000E-01  8.50000000E-01  8.50000000E-01  8.00000000E-01  8.50000000E-01
  8.50000000E-01  8.50000000E-01  8.00000000E-01  8.50000000E-01  8.50000000E-01
  8.50000000E-01  8.00000000E-01  8.50000000E-01  8.50000000E-01  8.50000000E-01
  8.00000000E-01  8.50000000E-01  8.50000000E-01  8.50000000E-01  8.00000000E-01
  8.50000000E-01  8.50000000E-01  8.50000000E-01  8.00000000E-01  8.50000000E-01
  8.50000000E-01  8.50000000E-01  8.00000000E-01  8.50000000E-01  8.50000000E-01
  8.50000000E-01  8.00000000E-01  8.50000000E-01  8.50000000E-01  8.50000000E-01
  8.00000000E-01  8.50000000E-01  8.50000000E-01  8.50000000E-01  8.00000000E-01
  8.50000000E-01  8.50000000E-01  8.50000000E-01  8.00000000E-01  8.50000000E-01
  8.50000000E-01  8.50000000E-01  8.00000000E-01  8.50000000E-01  8.50000000E-01
  8.50000000E-01  8.00000000E-01  8.50000000E-01  8.50000000E-01  8.50000000E-01
  8.00000000E-01  8.50000000E-01  8.50000000E-01  8.50000000E-01  8.00000000E-01
  8.50000000E-01  8.50000000E-01  8.50000000E-01  8.00000000E-01  8.50000000E-01
  8.50000000E-01  8.50000000E-01  8.00000000E-01  8.50000000E-01  8.50000000E-01
  8.50000000E-01  8.00000000E-01  8.50000000E-01  8.50000000E-01  8.50000000E-01
  8.00000000E-01  8.50000000E-01  8.50000000E-01  8.50000000E-01  8.00000000E-01
  8.50000000E-01  8.50000000E-01  8.50000000E-01  8.00000000E-01  8.50000000E-01
  8.50000000E-01  8.50000000E-01  8.00000000E-01  8.50000000E-01  8.50000000E-01
  8.50000000E-01  8.00000000E-01  8.50000000E-01  8.50000000E-01  8.50000000E-01
  8.00000000E-01  8.50000000E-01  8.50000000E-01  8.50000000E-01  8.00000000E-01
  8.50000000E-01  8.50000000E-01  8.50000000E-01  8.00000000E-01  8.50000000E-01
  8.50000000E-01  8.50000000E-01  8.00000000E-01  8.50000000E-01  8.50000000E-01
  8.50000000E-01  8.00000000E-01  8.50000000E-01  8.50000000E-01  8.50000000E-01
  8.00000000E-01  8.50000000E-01  8.50000000E-01  8.50000000E-01  8.00000000E-01
  8.50000000E-01  8.50000000E-01  8.50000000E-01  8.00000000E-01  8.50000000E-01
  8.50000000E-01  8.50000000E-01  8.00000000E-01  8.50000000E-01  8.50000000E-01
  8.50000000E-01  8.00000000E-01  8.50000000E-01  8.50000000E-01  8.50000000E-01
  8.00000000E-01  8.50000000E-01  8.50000000E-01  8.50000000E-01  8.00000000E-01
  8.50000000E-01  8.50000000E-01  8.50000000E-01  8.00000000E-01  8.50000000E-01
  8.50000000E-01  8.50000000E-01  8.00000000E-01  8.50000000E-01  8.50000000E-01
  8.50000000E-01  8.00000000E-01  8.50000000E-01  8.50000000E-01  8.50000000E-01
  8.00000000E-01  8.50000000E-01  8.50000000E-01  8.50000000E-01  8.00000000E-01
  8.50000000E-01  8.50000000E-01  8.50000000E-01  8.00000000E-01  8.50000000E-01
  8.50000000E-01  8.50000000E-01  8.00000000E-01  8.50000000E-01  8.50000000E-01
  8.50000000E-01  8.00000000E-01  8.50000000E-01  8.50000000E-01  8.50000000E-01
  8.00000000E-01  8.50000000E-01  8.50000000E-01  8.50000000E-01  8.00000000E-01
  8.50000000E-01  8.50000000E-01  8.50000000E-01  8.00000000E-01  8.50000000E-01
  8.50000000E-01  8.50000000E-01  8.00000000E-01  8.50000000E-01  8.50000000E-01
  8.50000000E-01  8.00000000E-01  8.50000000E-01  8.50000000E-01  8.50000000E-01
  8.00000000E-01  8.50000000E-01  8.50000000E-01  8.50000000E-01  8.00000000E-01
  8.50000000E-01  8.50000000E-01  8.50000000E-01  8.00000000E-01  8.50000000E-01
  8.50000000E-01  8.50000000E-01  8.00000000E-01  8.50000000E-01  8.50000000E-01
  8.50000000E-01  8.00000000E-01  8.50000000E-01  8.50000000E-01  8.50000000E-01
  8.00000000E-01  8.50000000E-01  8.50000000E-01  8.50000000E-01  8.00000000E-01
  8.50000000E-01  8.50000000E-01  8.50000000E-01  8.00000000E-01  8.50000000E-01
  8.50000000E-01  8.50000000E-01  8.00000000E-01  8.50000000E-01  8.50000000E-01
  8.50000000E-01  8.00000000E-01  8.50000000E-01  8.50000000E-01  8.50000000E-01
  8.00000000E-01  8.50000000E-01  8.50000000E-01  8.50000000E-01  8.00000000E-01
  8.50000000E-01  8.50000000E-01  8.50000000E-01  8.00000000E-01  8.50000000E-01
  8.50000000E-01  8.50000000E-01  8.00000000E-01  8.50000000E-01  8.50000000E-01
  8.50000000E-01  8.00000000E-01  8.50000000E-01  8.50000000E-01  8.50000000E-01
  8.00000000E-01  8.50000000E-01  8.50000000E-01  8.50000000E-01  8.00000000E-01
  8.50000000E-01  8.50000000E-01  8.50000000E-01  8.00000000E-01  8.50000000E-01
  8.50000000E-01  8.50000000E-01  8.00000000E-01  8.50000000E-01  8.50000000E-01
  8.50000000E-01  8.00000000E-01  8.50000000E-01  8.50000000E-01  8.50000000E-01
  8.00000000E-01  8.50000000E-01  8.50000000E-01  8.50000000E-01  8.00000000E-01
  8.50000000E-01  8.50000000E-01  8.50000000E-01  8.00000000E-01  8.50000000E-01
  8.50000000E-01  8.50000000E-01  8.00000000E-01  8.50000000E-01  8.50000000E-01
  8.50000000E-01  8.00000000E-01  8.50000000E-01  8.50000000E-01  8.50000000E-01
  8.00000000E-01  8.50000000E-01  8.50000000E-01  8.50000000E-01  8.00000000E-01
  8.50000000E-01  8.50000000E-01  8.50000000E-01  8.00000000E-01  8.50000000E-01
  8.50000000E-01  8.50000000E-01  8.00000000E-01  8.50000000E-01  8.50000000E-01
  8.50000000E-01  8.00000000E-01  8.50000000E-01  8.50000000E-01  8.50000000E-01
  8.00000000E-01  8.50000000E-01  8.50000000E-01  8.50000000E-01  8.00000000E-01
  8.50000000E-01  8.50000000E-01  8.50000000E-01  8.00000000E-01  8.50000000E-01
  8.50000000E-01  8.50000000E-01  8.00000000E-01  8.50000000E-01  8.50000000E-01
  8.50000000E-01  8.00000000E-01  8.50000000E-01  8.50000000E-01  8.50000000E-01
  8.00000000E-01  8.50000000E-01  8.50000000E-01  8.50000000E-01  8.00000000E-01
  8.50000000E-01  8.50000000E-01  8.50000000E-01  8.00000000E-01  8.50000000E-01
  8.50000000E-01  8.50000000E-01  8.00000000E-01  8.50000000E-01  8.50000000E-01
  8.50000000E-01  8.00000000E-01  8.50000000E-01  8.50000000E-01  8.50000000E-01
  8.00000000E-01  8.50000000E-01  8.50000000E-01  8.50000000E-01  8.00000000E-01
  8.50000000E-01  8.50000000E-01  8.50000000E-01  8.00000000E-01  8.50000000E-01
  8.50000000E-01  8.50000000E-01  8.00000000E-01  8.50000000E-01  8.50000000E-01
  8.50000000E-01  8.00000000E-01  8.50000000E-01  8.50000000E-01  8.50000000E-01
  8.00000000E-01  8.50000000E-01  8.50000000E-01  8.50000000E-01  8.00000000E-01
  8.50000000E-01  8.50000000E-01  8.50000000E-01  8.00000000E-01  8.50000000E-01
  8.50000000E-01  8.50000000E-01  8.00000000E-01  8.50000000E-01  8.50000000E-01
  8.50000000E-01  8.00000000E-01  8.50000000E-01  8.50000000E-01  8.50000000E-01
  8.00000000E-01  8.50000000E-01  8.50000000E-01  8.50000000E-01  8.00000000E-01
  8.50000000E-01  8.50000000E-01  8.50000000E-01  8.00000000E-01  8.50000000E-01
  8.50000000E-01  8.50000000E-01  8.00000000E-01  8.50000000E-01  8.50000000E-01
  8.50000000E-01  8.00000000E-01  8.50000000E-01  8.50000000E-01  8.50000000E-01
  8.00000000E-01  8.50000000E-01  8.50000000E-01  8.50000000E-01  8.00000000E-01
  8.50000000E-01  8.50000000E-01  8.50000000E-01  8.00000000E-01  8.50000000E-01
  8.50000000E-01  8.50000000E-01  8.00000000E-01  8.50000000E-01  8.50000000E-01
  8.50000000E-01  8.00000000E-01  8.50000000E-01  8.50000000E-01  8.50000000E-01
  8.00000000E-01  8.50000000E-01  8.50000000E-01  8.50000000E-01  8.00000000E-01
  8.50000000E-01  8.50000000E-01  8.50000000E-01  8.00000000E-01  8.50000000E-01
  8.50000000E-01  8.50000000E-01  8.00000000E-01  8.50000000E-01  8.50000000E-01
  8.50000000E-01  8.00000000E-01  8.50000000E-01  8.50000000E-01  8.50000000E-01
  8.00000000E-01  8.50000000E-01  8.50000000E-01  8.50000000E-01  8.00000000E-01
  8.50000000E-01  8.50000000E-01  8.50000000E-01  8.00000000E-01  8.50000000E-01
  8.50000000E-01  8.50000000E-01  8.00000000E-01  8.50000000E-01  8.50000000E-01
  8.50000000E-01  8.00000000E-01  8.50000000E-01  8.50000000E-01  8.50000000E-01
  8.00000000E-01  8.50000000E-01  8.50000000E-01  8.50000000E-01  8.00000000E-01
  8.50000000E-01  8.50000000E-01  8.50000000E-01  8.00000000E-01  8.50000000E-01
  8.50000000E-01  8.50000000E-01  8.00000000E-01  8.50000000E-01  8.50000000E-01
  8.50000000E-01  8.00000000E-01  8.50000000E-01  8.50000000E-01  8.50000000E-01
  8.00000000E-01  8.50000000E-01  8.50000000E-01  8.50000000E-01  8.00000000E-01
  8.50000000E-01  8.50000000E-01  8.50000000E-01  8.00000000E-01  8.50000000E-01
  8.50000000E-01  8.50000000E-01  8.00000000E-01  8.50000000E-01  8.50000000E-01
  8.50000000E-01  8.00000000E-01  8.50000000E-01  8.50000000E-01  8.50000000E-01
  8.00000000E-01  8.50000000E-01  8.50000000E-01  8.50000000E-01  8.00000000E-01
  8.50000000E-01  8.50000000E-01  8.50000000E-01  8.00000000E-01  8.50000000E-01
  8.50000000E-01  8.50000000E-01  8.00000000E-01  8.50000000E-01  8.50000000E-01
  8.50000000E-01  8.00000000E-01  8.50000000E-01  8.50000000E-01  8.50000000E-01
  8.00000000E-01  8.50000000E-01  8.50000000E-01  8.50000000E-01  8.00000000E-01
  8.50000000E-01  8.50000000E-01  8.50000000E-01  8.00000000E-01  8.50000000E-01
  8.50000000E-01  8.50000000E-01  8.00000000E-01  8.50000000E-01  8.50000000E-01
  8.50000000E-01  8.00000000E-01  8.50000000E-01  8.50000000E-01  8.50000000E-01
  8.00000000E-01  8.50000000E-01  8.50000000E-01  8.50000000E-01  8.00000000E-01
  8.50000000E-01  8.50000000E-01  8.50000000E-01  8.00000000E-01  8.50000000E-01
  8.50000000E-01  8.50000000E-01  8.00000000E-01  8.50000000E-01  8.50000000E-01
  8.50000000E-01  8.00000000E-01  8.50000000E-01  8.50000000E-01  8.50000000E-01
  8.00000000E-01  8.50000000E-01  8.50000000E-01  8.50000000E-01  8.00000000E-01
  8.50000000E-01  8.50000000E-01  8.50000000E-01  8.00000000E-01  8.50000000E-01
  8.50000000E-01  8.50000000E-01  8.00000000E-01  8.50000000E-01  8.50000000E-01
  8.50000000E-01  8.00000000E-01  8.50000000E-01  8.50000000E-01  8.50000000E-01
  8.00000000E-01  8.50000000E-01  8.50000000E-01  8.50000000E-01  8.00000000E-01
  8.50000000E-01  8.50000000E-01  8.50000000E-01  8.00000000E-01  8.50000000E-01
  8.50000000E-01  8.50000000E-01  8.00000000E-01  8.50000000E-01  8.50000000E-01
  8.50000000E-01  8.00000000E-01  8.50000000E-01  8.50000000E-01  8.50000000E-01
  8.00000000E-01  8.50000000E-01  8.50000000E-01  8.50000000E-01  8.00000000E-01
  8.50000000E-01  8.50000000E-01  8.50000000E-01  8.00000000E-01  8.50000000E-01
  8.50000000E-01  8.50000000E-01  8.00000000E-01  8.50000000E-01  8.50000000E-01
  8.50000000E-01  8.00000000E-01  8.50000000E-01  8.50000000E-01  8.50000000E-01
  8.00000000E-01  8.50000000E-01  8.50000000E-01  8.50000000E-01  8.00000000E-01
  8.50000000E-01  8.50000000E-01  8.50000000E-01  8.00000000E-01  8.50000000E-01
  8.50000000E-01  8.50000000E-01  8.00000000E-01  8.50000000E-01  8.50000000E-01
  8.50000000E-01  8.00000000E-01  8.50000000E-01  8.50000000E-01  8.50000000E-01
  8.00000000E-01  8.50000000E-01  8.50000000E-01  8.50000000E-01  8.00000000E-01
  8.50000000E-01  8.50000000E-01  8.50000000E-01  8.00000000E-01  8.50000000E-01
  8.50000000E-01  8.50000000E-01  8.00000000E-01  8.50000000E-01  8.50000000E-01
  8.50000000E-01  8.00000000E-01  8.50000000E-01  8.50000000E-01  8.50000000E-01
  8.00000000E-01  8.50000000E-01  8.50000000E-01  8.50000000E-01  8.00000000E-01
  8.50000000E-01  8.50000000E-01  8.50000000E-01  8.00000000E-01  8.50000000E-01
  8.50000000E-01  8.50000000E-01  8.00000000E-01  8.50000000E-01  8.50000000E-01
  8.50000000E-01  8.00000000E-01  8.50000000E-01  8.50000000E-01  8.50000000E-01
  8.00000000E-01  8.50000000E-01  8.50000000E-01  8.50000000E-01  8.00000000E-01
  8.50000000E-01  8.50000000E-01  8.50000000E-01  8.00000000E-01  8.50000000E-01
  8.50000000E-01  8.50000000E-01  8.00000000E-01  8.50000000E-01  8.50000000E-01
  8.50000000E-01  8.00000000E-01  8.50000000E-01  8.50000000E-01  8.50000000E-01
  8.00000000E-01  8.50000000E-01  8.50000000E-01  8.50000000E-01  8.00000000E-01
  8.50000000E-01  8.50000000E-01  8.50000000E-01  8.00000000E-01  8.50000000E-01
  8.50000000E-01  8.50000000E-01  8.00000000E-01  8.50000000E-01  8.50000000E-01
  8.50000000E-01  8.00000000E-01  8.50000000E-01  8.50000000E-01  8.50000000E-01
  8.00000000E-01  8.50000000E-01  8.50000000E-01  8.50000000E-01  8.00000000E-01
  8.50000000E-01  8.50000000E-01  8.50000000E-01  8.00000000E-01  8.50000000E-01
  8.50000000E-01  8.50000000E-01  8.00000000E-01  8.50000000E-01  8.50000000E-01
  8.50000000E-01  8.00000000E-01  8.50000000E-01  8.50000000E-01  8.50000000E-01
  8.00000000E-01  8.50000000E-01  8.50000000E-01  8.50000000E-01  8.00000000E-01
  8.50000000E-01  8.50000000E-01  8.50000000E-01  8.00000000E-01  8.50000000E-01
  8.50000000E-01  8.50000000E-01  8.00000000E-01  8.50000000E-01  8.50000000E-01
  8.50000000E-01  8.00000000E-01  8.50000000E-01  8.50000000E-01  8.50000000E-01
  8.00000000E-01  8.50000000E-01  8.50000000E-01  8.50000000E-01  8.00000000E-01
  8.50000000E-01  8.50000000E-01  8.50000000E-01  8.00000000E-01  8.50000000E-01
  8.50000000E-01  8.50000000E-01  8.00000000E-01  8.50000000E-01  8.50000000E-01
  8.50000000E-01  8.00000000E-01  8.50000000E-01  8.50000000E-01  8.50000000E-01
  8.00000000E-01  8.50000000E-01  8.50000000E-01  8.50000000E-01  8.00000000E-01
  8.50000000E-01  8.50000000E-01  8.50000000E-01  8.00000000E-01  8.50000000E-01
  8.50000000E-01  8.50000000E-01  8.00000000E-01  8.50000000E-01  8.50000000E-01
  8.50000000E-01  8.00000000E-01  8.50000000E-01  8.50000000E-01  8.50000000E-01
  8.00000000E-01  8.50000000E-01  8.50000000E-01  8.50000000E-01  8.00000000E-01
  8.50000000E-01  8.50000000E-01  8.50000000E-01  8.00000000E-01  8.50000000E-01
  8.50000000E-01  8.50000000E-01  8.00000000E-01  8.50000000E-01  8.50000000E-01
  8.50000000E-01  8.00000000E-01  8.50000000E-01  8.50000000E-01  8.50000000E-01
  8.00000000E-01  8.50000000E-01  8.50000000E-01  8.50000000E-01  8.00000000E-01
  8.50000000E-01  8.50000000E-01  8.50000000E-01  8.00000000E-01  8.50000000E-01
  8.50000000E-01  8.50000000E-01  8.00000000E-01  8.50000000E-01  8.50000000E-01
  8.50000000E-01  8.00000000E-01  8.50000000E-01  8.50000000E-01  8.50000000E-01
  8.00000000E-01  8.50000000E-01  8.50000000E-01  8.50000000E-01  8.00000000E-01
  8.50000000E-01  8.50000000E-01  8.50000000E-01  8.00000000E-01  8.50000000E-01
  8.50000000E-01  8.50000000E-01  8.00000000E-01  8.50000000E-01  8.50000000E-01
  8.50000000E-01  8.00000000E-01  8.50000000E-01  8.50000000E-01  8.50000000E-01
  8.00000000E-01  8.50000000E-01  8.50000000E-01  8.50000000E-01  8.00000000E-01
  8.50000000E-01  8.50000000E-01  8.50000000E-01  8.00000000E-01  8.50000000E-01
  8.50000000E-01  8.50000000E-01  8.00000000E-01  8.50000000E-01  8.50000000E-01
  8.50000000E-01  8.00000000E-01  8.50000000E-01  8.50000000E-01  8.50000000E-01
  8.00000000E-01  8.50000000E-01  8.50000000E-01  8.50000000E-01  8.00000000E-01
  8.50000000E-01  8.50000000E-01  8.50000000E-01  8.00000000E-01  8.50000000E-01
  8.50000000E-01  8.50000000E-01  8.00000000E-01  8.50000000E-01  8.50000000E-01
  8.50000000E-01  8.00000000E-01  8.50000000E-01  8.50000000E-01  8.50000000E-01
  8.00000000E-01  8.50000000E-01  8.50000000E-01  8.50000000E-01  8.00000000E-01
  8.50000000E-01  8.50000000E-01  8.50000000E-01  8.00000000E-01  8.50000000E-01
  8.50000000E-01  8.50000000E-01  8.00000000E-01  8.50000000E-01  8.50000000E-01
  8.50000000E-01  8.00000000E-01  8.50000000E-01  8.50000000E-01  8.50000000E-01
  8.00000000E-01  8.50000000E-01  8.50000000E-01  8.50000000E-01  8.00000000E-01
  8.50000000E-01  8.50000000E-01  8.50000000E-01  8.00000000E-01  8.50000000E-01
  8.50000000E-01  8.50000000E-01  8.00000000E-01  8.50000000E-01  8.50000000E-01
  8.50000000E-01  8.00000000E-01  8.50000000E-01  8.50000000E-01  8.50000000E-01
  8.00000000E-01  8.50000000E-01  8.50000000E-01  8.50000000E-01  8.00000000E-01
  8.50000000E-01  8.50000000E-01  8.50000000E-01  8.00000000E-01  8.50000000E-01
  8.50000000E-01  8.50000000E-01  8.00000000E-01  8.50000000E-01  8.50000000E-01
  8.50000000E-01  8.00000000E-01  8.50000000E-01  8.50000000E-01  8.50000000E-01
  8.00000000E-01  8.50000000E-01  8.50000000E-01  8.50000000E-01  8.00000000E-01
  8.50000000E-01  8.50000000E-01  8.50000000E-01  8.00000000E-01  8.50000000E-01
  8.50000000E-01  8.50000000E-01  8.00000000E-01  8.50000000E-01  8.50000000E-01
  8.50000000E-01  8.00000000E-01  8.50000000E-01  8.50000000E-01  8.50000000E-01
  8.00000000E-01  8.50000000E-01  8.50000000E-01  8.50000000E-01  8.00000000E-01
  8.50000000E-01  8.50000000E-01  8.50000000E-01  8.00000000E-01  8.50000000E-01
  8.50000000E-01  8.50000000E-01  8.00000000E-01  8.50000000E-01  8.50000000E-01
  8.50000000E-01  8.00000000E-01  8.50000000E-01  8.50000000E-01  8.50000000E-01
  8.00000000E-01  8.50000000E-01  8.50000000E-01  8.50000000E-01  8.00000000E-01
  8.50000000E-01  8.50000000E-01  8.50000000E-01  8.00000000E-01  8.50000000E-01
  8.50000000E-01  8.50000000E-01  8.00000000E-01  8.50000000E-01  8.50000000E-01
  8.50000000E-01  8.00000000E-01  8.50000000E-01  8.50000000E-01  8.50000000E-01
  8.00000000E-01  8.50000000E-01  8.50000000E-01  8.50000000E-01  8.00000000E-01
  8.50000000E-01  8.50000000E-01  8.50000000E-01  8.00000000E-01  8.50000000E-01
  8.50000000E-01  8.50000000E-01  8.00000000E-01  8.50000000E-01  8.50000000E-01
  8.50000000E-01  8.00000000E-01  8.50000000E-01  8.50000000E-01  8.50000000E-01
  8.00000000E-01  8.50000000E-01  8.50000000E-01  8.50000000E-01  8.00000000E-01
  8.50000000E-01  8.50000000E-01  8.50000000E-01  8.00000000E-01  8.50000000E-01
  8.50000000E-01  8.50000000E-01  8.00000000E-01  8.50000000E-01  8.50000000E-01
  8.50000000E-01  8.00000000E-01  8.50000000E-01  8.50000000E-01  8.50000000E-01
  8.00000000E-01  8.50000000E-01  8.50000000E-01  8.50000000E-01  8.00000000E-01
  8.50000000E-01  8.50000000E-01  8.50000000E-01  8.00000000E-01  8.50000000E-01
  8.50000000E-01  8.50000000E-01  8.00000000E-01  8.50000000E-01  8.50000000E-01
  8.50000000E-01  8.00000000E-01  8.50000000E-01  8.50000000E-01  8.50000000E-01
  8.00000000E-01  8.50000000E-01  8.50000000E-01  8.50000000E-01  8.00000000E-01
  8.50000000E-01  8.50000000E-01  8.50000000E-01  8.00000000E-01  8.50000000E-01
  8.50000000E-01  8.50000000E-01  8.00000000E-01  8.50000000E-01  8.50000000E-01
  8.50000000E-01  8.00000000E-01  8.50000000E-01  8.50000000E-01  8.50000000E-01
  8.00000000E-01  8.50000000E-01  8.50000000E-01  8.50000000E-01  8.00000000E-01
  8.50000000E-01  8.50000000E-01  8.50000000E-01  8.00000000E-01  8.50000000E-01
  8.50000000E-01  8.50000000E-01  8.00000000E-01  8.50000000E-01  8.50000000E-01
  8.50000000E-01  8.00000000E-01  8.50000000E-01  8.50000000E-01  8.50000000E-01
  8.00000000E-01  8.50000000E-01  8.50000000E-01  8.50000000E-01  8.00000000E-01
  8.50000000E-01  8.50000000E-01  8.50000000E-01  8.00000000E-01  8.50000000E-01
  8.50000000E-01  8.50000000E-01  8.00000000E-01  8.50000000E-01  8.50000000E-01
  8.50000000E-01  8.00000000E-01  8.50000000E-01  8.50000000E-01  8.50000000E-01
  8.00000000E-01  8.50000000E-01  8.50000000E-01  8.50000000E-01  8.00000000E-01
  8.50000000E-01  8.50000000E-01  8.50000000E-01  8.00000000E-01  8.50000000E-01
  8.50000000E-01  8.50000000E-01  8.00000000E-01  8.50000000E-01  8.50000000E-01
  8.50000000E-01  8.00000000E-01  8.50000000E-01  8.50000000E-01  8.50000000E-01
  8.00000000E-01  8.50000000E-01  8.50000000E-01  8.50000000E-01  8.00000000E-01
  8.50000000E-01  8.50000000E-01  8.50000000E-01  8.00000000E-01  8.50000000E-01
  8.50000000E-01  8.50000000E-01  8.00000000E-01  8.50000000E-01  8.50000000E-01
  8.50000000E-01  8.00000000E-01  8.50000000E-01  8.50000000E-01  8.50000000E-01
  8.00000000E-01  8.50000000E-01  8.50000000E-01  8.50000000E-01  8.00000000E-01
  8.50000000E-01  8.50000000E-01  8.50000000E-01  8.00000000E-01  8.50000000E-01
  8.50000000E-01  8.50000000E-01  8.00000000E-01  8.50000000E-01  8.50000000E-01
  8.50000000E-01  8.00000000E-01  8.50000000E-01  8.50000000E-01  8.50000000E-01
  8.00000000E-01  8.50000000E-01  8.50000000E-01  8.50000000E-01  8.00000000E-01
  8.50000000E-01  8.50000000E-01  8.50000000E-01  8.00000000E-01  8.50000000E-01
  8.50000000E-01  8.50000000E-01  8.00000000E-01  8.50000000E-01  8.50000000E-01
  8.50000000E-01  8.00000000E-01  8.50000000E-01  8.50000000E-01  8.50000000E-01
  8.00000000E-01  8.50000000E-01  8.50000000E-01  8.50000000E-01  8.00000000E-01
  8.50000000E-01  8.50000000E-01  8.50000000E-01  8.00000000E-01  8.50000000E-01
  8.50000000E-01  8.50000000E-01  8.00000000E-01  8.50000000E-01  8.50000000E-01
  8.50000000E-01  8.00000000E-01  8.50000000E-01  8.50000000E-01  8.50000000E-01
  8.00000000E-01  8.50000000E-01  8.50000000E-01  8.50000000E-01  8.00000000E-01
  8.50000000E-01  8.50000000E-01  8.50000000E-01  8.00000000E-01  8.50000000E-01
  8.50000000E-01  8.50000000E-01  8.00000000E-01  8.50000000E-01  8.50000000E-01
  8.50000000E-01  8.00000000E-01  8.50000000E-01  8.50000000E-01  8.50000000E-01
  8.00000000E-01  8.50000000E-01  8.50000000E-01  8.50000000E-01  8.00000000E-01
  8.50000000E-01  8.50000000E-01  8.50000000E-01  8.00000000E-01  8.50000000E-01
  8.50000000E-01  8.50000000E-01  8.00000000E-01  8.50000000E-01  8.50000000E-01
  8.50000000E-01  8.00000000E-01  8.50000000E-01  8.50000000E-01  8.50000000E-01
  8.00000000E-01  8.50000000E-01  8.50000000E-01  8.50000000E-01  8.00000000E-01
  8.50000000E-01  8.50000000E-01  8.50000000E-01  8.00000000E-01  8.50000000E-01
  8.50000000E-01  8.50000000E-01  8.00000000E-01  8.50000000E-01  8.50000000E-01
  8.50000000E-01  8.00000000E-01  8.50000000E-01  8.50000000E-01  8.50000000E-01
  8.00000000E-01  8.50000000E-01  8.50000000E-01  8.50000000E-01  8.00000000E-01
  8.50000000E-01  8.50000000E-01  8.50000000E-01  8.00000000E-01  8.50000000E-01
  8.50000000E-01  8.50000000E-01  8.00000000E-01  8.50000000E-01  8.50000000E-01
  8.50000000E-01  8.00000000E-01  8.50000000E-01  8.50000000E-01  8.50000000E-01
  8.00000000E-01  8.50000000E-01  8.50000000E-01  8.50000000E-01  8.00000000E-01
  8.50000000E-01  8.50000000E-01  8.50000000E-01  8.00000000E-01  8.50000000E-01
  8.50000000E-01  8.50000000E-01  8.00000000E-01  8.50000000E-01  8.50000000E-01
  8.50000000E-01  8.00000000E-01  8.50000000E-01  8.50000000E-01  8.50000000E-01
  8.00000000E-01  8.50000000E-01  8.50000000E-01  8.50000000E-01  8.00000000E-01
  8.50000000E-01  8.50000000E-01  8.50000000E-01  8.00000000E-01  8.50000000E-01
  8.50000000E-01  8.50000000E-01  8.00000000E-01  8.50000000E-01  8.50000000E-01
  8.50000000E-01  8.00000000E-01  8.50000000E-01  8.50000000E-01  8.50000000E-01
  8.00000000E-01  8.50000000E-01  8.50000000E-01  8.50000000E-01  8.00000000E-01
  8.50000000E-01  8.50000000E-01  8.50000000E-01  8.00000000E-01  8.50000000E-01
  8.50000000E-01  8.50000000E-01  8.00000000E-01  8.50000000E-01  8.50000000E-01
  8.50000000E-01  8.00000000E-01  8.50000000E-01  8.50000000E-01  8.50000000E-01
  8.00000000E-01  8.50000000E-01  8.50000000E-01  8.50000000E-01  8.00000000E-01
  8.50000000E-01  8.50000000E-01  8.50000000E-01  8.00000000E-01  8.50000000E-01
  8.50000000E-01  8.50000000E-01  8.00000000E-01  8.50000000E-01  8.50000000E-01
  8.50000000E-01  8.00000000E-01  8.50000000E-01  8.50000000E-01  8.50000000E-01
  8.00000000E-01  8.50000000E-01  8.50000000E-01  8.50000000E-01  8.00000000E-01
  8.50000000E-01  8.50000000E-01  8.50000000E-01  8.00000000E-01  8.50000000E-01
  8.50000000E-01  8.50000000E-01  8.00000000E-01  8.50000000E-01  8.50000000E-01
  8.50000000E-01  8.00000000E-01  8.50000000E-01  8.50000000E-01  8.50000000E-01
  8.00000000E-01  8.50000000E-01  8.50000000E-01  8.50000000E-01  8.00000000E-01
  8.50000000E-01  8.50000000E-01  8.50000000E-01  8.00000000E-01  8.50000000E-01
  8.50000000E-01  8.50000000E-01  8.00000000E-01  8.50000000E-01  8.50000000E-01
  8.50000000E-01  8.00000000E-01  8.50000000E-01  8.50000000E-01  8.50000000E-01
  8.00000000E-01  8.50000000E-01  8.50000000E-01  8.50000000E-01  8.00000000E-01
  8.50000000E-01  8.50000000E-01  8.50000000E-01  8.00000000E-01  8.50000000E-01
  8.50000000E-01  8.50000000E-01  8.00000000E-01  8.50000000E-01  8.50000000E-01
  8.50000000E-01  8.00000000E-01  8.50000000E-01  8.50000000E-01  8.50000000E-01
  8.00000000E-01  8.50000000E-01  8.50000000E-01  8.50000000E-01  8.00000000E-01
  8.50000000E-01  8.50000000E-01  8.50000000E-01  8.00000000E-01  8.50000000E-01
  8.50000000E-01  8.50000000E-01  8.00000000E-01  8.50000000E-01  8.50000000E-01
  8.50000000E-01  8.00000000E-01  8.50000000E-01  8.50000000E-01  8.50000000E-01
  8.00000000E-01  8.50000000E-01  8.50000000E-01  8.50000000E-01  8.00000000E-01
  8.50000000E-01  8.50000000E-01  8.50000000E-01  8.00000000E-01  8.50000000E-01
  8.50000000E-01  8.50000000E-01  8.00000000E-01  8.50000000E-01  8.50000000E-01
  8.50000000E-01  8.00000000E-01  8.50000000E-01  8.50000000E-01  8.50000000E-01
  8.00000000E-01  8.50000000E-01  8.50000000E-01  8.50000000E-01  8.00000000E-01
  8.50000000E-01  8.50000000E-01  8.50000000E-01  8.00000000E-01  8.50000000E-01
  8.50000000E-01  8.50000000E-01  8.00000000E-01  8.50000000E-01  8.50000000E-01
  8.50000000E-01  8.00000000E-01  8.50000000E-01  8.50000000E-01  8.50000000E-01
  8.00000000E-01  8.50000000E-01  8.50000000E-01  8.50000000E-01  8.00000000E-01
  8.50000000E-01  8.50000000E-01  8.50000000E-01  8.00000000E-01  8.50000000E-01
  8.50000000E-01  8.50000000E-01  8.00000000E-01  8.50000000E-01  8.50000000E-01
  8.50000000E-01  8.00000000E-01  8.50000000E-01  8.50000000E-01  8.50000000E-01
  8.00000000E-01  8.50000000E-01  8.50000000E-01  8.50000000E-01  8.00000000E-01
  8.50000000E-01  8.50000000E-01  8.50000000E-01  8.00000000E-01  8.50000000E-01
  8.50000000E-01  8.50000000E-01  8.00000000E-01  8.50000000E-01  8.50000000E-01
  8.50000000E-01  8.00000000E-01  8.50000000E-01  8.50000000E-01  8.50000000E-01
  8.00000000E-01  8.50000000E-01  8.50000000E-01  8.50000000E-01  8.00000000E-01
  8.50000000E-01  8.50000000E-01  8.50000000E-01  8.00000000E-01  8.50000000E-01
  8.50000000E-01  8.50000000E-01  8.00000000E-01  8.50000000E-01  8.50000000E-01
  8.50000000E-01  8.00000000E-01  8.50000000E-01  8.50000000E-01  8.50000000E-01
  8.00000000E-01  8.50000000E-01  8.50000000E-01  8.50000000E-01  8.00000000E-01
  8.50000000E-01  8.50000000E-01  8.50000000E-01  8.00000000E-01  8.50000000E-01
  8.50000000E-01  8.50000000E-01  8.00000000E-01  8.50000000E-01  8.50000000E-01
  8.50000000E-01  8.00000000E-01  8.50000000E-01  8.50000000E-01  8.50000000E-01
  8.00000000E-01  8.50000000E-01  8.50000000E-01  8.50000000E-01  8.00000000E-01
  8.50000000E-01  8.50000000E-01  8.50000000E-01  8.00000000E-01  8.50000000E-01
  8.50000000E-01  8.50000000E-01  8.00000000E-01  8.50000000E-01  8.50000000E-01
  8.50000000E-01  8.00000000E-01  8.50000000E-01  8.50000000E-01  8.50000000E-01
  8.00000000E-01  8.50000000E-01  8.50000000E-01  8.50000000E-01  8.00000000E-01
  8.50000000E-01  8.50000000E-01  8.50000000E-01  8.00000000E-01  8.50000000E-01
  8.50000000E-01  8.50000000E-01  8.00000000E-01  8.50000000E-01  8.50000000E-01
  8.50000000E-01  8.00000000E-01  8.50000000E-01  8.50000000E-01  8.50000000E-01
  8.00000000E-01  8.50000000E-01  8.50000000E-01  8.50000000E-01  8.00000000E-01
  8.50000000E-01  8.50000000E-01  8.50000000E-01  8.00000000E-01  8.50000000E-01
  8.50000000E-01  8.50000000E-01  8.00000000E-01  8.50000000E-01  8.50000000E-01
  8.50000000E-01  8.00000000E-01  8.50000000E-01  8.50000000E-01  8.50000000E-01
  8.00000000E-01  8.50000000E-01  8.50000000E-01  8.50000000E-01  8.00000000E-01
  8.50000000E-01  8.50000000E-01  8.50000000E-01  8.00000000E-01  8.50000000E-01
  8.50000000E-01  8.50000000E-01  8.00000000E-01  8.50000000E-01  8.50000000E-01
  8.50000000E-01  8.00000000E-01  8.50000000E-01  8.50000000E-01  8.50000000E-01
  8.00000000E-01  8.50000000E-01  8.50000000E-01  8.50000000E-01  8.00000000E-01
  8.50000000E-01  8.50000000E-01  8.50000000E-01  8.00000000E-01  8.50000000E-01
  8.50000000E-01  8.50000000E-01  8.00000000E-01  8.50000000E-01  8.50000000E-01
  8.50000000E-01  8.00000000E-01  8.50000000E-01  8.50000000E-01  8.50000000E-01
  8.00000000E-01  8.50000000E-01  8.50000000E-01  8.50000000E-01  8.00000000E-01
  8.50000000E-01  8.50000000E-01  8.50000000E-01  8.00000000E-01  8.50000000E-01
  8.50000000E-01  8.50000000E-01  8.00000000E-01  8.50000000E-01  8.50000000E-01
  8.50000000E-01  8.00000000E-01  8.50000000E-01  8.50000000E-01  8.50000000E-01
  8.00000000E-01  8.50000000E-01  8.50000000E-01  8.50000000E-01  8.00000000E-01
  8.50000000E-01  8.50000000E-01  8.50000000E-01  8.00000000E-01  8.50000000E-01
  8.50000000E-01  8.50000000E-01  8.00000000E-01  8.50000000E-01  8.50000000E-01
  8.50000000E-01  8.00000000E-01  8.50000000E-01  8.50000000E-01  8.50000000E-01
  8.00000000E-01  8.50000000E-01  8.50000000E-01  8.50000000E-01  8.00000000E-01
  8.50000000E-01  8.50000000E-01  8.50000000E-01  8.00000000E-01  8.50000000E-01
  8.50000000E-01  8.50000000E-01  8.00000000E-01  8.50000000E-01  8.50000000E-01
  8.50000000E-01  8.00000000E-01  8.50000000E-01  8.50000000E-01  8.50000000E-01
  8.00000000E-01  8.50000000E-01  8.50000000E-01  8.50000000E-01  8.00000000E-01
  8.50000000E-01  8.50000000E-01  8.50000000E-01  8.00000000E-01  8.50000000E-01
  8.50000000E-01  8.50000000E-01  8.00000000E-01  8.50000000E-01  8.50000000E-01
  8.50000000E-01  8.00000000E-01  8.50000000E-01  8.50000000E-01  8.50000000E-01
  8.00000000E-01  8.50000000E-01  8.50000000E-01  8.50000000E-01  8.00000000E-01
  8.50000000E-01  8.50000000E-01  8.50000000E-01  8.00000000E-01  8.50000000E-01
  8.50000000E-01  8.50000000E-01  8.00000000E-01  8.50000000E-01  8.50000000E-01
  8.50000000E-01  8.00000000E-01  8.50000000E-01  8.50000000E-01  8.50000000E-01
  8.00000000E-01  8.50000000E-01  8.50000000E-01  8.50000000E-01  8.00000000E-01
  8.50000000E-01  8.50000000E-01  8.50000000E-01  8.00000000E-01  8.50000000E-01
  8.50000000E-01  8.50000000E-01  8.00000000E-01  8.50000000E-01  8.50000000E-01
  8.50000000E-01  8.00000000E-01  8.50000000E-01  8.50000000E-01  8.50000000E-01
  8.00000000E-01  8.50000000E-01  8.50000000E-01  8.50000000E-01  8.00000000E-01
  8.50000000E-01  8.50000000E-01  8.50000000E-01  8.00000000E-01  8.50000000E-01
  8.50000000E-01  8.50000000E-01  8.00000000E-01  8.50000000E-01  8.50000000E-01
  8.50000000E-01  8.00000000E-01  8.50000000E-01  8.50000000E-01  8.50000000E-01
  8.00000000E-01  8.50000000E-01  8.50000000E-01  8.50000000E-01  8.00000000E-01
  8.50000000E-01  8.50000000E-01  8.50000000E-01  8.00000000E-01  8.50000000E-01
  8.50000000E-01  8.50000000E-01  8.00000000E-01  8.50000000E-01  8.50000000E-01
  8.50000000E-01  8.00000000E-01  8.50000000E-01  8.50000000E-01  8.50000000E-01
  8.00000000E-01  8.50000000E-01  8.50000000E-01  8.50000000E-01  8.00000000E-01
  8.50000000E-01  8.50000000E-01  8.50000000E-01  8.00000000E-01  8.50000000E-01
  8.50000000E-01  8.50000000E-01  8.00000000E-01  8.50000000E-01  8.50000000E-01
  8.50000000E-01  8.00000000E-01  8.50000000E-01  8.50000000E-01  8.50000000E-01
  8.00000000E-01  8.50000000E-01  8.50000000E-01  8.50000000E-01  8.00000000E-01
  8.50000000E-01  8.50000000E-01  8.50000000E-01  8.00000000E-01  8.50000000E-01
  8.50000000E-01  8.50000000E-01  8.00000000E-01  8.50000000E-01  8.50000000E-01
  8.50000000E-01  8.00000000E-01  8.50000000E-01  8.50000000E-01  8.50000000E-01
  8.00000000E-01  8.50000000E-01  8.50000000E-01  8.50000000E-01  8.00000000E-01
  8.50000000E-01  8.50000000E-01  8.50000000E-01  8.00000000E-01  8.50000000E-01
  8.50000000E-01  8.50000000E-01  8.00000000E-01  8.50000000E-01  8.50000000E-01
  8.50000000E-01  8.00000000E-01  8.50000000E-01  8.50000000E-01  8.50000000E-01
  8.00000000E-01  8.50000000E-01  8.50000000E-01  8.50000000E-01  8.00000000E-01
  8.50000000E-01  8.50000000E-01  8.50000000E-01  8.00000000E-01  8.50000000E-01
  8.50000000E-01  8.50000000E-01  8.00000000E-01  8.50000000E-01  8.50000000E-01
  8.50000000E-01  8.00000000E-01  8.50000000E-01  8.50000000E-01  8.50000000E-01
  8.00000000E-01  8.50000000E-01  8.50000000E-01  8.50000000E-01  8.00000000E-01
  8.50000000E-01  8.50000000E-01  8.50000000E-01  8.00000000E-01  8.50000000E-01
  8.50000000E-01  8.50000000E-01  8.00000000E-01  8.50000000E-01  8.50000000E-01
  8.50000000E-01  8.00000000E-01  8.50000000E-01  8.50000000E-01  8.50000000E-01
  8.00000000E-01  8.50000000E-01  8.50000000E-01  8.50000000E-01  8.00000000E-01
  8.50000000E-01  8.50000000E-01  8.50000000E-01  8.00000000E-01  8.50000000E-01
  8.50000000E-01  8.50000000E-01  8.00000000E-01  8.50000000E-01  8.50000000E-01
  8.50000000E-01  8.00000000E-01  8.50000000E-01  8.50000000E-01  8.50000000E-01
  8.00000000E-01  8.50000000E-01  8.50000000E-01  8.50000000E-01  8.00000000E-01
  8.50000000E-01  8.50000000E-01  8.50000000E-01  8.00000000E-01  8.50000000E-01
  8.50000000E-01  8.50000000E-01  8.00000000E-01  8.50000000E-01  8.50000000E-01
  8.50000000E-01  8.00000000E-01  8.50000000E-01  8.50000000E-01  8.50000000E-01
  8.00000000E-01  8.50000000E-01  8.50000000E-01  8.50000000E-01  8.00000000E-01
  8.50000000E-01  8.50000000E-01  8.50000000E-01  8.00000000E-01  8.50000000E-01
  8.50000000E-01  8.50000000E-01  8.00000000E-01  8.50000000E-01  8.50000000E-01
  8.50000000E-01  8.00000000E-01  8.50000000E-01  8.50000000E-01  8.50000000E-01
  8.00000000E-01  8.50000000E-01  8.50000000E-01  8.50000000E-01  8.00000000E-01
  8.50000000E-01  8.50000000E-01  8.50000000E-01  8.00000000E-01  8.50000000E-01
  8.50000000E-01  8.50000000E-01  8.00000000E-01  8.50000000E-01  8.50000000E-01
  8.50000000E-01  8.00000000E-01  8.50000000E-01  8.50000000E-01  8.50000000E-01
  8.00000000E-01  8.50000000E-01  8.50000000E-01  8.50000000E-01  8.00000000E-01
  8.50000000E-01  8.50000000E-01  8.50000000E-01  8.00000000E-01  8.50000000E-01
  8.50000000E-01  8.50000000E-01  8.00000000E-01  8.50000000E-01  8.50000000E-01
  8.50000000E-01  8.00000000E-01  8.50000000E-01  8.50000000E-01  8.50000000E-01
  8.00000000E-01  8.50000000E-01  8.50000000E-01  8.50000000E-01  8.00000000E-01
  8.50000000E-01  8.50000000E-01  8.50000000E-01  8.00000000E-01  8.50000000E-01
  8.50000000E-01  8.50000000E-01  8.00000000E-01  8.50000000E-01  8.50000000E-01
  8.50000000E-01  8.00000000E-01  8.50000000E-01  8.50000000E-01  8.50000000E-01
  8.00000000E-01  8.50000000E-01  8.50000000E-01  8.50000000E-01  8.00000000E-01
  8.50000000E-01  8.50000000E-01  8.50000000E-01  8.00000000E-01  8.50000000E-01
  8.50000000E-01  8.50000000E-01  8.00000000E-01  8.50000000E-01  8.50000000E-01
  8.50000000E-01  8.00000000E-01  8.50000000E-01  8.50000000E-01  8.50000000E-01
  8.00000000E-01  8.50000000E-01  8.50000000E-01  8.50000000E-01  8.00000000E-01
  8.50000000E-01  8.50000000E-01  8.50000000E-01  8.00000000E-01  8.50000000E-01
  8.50000000E-01  8.50000000E-01  8.00000000E-01  8.50000000E-01  8.50000000E-01
  8.50000000E-01  8.00000000E-01  8.50000000E-01  8.50000000E-01  8.50000000E-01
  8.00000000E-01  8.50000000E-01  8.50000000E-01  8.50000000E-01  8.00000000E-01
  8.50000000E-01  8.50000000E-01  8.50000000E-01  8.00000000E-01  8.50000000E-01
  8.50000000E-01  8.50000000E-01  8.00000000E-01  8.50000000E-01  8.50000000E-01
  8.50000000E-01  8.00000000E-01  8.50000000E-01  8.50000000E-01  8.50000000E-01
  8.00000000E-01  8.50000000E-01  8.50000000E-01  8.50000000E-01  8.00000000E-01
  8.50000000E-01  8.50000000E-01  8.50000000E-01  8.00000000E-01  8.50000000E-01
  8.50000000E-01  8.50000000E-01  8.00000000E-01  8.50000000E-01  8.50000000E-01
  8.50000000E-01  8.00000000E-01  8.50000000E-01  8.50000000E-01  8.50000000E-01
  8.00000000E-01  8.50000000E-01  8.50000000E-01  8.50000000E-01  8.00000000E-01
  8.50000000E-01  8.50000000E-01  8.50000000E-01  8.00000000E-01  8.50000000E-01
  8.50000000E-01  8.50000000E-01  8.00000000E-01  8.50000000E-01  8.50000000E-01
  8.50000000E-01  8.00000000E-01  8.50000000E-01  8.50000000E-01  8.50000000E-01
  8.00000000E-01  8.50000000E-01  8.50000000E-01  8.50000000E-01  8.00000000E-01
  8.50000000E-01  8.50000000E-01  8.50000000E-01  8.00000000E-01  8.50000000E-01
  8.50000000E-01  8.50000000E-01  8.00000000E-01  8.50000000E-01  8.50000000E-01
  8.50000000E-01  8.00000000E-01  8.50000000E-01  8.50000000E-01  8.50000000E-01
  8.00000000E-01  8.50000000E-01  8.50000000E-01  8.50000000E-01  8.00000000E-01
  8.50000000E-01  8.50000000E-01  8.50000000E-01  8.00000000E-01  8.50000000E-01
  8.50000000E-01  8.50000000E-01  8.00000000E-01  8.50000000E-01  8.50000000E-01
  8.50000000E-01  8.00000000E-01  8.50000000E-01  8.50000000E-01  8.50000000E-01
  8.00000000E-01  8.50000000E-01  8.50000000E-01  8.50000000E-01  8.00000000E-01
  8.50000000E-01  8.50000000E-01  8.50000000E-01  8.00000000E-01  8.50000000E-01
  8.50000000E-01  8.50000000E-01  8.00000000E-01  8.50000000E-01  8.50000000E-01
  8.50000000E-01  8.00000000E-01  8.50000000E-01  8.50000000E-01  8.50000000E-01
  8.00000000E-01  8.50000000E-01  8.50000000E-01  8.50000000E-01  8.00000000E-01
  8.50000000E-01  8.50000000E-01  8.50000000E-01  8.00000000E-01  8.50000000E-01
  8.50000000E-01  8.50000000E-01  8.00000000E-01  8.50000000E-01  8.50000000E-01
  8.50000000E-01  8.00000000E-01  8.50000000E-01  8.50000000E-01  8.50000000E-01
  8.00000000E-01  8.50000000E-01  8.50000000E-01  8.50000000E-01  8.00000000E-01
  8.50000000E-01  8.50000000E-01  8.50000000E-01  8.00000000E-01  8.50000000E-01
  8.50000000E-01  8.50000000E-01  8.00000000E-01  8.50000000E-01  8.50000000E-01
  8.50000000E-01  8.00000000E-01  8.50000000E-01  8.50000000E-01  8.50000000E-01
  8.00000000E-01  8.50000000E-01  8.50000000E-01  8.50000000E-01  8.00000000E-01
  8.50000000E-01  8.50000000E-01  8.50000000E-01  8.00000000E-01  8.50000000E-01
  8.50000000E-01  8.50000000E-01  8.00000000E-01  8.50000000E-01  8.50000000E-01
  8.50000000E-01  8.00000000E-01  8.50000000E-01  8.50000000E-01  8.50000000E-01
  8.00000000E-01  8.50000000E-01  8.50000000E-01  8.50000000E-01  8.00000000E-01
  8.50000000E-01  8.50000000E-01  8.50000000E-01  8.00000000E-01  8.50000000E-01
  8.50000000E-01  8.50000000E-01  8.00000000E-01  8.50000000E-01  8.50000000E-01
  8.50000000E-01  8.00000000E-01  8.50000000E-01  8.50000000E-01  8.50000000E-01
  8.00000000E-01  8.50000000E-01  8.50000000E-01  8.50000000E-01  8.00000000E-01
  8.50000000E-01  8.50000000E-01  8.50000000E-01  8.00000000E-01  8.50000000E-01
  8.50000000E-01  8.50000000E-01  8.00000000E-01  8.50000000E-01  8.50000000E-01
  8.50000000E-01  8.00000000E-01  8.50000000E-01  8.50000000E-01  8.50000000E-01
  8.00000000E-01  8.50000000E-01  8.50000000E-01  8.50000000E-01  8.00000000E-01
  8.50000000E-01  8.50000000E-01  8.50000000E-01  8.00000000E-01  8.50000000E-01
  8.50000000E-01  8.50000000E-01  8.00000000E-01  8.50000000E-01  8.50000000E-01
  8.50000000E-01  8.00000000E-01  8.50000000E-01  8.50000000E-01  8.50000000E-01
  8.00000000E-01  8.50000000E-01  8.50000000E-01  8.50000000E-01  8.00000000E-01
  8.50000000E-01  8.50000000E-01  8.50000000E-01  8.00000000E-01  8.50000000E-01
  8.50000000E-01  8.50000000E-01  8.00000000E-01  8.50000000E-01  8.50000000E-01
  8.50000000E-01  8.00000000E-01  8.50000000E-01  8.50000000E-01  8.50000000E-01
  8.00000000E-01  8.50000000E-01  8.50000000E-01  8.50000000E-01  8.00000000E-01
  8.50000000E-01  8.50000000E-01  8.50000000E-01  8.00000000E-01  8.50000000E-01
  8.50000000E-01  8.50000000E-01  8.00000000E-01  8.50000000E-01  8.50000000E-01
  8.50000000E-01  8.00000000E-01  8.50000000E-01  8.50000000E-01  8.50000000E-01
  8.00000000E-01  8.50000000E-01  8.50000000E-01  8.50000000E-01  8.00000000E-01
  8.50000000E-01  8.50000000E-01  8.50000000E-01  8.00000000E-01  8.50000000E-01
  8.50000000E-01  8.50000000E-01  8.00000000E-01  8.50000000E-01  8.50000000E-01
  8.50000000E-01  8.00000000E-01  8.50000000E-01  8.50000000E-01  8.50000000E-01
  8.00000000E-01  8.50000000E-01  8.50000000E-01  8.50000000E-01  8.00000000E-01
  8.50000000E-01  8.50000000E-01  8.50000000E-01  8.00000000E-01  8.50000000E-01
  8.50000000E-01  8.50000000E-01  8.00000000E-01  8.50000000E-01  8.50000000E-01
  8.50000000E-01  8.00000000E-01  8.50000000E-01  8.50000000E-01  8.50000000E-01
  8.00000000E-01  8.50000000E-01  8.50000000E-01  8.50000000E-01  8.00000000E-01
  8.50000000E-01  8.50000000E-01  8.50000000E-01  8.00000000E-01  8.50000000E-01
  8.50000000E-01  8.50000000E-01  8.00000000E-01  8.50000000E-01  8.50000000E-01
  8.50000000E-01  8.00000000E-01  8.50000000E-01  8.50000000E-01  8.50000000E-01
  8.00000000E-01  8.50000000E-01  8.50000000E-01  8.50000000E-01  8.00000000E-01
  8.50000000E-01  8.50000000E-01  8.50000000E-01  8.00000000E-01  8.50000000E-01
  8.50000000E-01  8.50000000E-01  8.00000000E-01  8.50000000E-01  8.50000000E-01
  8.50000000E-01  8.00000000E-01  8.50000000E-01  8.50000000E-01  8.50000000E-01
  8.00000000E-01  8.50000000E-01  8.50000000E-01  8.50000000E-01  8.00000000E-01
  8.50000000E-01  8.50000000E-01  8.50000000E-01  8.00000000E-01  8.50000000E-01
  8.50000000E-01  8.50000000E-01  8.00000000E-01  8.50000000E-01  8.50000000E-01
  8.50000000E-01  8.00000000E-01  8.50000000E-01  8.50000000E-01  8.50000000E-01
  8.00000000E-01  8.50000000E-01  8.50000000E-01  8.50000000E-01  8.00000000E-01
  8.50000000E-01  8.50000000E-01  8.50000000E-01  8.00000000E-01  8.50000000E-01
  8.50000000E-01  8.50000000E-01  8.00000000E-01  8.50000000E-01  8.50000000E-01
  8.50000000E-01  8.00000000E-01  8.50000000E-01  8.50000000E-01  8.50000000E-01
  8.00000000E-01  8.50000000E-01  8.50000000E-01  8.50000000E-01  8.00000000E-01
  8.50000000E-01  8.50000000E-01  8.50000000E-01  8.00000000E-01  8.50000000E-01
  8.50000000E-01  8.50000000E-01  8.00000000E-01  8.50000000E-01  8.50000000E-01
  8.50000000E-01  8.00000000E-01  8.50000000E-01  8.50000000E-01  8.50000000E-01
  8.00000000E-01  8.50000000E-01  8.50000000E-01  8.50000000E-01  8.00000000E-01
  8.50000000E-01  8.50000000E-01  8.50000000E-01  8.00000000E-01  8.50000000E-01
  8.50000000E-01  8.50000000E-01  8.00000000E-01  8.50000000E-01  8.50000000E-01
  8.50000000E-01  8.00000000E-01  8.50000000E-01  8.50000000E-01  8.50000000E-01
  8.00000000E-01  8.50000000E-01  8.50000000E-01  8.50000000E-01  8.00000000E-01
  8.50000000E-01  8.50000000E-01  8.50000000E-01  8.00000000E-01  8.50000000E-01
  8.50000000E-01  8.50000000E-01  8.00000000E-01  8.50000000E-01  8.50000000E-01
  8.50000000E-01  8.00000000E-01  8.50000000E-01  8.50000000E-01  8.50000000E-01
  8.00000000E-01  8.50000000E-01  8.50000000E-01  8.50000000E-01  8.00000000E-01
  8.50000000E-01  8.50000000E-01  8.50000000E-01  8.00000000E-01  8.50000000E-01
  8.50000000E-01  8.50000000E-01  8.00000000E-01  8.50000000E-01  8.50000000E-01
  8.50000000E-01  8.00000000E-01  8.50000000E-01  8.50000000E-01  8.50000000E-01
  8.00000000E-01  8.50000000E-01  8.50000000E-01  8.50000000E-01  8.00000000E-01
  8.50000000E-01  8.50000000E-01  8.50000000E-01  8.00000000E-01  8.50000000E-01
  8.50000000E-01  8.50000000E-01  8.00000000E-01  8.50000000E-01  8.50000000E-01
  8.50000000E-01  8.00000000E-01  8.50000000E-01  8.50000000E-01  8.50000000E-01
  8.00000000E-01  8.50000000E-01  8.50000000E-01  8.50000000E-01  8.00000000E-01
  8.50000000E-01  8.50000000E-01  8.50000000E-01  8.00000000E-01  8.50000000E-01
  8.50000000E-01  8.50000000E-01  8.00000000E-01  8.50000000E-01  8.50000000E-01
  8.50000000E-01  8.00000000E-01  8.50000000E-01  8.50000000E-01  8.50000000E-01
  8.00000000E-01  8.50000000E-01  8.50000000E-01  8.50000000E-01  8.00000000E-01
  8.50000000E-01  8.50000000E-01  8.50000000E-01  8.00000000E-01  8.50000000E-01
  8.50000000E-01  8.50000000E-01  8.00000000E-01  8.50000000E-01  8.50000000E-01
  8.50000000E-01  8.00000000E-01  8.50000000E-01  8.50000000E-01  8.50000000E-01
  8.00000000E-01  8.50000000E-01  8.50000000E-01  8.50000000E-01  8.00000000E-01
  8.50000000E-01  8.50000000E-01  8.50000000E-01  8.00000000E-01  8.50000000E-01
  8.50000000E-01  8.50000000E-01  8.00000000E-01  8.50000000E-01  8.50000000E-01
  8.50000000E-01  8.00000000E-01  8.50000000E-01  8.50000000E-01  8.50000000E-01
  8.00000000E-01  8.50000000E-01  8.50000000E-01  8.50000000E-01  8.00000000E-01
  8.50000000E-01  8.50000000E-01  8.50000000E-01  8.00000000E-01  8.50000000E-01
  8.50000000E-01  8.50000000E-01  8.00000000E-01  8.50000000E-01  8.50000000E-01
  8.50000000E-01  8.00000000E-01  8.50000000E-01  8.50000000E-01  8.50000000E-01
  8.00000000E-01  8.50000000E-01  8.50000000E-01  8.50000000E-01  8.00000000E-01
  8.50000000E-01  8.50000000E-01  8.50000000E-01  8.00000000E-01  8.50000000E-01
  8.50000000E-01  8.50000000E-01  8.00000000E-01  8.50000000E-01  8.50000000E-01
  8.50000000E-01  8.00000000E-01  8.50000000E-01  8.50000000E-01  8.50000000E-01
  8.00000000E-01  8.50000000E-01  8.50000000E-01  8.50000000E-01  8.00000000E-01
  8.50000000E-01  8.50000000E-01  8.50000000E-01  8.00000000E-01  8.50000000E-01
  8.50000000E-01  8.50000000E-01  8.00000000E-01  8.50000000E-01  8.50000000E-01
  8.50000000E-01  8.00000000E-01  8.50000000E-01  8.50000000E-01  8.50000000E-01
  8.00000000E-01  8.50000000E-01  8.50000000E-01  8.50000000E-01  8.00000000E-01
  8.50000000E-01  8.50000000E-01  8.50000000E-01  8.00000000E-01  8.50000000E-01
  8.50000000E-01  8.50000000E-01  8.00000000E-01  8.50000000E-01  8.50000000E-01
  8.50000000E-01  8.00000000E-01  8.50000000E-01  8.50000000E-01  8.50000000E-01
  8.00000000E-01  8.50000000E-01  8.50000000E-01  8.50000000E-01  8.00000000E-01
  8.50000000E-01  8.50000000E-01  8.50000000E-01  8.00000000E-01  8.50000000E-01
  8.50000000E-01  8.50000000E-01  8.00000000E-01  8.50000000E-01  8.50000000E-01
  8.50000000E-01  8.00000000E-01  8.50000000E-01  8.50000000E-01  8.50000000E-01
  8.00000000E-01  8.50000000E-01  8.50000000E-01  8.50000000E-01  8.00000000E-01
  8.50000000E-01  8.50000000E-01  8.50000000E-01  8.00000000E-01  8.50000000E-01
  8.50000000E-01  8.50000000E-01  8.00000000E-01  8.50000000E-01  8.50000000E-01
  8.50000000E-01  8.00000000E-01  8.50000000E-01  8.50000000E-01  8.50000000E-01
  8.00000000E-01  8.50000000E-01  8.50000000E-01  8.50000000E-01  8.00000000E-01
  8.50000000E-01  8.50000000E-01  8.50000000E-01  8.00000000E-01  8.50000000E-01
  8.50000000E-01  8.50000000E-01  8.00000000E-01  8.50000000E-01  8.50000000E-01
  8.50000000E-01  8.00000000E-01  8.50000000E-01  8.50000000E-01  8.50000000E-01
  8.00000000E-01  8.50000000E-01  8.50000000E-01  8.50000000E-01  8.00000000E-01
  8.50000000E-01  8.50000000E-01  8.50000000E-01  8.00000000E-01  8.50000000E-01
  8.50000000E-01  8.50000000E-01  8.00000000E-01  8.50000000E-01  8.50000000E-01
  8.50000000E-01  8.00000000E-01  8.50000000E-01  8.50000000E-01  8.50000000E-01
  8.00000000E-01  8.50000000E-01  8.50000000E-01  8.50000000E-01  8.00000000E-01
  8.50000000E-01  8.50000000E-01  8.50000000E-01  8.00000000E-01  8.50000000E-01
  8.50000000E-01  8.50000000E-01  8.00000000E-01  8.50000000E-01  8.50000000E-01
  8.50000000E-01  8.00000000E-01  8.50000000E-01  8.50000000E-01  8.50000000E-01
  8.00000000E-01  8.50000000E-01  8.50000000E-01  8.50000000E-01  8.00000000E-01
  8.50000000E-01  8.50000000E-01  8.50000000E-01  8.00000000E-01  8.50000000E-01
  8.50000000E-01  8.50000000E-01  8.00000000E-01  8.50000000E-01  8.50000000E-01
  8.50000000E-01  8.00000000E-01  8.50000000E-01  8.50000000E-01  8.50000000E-01
  8.00000000E-01  8.50000000E-01  8.50000000E-01  8.50000000E-01  8.00000000E-01
  8.50000000E-01  8.50000000E-01  8.50000000E-01  8.00000000E-01  8.50000000E-01
  8.50000000E-01  8.50000000E-01  8.00000000E-01  8.50000000E-01  8.50000000E-01
  8.50000000E-01  8.00000000E-01  8.50000000E-01  8.50000000E-01  8.50000000E-01
  8.00000000E-01  8.50000000E-01  8.50000000E-01  8.50000000E-01  8.00000000E-01
  8.50000000E-01  8.50000000E-01  8.50000000E-01  8.00000000E-01  8.50000000E-01
  8.50000000E-01  8.50000000E-01  8.00000000E-01  8.50000000E-01  8.50000000E-01
  8.50000000E-01  8.00000000E-01  8.50000000E-01  8.50000000E-01  8.50000000E-01
  8.00000000E-01  8.50000000E-01  8.50000000E-01  8.50000000E-01  8.00000000E-01
  8.50000000E-01  8.50000000E-01  8.50000000E-01  8.00000000E-01  8.50000000E-01
  8.50000000E-01  8.50000000E-01  8.00000000E-01  8.50000000E-01  8.50000000E-01
  8.50000000E-01  8.00000000E-01  8.50000000E-01  8.50000000E-01  8.50000000E-01
  8.00000000E-01  8.50000000E-01  8.50000000E-01  8.50000000E-01  8.00000000E-01
  8.50000000E-01  8.50000000E-01  8.50000000E-01  8.00000000E-01  8.50000000E-01
  8.50000000E-01  8.50000000E-01  8.00000000E-01  8.50000000E-01  8.50000000E-01
  8.50000000E-01  8.00000000E-01  8.50000000E-01  8.50000000E-01  8.50000000E-01
  8.00000000E-01  8.50000000E-01  8.50000000E-01  8.50000000E-01  8.00000000E-01
  8.50000000E-01  8.50000000E-01  8.50000000E-01  8.00000000E-01  8.50000000E-01
  8.50000000E-01  8.50000000E-01  8.00000000E-01  8.50000000E-01  8.50000000E-01
  8.50000000E-01  8.00000000E-01  8.50000000E-01  8.50000000E-01  8.50000000E-01
  8.00000000E-01  8.50000000E-01  8.50000000E-01  8.50000000E-01  8.00000000E-01
  8.50000000E-01  8.50000000E-01  8.50000000E-01  8.00000000E-01  8.50000000E-01
  8.50000000E-01  8.50000000E-01  8.00000000E-01  8.50000000E-01  8.50000000E-01
  8.50000000E-01  8.00000000E-01  8.50000000E-01  8.50000000E-01  8.50000000E-01
  8.00000000E-01  8.50000000E-01  8.50000000E-01  8.50000000E-01  8.00000000E-01
  8.50000000E-01  8.50000000E-01  8.50000000E-01  8.00000000E-01  8.50000000E-01
  8.50000000E-01  8.50000000E-01  8.00000000E-01  8.50000000E-01  8.50000000E-01
  8.50000000E-01  8.00000000E-01  8.50000000E-01  8.50000000E-01  8.50000000E-01
  8.00000000E-01  8.50000000E-01  8.50000000E-01  8.50000000E-01  8.00000000E-01
  8.50000000E-01  8.50000000E-01  8.50000000E-01  8.00000000E-01  8.50000000E-01
  8.50000000E-01  8.50000000E-01  8.00000000E-01  8.50000000E-01  8.50000000E-01
  8.50000000E-01  8.00000000E-01  8.50000000E-01  8.50000000E-01  8.50000000E-01
  8.00000000E-01  8.50000000E-01  8.50000000E-01  8.50000000E-01  8.00000000E-01
  8.50000000E-01  8.50000000E-01  8.50000000E-01  8.00000000E-01  8.50000000E-01
  8.50000000E-01  8.50000000E-01  8.00000000E-01  8.50000000E-01  8.50000000E-01
  8.50000000E-01  8.00000000E-01  8.50000000E-01  8.50000000E-01  8.50000000E-01
  8.00000000E-01  8.50000000E-01  8.50000000E-01  8.50000000E-01  8.00000000E-01
  8.50000000E-01  8.50000000E-01  8.50000000E-01  8.00000000E-01  8.50000000E-01
  8.50000000E-01  8.50000000E-01  8.00000000E-01  8.50000000E-01  8.50000000E-01
  8.50000000E-01  8.00000000E-01  8.50000000E-01  8.50000000E-01  8.50000000E-01
  8.00000000E-01  8.50000000E-01  8.50000000E-01  8.50000000E-01  8.00000000E-01
  8.50000000E-01  8.50000000E-01  8.50000000E-01  8.00000000E-01  8.50000000E-01
  8.50000000E-01  8.50000000E-01  8.00000000E-01  8.50000000E-01  8.50000000E-01
  8.50000000E-01  8.00000000E-01  8.50000000E-01  8.50000000E-01  8.50000000E-01
  8.00000000E-01  8.50000000E-01  8.50000000E-01  8.50000000E-01  8.00000000E-01
  8.50000000E-01  8.50000000E-01  8.50000000E-01  8.00000000E-01  8.50000000E-01
  8.50000000E-01  8.50000000E-01  8.00000000E-01  8.50000000E-01  8.50000000E-01
  8.50000000E-01  8.00000000E-01  8.50000000E-01  8.50000000E-01  8.50000000E-01
  8.00000000E-01  8.50000000E-01  8.50000000E-01  8.50000000E-01  8.00000000E-01
  8.50000000E-01  8.50000000E-01  8.50000000E-01  8.00000000E-01  8.50000000E-01
  8.50000000E-01  8.50000000E-01  8.00000000E-01  8.50000000E-01  8.50000000E-01
  8.50000000E-01  8.00000000E-01  8.50000000E-01  8.50000000E-01  8.50000000E-01
  8.00000000E-01  8.50000000E-01  8.50000000E-01  8.50000000E-01  8.00000000E-01
  8.50000000E-01  8.50000000E-01  8.50000000E-01  8.00000000E-01  8.50000000E-01
  8.50000000E-01  8.50000000E-01  8.00000000E-01  8.50000000E-01  8.50000000E-01
  8.50000000E-01  8.00000000E-01  8.50000000E-01  8.50000000E-01  8.50000000E-01
  8.00000000E-01  8.50000000E-01  8.50000000E-01  8.50000000E-01  8.00000000E-01
  8.50000000E-01  8.50000000E-01  8.50000000E-01  8.00000000E-01  8.50000000E-01
  8.50000000E-01  8.50000000E-01  8.00000000E-01  8.50000000E-01  8.50000000E-01
  8.50000000E-01  8.00000000E-01  8.50000000E-01  8.50000000E-01  8.50000000E-01
  8.00000000E-01  8.50000000E-01  8.50000000E-01  8.50000000E-01  8.00000000E-01
  8.50000000E-01  8.50000000E-01  8.50000000E-01  8.00000000E-01  8.50000000E-01
  8.50000000E-01  8.50000000E-01  8.00000000E-01  8.50000000E-01  8.50000000E-01
  8.50000000E-01  8.00000000E-01  8.50000000E-01  8.50000000E-01  8.50000000E-01
  8.00000000E-01  8.50000000E-01  8.50000000E-01  8.50000000E-01  8.00000000E-01
  8.50000000E-01  8.50000000E-01  8.50000000E-01  8.00000000E-01  8.50000000E-01
  8.50000000E-01  8.50000000E-01  8.00000000E-01  8.50000000E-01  8.50000000E-01
  8.50000000E-01  8.00000000E-01  8.50000000E-01  8.50000000E-01  8.50000000E-01
  8.00000000E-01  8.50000000E-01  8.50000000E-01  8.50000000E-01  8.00000000E-01
  8.50000000E-01  8.50000000E-01  8.50000000E-01  8.00000000E-01  8.50000000E-01
  8.50000000E-01  8.50000000E-01  8.00000000E-01  8.50000000E-01  8.50000000E-01
  8.50000000E-01  8.00000000E-01  8.50000000E-01  8.50000000E-01  8.50000000E-01
  8.00000000E-01  8.50000000E-01  8.50000000E-01  8.50000000E-01  8.00000000E-01
  8.50000000E-01  8.50000000E-01  8.50000000E-01  8.00000000E-01  8.50000000E-01
  8.50000000E-01  8.50000000E-01  8.00000000E-01  8.50000000E-01  8.50000000E-01
  8.50000000E-01  8.00000000E-01  8.50000000E-01  8.50000000E-01  8.50000000E-01
  8.00000000E-01  8.50000000E-01  8.50000000E-01  8.50000000E-01  8.00000000E-01
  8.50000000E-01  8.50000000E-01  8.50000000E-01  8.00000000E-01  8.50000000E-01
  8.50000000E-01  8.50000000E-01  8.00000000E-01  8.50000000E-01  8.50000000E-01
  8.50000000E-01  8.00000000E-01  8.50000000E-01  8.50000000E-01  8.50000000E-01
  8.00000000E-01  8.50000000E-01  8.50000000E-01  8.50000000E-01  8.00000000E-01
  8.50000000E-01  8.50000000E-01  8.50000000E-01  8.00000000E-01  8.50000000E-01
  8.50000000E-01  8.50000000E-01  8.00000000E-01  8.50000000E-01  8.50000000E-01
  8.50000000E-01  8.00000000E-01  8.50000000E-01  8.50000000E-01  8.50000000E-01
  8.00000000E-01  8.50000000E-01  8.50000000E-01  8.50000000E-01  8.00000000E-01
  8.50000000E-01  8.50000000E-01  8.50000000E-01  8.00000000E-01  8.50000000E-01
  8.50000000E-01  8.50000000E-01  8.00000000E-01  8.50000000E-01  8.50000000E-01
  8.50000000E-01  8.00000000E-01  8.50000000E-01  8.50000000E-01  8.50000000E-01
  8.00000000E-01  8.50000000E-01  8.50000000E-01  8.50000000E-01  8.00000000E-01
  8.50000000E-01  8.50000000E-01  8.50000000E-01  8.00000000E-01  8.50000000E-01
  8.50000000E-01  8.50000000E-01  8.00000000E-01  8.50000000E-01  8.50000000E-01
  8.50000000E-01  8.00000000E-01  8.50000000E-01  8.50000000E-01  8.50000000E-01
  8.00000000E-01  8.50000000E-01  8.50000000E-01  8.50000000E-01  8.00000000E-01
  8.50000000E-01  8.50000000E-01  8.50000000E-01  8.00000000E-01  8.50000000E-01
  8.50000000E-01  8.50000000E-01  8.00000000E-01  8.50000000E-01  8.50000000E-01
  8.50000000E-01  8.00000000E-01  8.50000000E-01  8.50000000E-01  8.50000000E-01
  8.00000000E-01  8.50000000E-01  8.50000000E-01  8.50000000E-01  8.00000000E-01
  8.50000000E-01  8.50000000E-01  8.50000000E-01  8.00000000E-01  8.50000000E-01
  8.50000000E-01  8.50000000E-01  8.00000000E-01  8.50000000E-01  8.50000000E-01
  8.50000000E-01  8.00000000E-01  8.50000000E-01  8.50000000E-01  8.50000000E-01
  8.00000000E-01  8.50000000E-01  8.50000000E-01  8.50000000E-01  8.00000000E-01
  8.50000000E-01  8.50000000E-01  8.50000000E-01  8.00000000E-01  8.50000000E-01
  8.50000000E-01  8.50000000E-01  8.00000000E-01  8.50000000E-01  8.50000000E-01
  8.50000000E-01  8.00000000E-01  8.50000000E-01  8.50000000E-01  8.50000000E-01
  8.00000000E-01  8.50000000E-01  8.50000000E-01  8.50000000E-01  8.00000000E-01
  8.50000000E-01  8.50000000E-01  8.50000000E-01  8.00000000E-01  8.50000000E-01
  8.50000000E-01  8.50000000E-01  8.00000000E-01  8.50000000E-01  8.50000000E-01
  8.50000000E-01  8.00000000E-01  8.50000000E-01  8.50000000E-01  8.50000000E-01
  8.00000000E-01  8.50000000E-01  8.50000000E-01  8.50000000E-01  8.00000000E-01
  8.50000000E-01  8.50000000E-01  8.50000000E-01  8.00000000E-01  8.50000000E-01
  8.50000000E-01  8.50000000E-01  8.00000000E-01  8.50000000E-01  8.50000000E-01
  8.50000000E-01  8.00000000E-01  8.50000000E-01  8.50000000E-01  8.50000000E-01
  8.00000000E-01  8.50000000E-01  8.50000000E-01  8.50000000E-01  8.00000000E-01
  8.50000000E-01  8.50000000E-01  8.50000000E-01  8.00000000E-01  8.50000000E-01
  8.50000000E-01  8.50000000E-01  8.00000000E-01  8.50000000E-01  8.50000000E-01
  8.50000000E-01  8.00000000E-01  8.50000000E-01  8.50000000E-01  8.50000000E-01
  8.00000000E-01  8.50000000E-01  8.50000000E-01  8.50000000E-01  8.00000000E-01
  8.50000000E-01  8.50000000E-01  8.50000000E-01  8.00000000E-01  8.50000000E-01
  8.50000000E-01  8.50000000E-01  8.00000000E-01  8.50000000E-01  8.50000000E-01
  8.50000000E-01  8.00000000E-01  8.50000000E-01  8.50000000E-01  8.50000000E-01
  8.00000000E-01  8.50000000E-01  8.50000000E-01  8.50000000E-01  8.00000000E-01
  8.50000000E-01  8.50000000E-01  8.50000000E-01  8.00000000E-01  8.50000000E-01
  8.50000000E-01  8.50000000E-01  8.00000000E-01  8.50000000E-01  8.50000000E-01
  8.50000000E-01  8.00000000E-01  8.50000000E-01  8.50000000E-01  8.50000000E-01
  8.00000000E-01  8.50000000E-01  8.50000000E-01  8.50000000E-01  8.00000000E-01
  8.50000000E-01  8.50000000E-01  8.50000000E-01  8.00000000E-01  8.50000000E-01
  8.50000000E-01  8.50000000E-01  8.00000000E-01  8.50000000E-01  8.50000000E-01
  8.50000000E-01  8.00000000E-01  8.50000000E-01  8.50000000E-01  8.50000000E-01
  8.00000000E-01  8.50000000E-01  8.50000000E-01  8.50000000E-01  8.00000000E-01
  8.50000000E-01  8.50000000E-01  8.50000000E-01  8.00000000E-01  8.50000000E-01
  8.50000000E-01  8.50000000E-01  8.00000000E-01  8.50000000E-01  8.50000000E-01
  8.50000000E-01  8.00000000E-01  8.50000000E-01  8.50000000E-01  8.50000000E-01
  8.00000000E-01  8.50000000E-01  8.50000000E-01  8.50000000E-01  8.00000000E-01
  8.50000000E-01  8.50000000E-01  8.50000000E-01  8.00000000E-01  8.50000000E-01
  8.50000000E-01  8.50000000E-01  8.00000000E-01  8.50000000E-01  8.50000000E-01
  8.50000000E-01  8.00000000E-01  8.50000000E-01  8.50000000E-01  8.50000000E-01
  8.00000000E-01  8.50000000E-01  8.50000000E-01  8.50000000E-01  8.00000000E-01
  8.50000000E-01  8.50000000E-01  8.50000000E-01  8.00000000E-01  8.50000000E-01
  8.50000000E-01  8.50000000E-01  8.00000000E-01  8.50000000E-01  8.50000000E-01
  8.50000000E-01  8.00000000E-01  8.50000000E-01  8.50000000E-01  8.50000000E-01
  8.00000000E-01  8.50000000E-01  8.50000000E-01  8.50000000E-01  8.00000000E-01
  8.50000000E-01  8.50000000E-01  8.50000000E-01  8.00000000E-01  8.50000000E-01
  8.50000000E-01  8.50000000E-01  8.00000000E-01  8.50000000E-01  8.50000000E-01
  8.50000000E-01  8.00000000E-01  8.50000000E-01  8.50000000E-01  8.50000000E-01
  8.00000000E-01  8.50000000E-01  8.50000000E-01  8.50000000E-01  8.00000000E-01
  8.50000000E-01  8.50000000E-01  8.50000000E-01  8.00000000E-01  8.50000000E-01
  8.50000000E-01  8.50000000E-01  8.00000000E-01  8.50000000E-01  8.50000000E-01
  8.50000000E-01  8.00000000E-01  8.50000000E-01  8.50000000E-01  8.50000000E-01
  8.00000000E-01  8.50000000E-01  8.50000000E-01  8.50000000E-01  8.00000000E-01
  8.50000000E-01  8.50000000E-01  8.50000000E-01  8.00000000E-01  8.50000000E-01
  8.50000000E-01  8.50000000E-01  8.00000000E-01  8.50000000E-01  8.50000000E-01
  8.50000000E-01  8.00000000E-01  8.50000000E-01  8.50000000E-01  8.50000000E-01
  8.00000000E-01  8.50000000E-01  8.50000000E-01  8.50000000E-01  8.00000000E-01
  8.50000000E-01  8.50000000E-01  8.50000000E-01  8.00000000E-01  8.50000000E-01
  8.50000000E-01  8.50000000E-01  8.00000000E-01  8.50000000E-01  8.50000000E-01
  8.50000000E-01  8.00000000E-01  8.50000000E-01  8.50000000E-01  8.50000000E-01
  8.00000000E-01  8.50000000E-01  8.50000000E-01  8.50000000E-01  8.00000000E-01
  8.50000000E-01  8.50000000E-01  8.50000000E-01  8.00000000E-01  8.50000000E-01
  8.50000000E-01  8.50000000E-01  8.00000000E-01  8.50000000E-01  8.50000000E-01
  8.50000000E-01  8.00000000E-01  8.50000000E-01  8.50000000E-01  8.50000000E-01
  8.00000000E-01  8.50000000E-01  8.50000000E-01  8.50000000E-01  8.00000000E-01
  8.50000000E-01  8.50000000E-01  8.50000000E-01  8.00000000E-01  8.50000000E-01
  8.50000000E-01  8.50000000E-01  8.00000000E-01  8.50000000E-01  8.50000000E-01
  8.50000000E-01  8.00000000E-01  8.50000000E-01  8.50000000E-01  8.50000000E-01
  8.00000000E-01  8.50000000E-01  8.50000000E-01  8.50000000E-01  8.00000000E-01
  8.50000000E-01  8.50000000E-01  8.50000000E-01  8.00000000E-01  8.50000000E-01
  8.50000000E-01  8.50000000E-01  8.00000000E-01  8.50000000E-01  8.50000000E-01
  8.50000000E-01  8.00000000E-01  8.50000000E-01  8.50000000E-01  8.50000000E-01
  8.00000000E-01  8.50000000E-01  8.50000000E-01  8.50000000E-01  8.00000000E-01
  8.50000000E-01  8.50000000E-01  8.50000000E-01  8.00000000E-01  8.50000000E-01
  8.50000000E-01  8.50000000E-01  8.00000000E-01  8.50000000E-01  8.50000000E-01
  8.50000000E-01  8.00000000E-01  8.50000000E-01  8.50000000E-01  8.50000000E-01
  8.00000000E-01  8.50000000E-01  8.50000000E-01  8.50000000E-01  8.00000000E-01
  8.50000000E-01  8.50000000E-01  8.50000000E-01  8.00000000E-01  8.50000000E-01
  8.50000000E-01  8.50000000E-01  8.00000000E-01  8.50000000E-01  8.50000000E-01
  8.50000000E-01  8.00000000E-01  8.50000000E-01  8.50000000E-01  8.50000000E-01
  8.00000000E-01  8.50000000E-01  8.50000000E-01  8.50000000E-01  8.00000000E-01
  8.50000000E-01  8.50000000E-01  8.50000000E-01  8.00000000E-01  8.50000000E-01
  8.50000000E-01  8.50000000E-01  8.00000000E-01  8.50000000E-01  8.50000000E-01
  8.50000000E-01  8.00000000E-01  8.50000000E-01  8.50000000E-01  8.50000000E-01
  8.00000000E-01  8.50000000E-01  8.50000000E-01  8.50000000E-01  8.00000000E-01
  8.50000000E-01  8.50000000E-01  8.50000000E-01  8.00000000E-01  8.50000000E-01
  8.50000000E-01  8.50000000E-01  8.00000000E-01  8.50000000E-01  8.50000000E-01
  8.50000000E-01  8.00000000E-01  8.50000000E-01  8.50000000E-01  8.50000000E-01
  8.00000000E-01  8.50000000E-01  8.50000000E-01  8.50000000E-01  8.00000000E-01
  8.50000000E-01  8.50000000E-01  8.50000000E-01  8.00000000E-01  8.50000000E-01
  8.50000000E-01  8.50000000E-01  8.00000000E-01  8.50000000E-01  8.50000000E-01
  8.50000000E-01  8.00000000E-01  8.50000000E-01  8.50000000E-01  8.50000000E-01
  8.00000000E-01  8.50000000E-01  8.50000000E-01  8.50000000E-01  8.00000000E-01
  8.50000000E-01  8.50000000E-01  8.50000000E-01  8.00000000E-01  8.50000000E-01
  8.50000000E-01  8.50000000E-01  8.00000000E-01  8.50000000E-01  8.50000000E-01
  8.50000000E-01  8.00000000E-01  8.50000000E-01  8.50000000E-01  8.50000000E-01
  8.00000000E-01  8.50000000E-01  8.50000000E-01  8.50000000E-01  8.00000000E-01
  8.50000000E-01  8.50000000E-01  8.50000000E-01  8.00000000E-01  8.50000000E-01
  8.50000000E-01  8.50000000E-01  8.00000000E-01  8.50000000E-01  8.50000000E-01
  8.50000000E-01  8.00000000E-01  8.50000000E-01  8.50000000E-01  8.50000000E-01
  8.00000000E-01  8.50000000E-01  8.50000000E-01  8.50000000E-01  8.00000000E-01
  8.50000000E-01  8.50000000E-01  8.50000000E-01  8.00000000E-01  8.50000000E-01
  8.50000000E-01  8.50000000E-01  8.00000000E-01  8.50000000E-01  8.50000000E-01
  8.50000000E-01  8.00000000E-01  8.50000000E-01  8.50000000E-01  8.50000000E-01
  8.00000000E-01  8.50000000E-01  8.50000000E-01  8.50000000E-01  8.00000000E-01
  8.50000000E-01  8.50000000E-01  8.50000000E-01  8.00000000E-01  8.50000000E-01
  8.50000000E-01  8.50000000E-01  8.00000000E-01  8.50000000E-01  8.50000000E-01
  8.50000000E-01  8.00000000E-01  8.50000000E-01  8.50000000E-01  8.50000000E-01
  8.00000000E-01  8.50000000E-01  8.50000000E-01  8.50000000E-01  8.00000000E-01
  8.50000000E-01  8.50000000E-01  8.50000000E-01  8.00000000E-01  8.50000000E-01
  8.50000000E-01  8.50000000E-01  8.00000000E-01  8.50000000E-01  8.50000000E-01
  8.50000000E-01  8.00000000E-01  8.50000000E-01  8.50000000E-01  8.50000000E-01
  8.00000000E-01  8.50000000E-01  8.50000000E-01  8.50000000E-01  8.00000000E-01
  8.50000000E-01  8.50000000E-01  8.50000000E-01  8.00000000E-01  8.50000000E-01
  8.50000000E-01  8.50000000E-01  8.00000000E-01  8.50000000E-01  8.50000000E-01
  8.50000000E-01  8.00000000E-01  8.50000000E-01  8.50000000E-01  8.50000000E-01
  8.00000000E-01  8.50000000E-01  8.50000000E-01  8.50000000E-01  8.00000000E-01
  8.50000000E-01  8.50000000E-01  8.50000000E-01  8.00000000E-01  8.50000000E-01
  8.50000000E-01  8.50000000E-01  8.00000000E-01  8.50000000E-01  8.50000000E-01
  8.50000000E-01  8.00000000E-01  8.50000000E-01  8.50000000E-01  8.50000000E-01
  8.00000000E-01  8.50000000E-01  8.50000000E-01  8.50000000E-01  8.00000000E-01
  8.50000000E-01  8.50000000E-01  8.50000000E-01  8.00000000E-01  8.50000000E-01
  8.50000000E-01  8.50000000E-01  8.00000000E-01  8.50000000E-01  8.50000000E-01
  8.50000000E-01  8.00000000E-01  8.50000000E-01  8.50000000E-01  8.50000000E-01
  8.00000000E-01  8.50000000E-01  8.50000000E-01  8.50000000E-01  8.00000000E-01
  8.50000000E-01  8.50000000E-01  8.50000000E-01  8.00000000E-01  8.50000000E-01
  8.50000000E-01  8.50000000E-01  8.00000000E-01  8.50000000E-01  8.50000000E-01
  8.50000000E-01  8.00000000E-01  8.50000000E-01  8.50000000E-01  8.50000000E-01
  8.00000000E-01  8.50000000E-01  8.50000000E-01  8.50000000E-01  8.00000000E-01
  8.50000000E-01  8.50000000E-01  8.50000000E-01  8.00000000E-01  8.50000000E-01
  8.50000000E-01  8.50000000E-01  8.00000000E-01  8.50000000E-01  8.50000000E-01
  8.50000000E-01  8.00000000E-01  8.50000000E-01  8.50000000E-01  8.50000000E-01
  8.00000000E-01  8.50000000E-01  8.50000000E-01  8.50000000E-01  8.00000000E-01
  8.50000000E-01  8.50000000E-01  8.50000000E-01  8.00000000E-01  8.50000000E-01
  8.50000000E-01  8.50000000E-01  8.00000000E-01  8.50000000E-01  8.50000000E-01
  8.50000000E-01  8.00000000E-01  8.50000000E-01  8.50000000E-01  8.50000000E-01
  8.00000000E-01  8.50000000E-01  8.50000000E-01  8.50000000E-01  8.00000000E-01
  8.50000000E-01  8.50000000E-01  8.50000000E-01  8.00000000E-01  8.50000000E-01
  8.50000000E-01  8.50000000E-01  8.00000000E-01  8.50000000E-01  8.50000000E-01
  8.50000000E-01  8.00000000E-01  8.50000000E-01  8.50000000E-01  8.50000000E-01
  8.00000000E-01  8.50000000E-01  8.50000000E-01  8.50000000E-01  8.00000000E-01
  8.50000000E-01  8.50000000E-01  8.50000000E-01  8.00000000E-01  8.50000000E-01
  8.50000000E-01  8.50000000E-01  8.00000000E-01  8.50000000E-01  8.50000000E-01
  8.50000000E-01  8.00000000E-01  8.50000000E-01  8.50000000E-01  8.50000000E-01
  8.00000000E-01  8.50000000E-01  8.50000000E-01  8.50000000E-01  8.00000000E-01
  8.50000000E-01  8.50000000E-01  8.50000000E-01  8.00000000E-01  8.50000000E-01
  8.50000000E-01  8.50000000E-01  8.00000000E-01  8.50000000E-01  8.50000000E-01
  8.50000000E-01  8.00000000E-01  8.50000000E-01  8.50000000E-01  8.50000000E-01
  8.00000000E-01  8.50000000E-01  8.50000000E-01  8.50000000E-01  8.00000000E-01
  8.50000000E-01  8.50000000E-01  8.50000000E-01  8.00000000E-01  8.50000000E-01
  8.50000000E-01  8.50000000E-01  8.00000000E-01  8.50000000E-01  8.50000000E-01
  8.50000000E-01  8.00000000E-01  8.50000000E-01  8.50000000E-01  8.50000000E-01
  8.00000000E-01  8.50000000E-01  8.50000000E-01  8.50000000E-01  8.00000000E-01
  8.50000000E-01  8.50000000E-01  8.50000000E-01  8.00000000E-01  8.50000000E-01
  8.50000000E-01  8.50000000E-01  8.00000000E-01  8.50000000E-01  8.50000000E-01
  8.50000000E-01  8.00000000E-01  8.50000000E-01  8.50000000E-01  8.50000000E-01
  8.00000000E-01  8.50000000E-01  8.50000000E-01  8.50000000E-01  8.00000000E-01
  8.50000000E-01  8.50000000E-01  8.50000000E-01  8.00000000E-01  8.50000000E-01
  8.50000000E-01  8.50000000E-01  8.00000000E-01  8.50000000E-01  8.50000000E-01
  8.50000000E-01  8.00000000E-01  8.50000000E-01  8.50000000E-01  8.50000000E-01
  8.00000000E-01  8.50000000E-01  8.50000000E-01  8.50000000E-01  8.00000000E-01
  8.50000000E-01  8.50000000E-01  8.50000000E-01  8.00000000E-01  8.50000000E-01
  8.50000000E-01  8.50000000E-01  8.00000000E-01  8.50000000E-01  8.50000000E-01
  8.50000000E-01  8.00000000E-01  8.50000000E-01  8.50000000E-01  8.50000000E-01
  8.00000000E-01  8.50000000E-01  8.50000000E-01  8.50000000E-01  8.00000000E-01
  8.50000000E-01  8.50000000E-01  8.50000000E-01  8.00000000E-01  8.50000000E-01
  8.50000000E-01  8.50000000E-01  8.00000000E-01  8.50000000E-01  8.50000000E-01
  8.50000000E-01  8.00000000E-01  8.50000000E-01  8.50000000E-01  8.50000000E-01
  8.00000000E-01  8.50000000E-01  8.50000000E-01  8.50000000E-01  8.00000000E-01
  8.50000000E-01  8.50000000E-01  8.50000000E-01  8.00000000E-01  8.50000000E-01
  8.50000000E-01  8.50000000E-01  8.00000000E-01  8.50000000E-01  8.50000000E-01
  8.50000000E-01  8.00000000E-01  8.50000000E-01  8.50000000E-01  8.50000000E-01
  8.00000000E-01  8.50000000E-01  8.50000000E-01  8.50000000E-01  8.00000000E-01
  8.50000000E-01  8.50000000E-01  8.50000000E-01  8.00000000E-01  8.50000000E-01
  8.50000000E-01  8.50000000E-01  8.00000000E-01  8.50000000E-01  8.50000000E-01
  8.50000000E-01  8.00000000E-01  8.50000000E-01  8.50000000E-01  8.50000000E-01
  8.00000000E-01  8.50000000E-01  8.50000000E-01  8.50000000E-01  8.00000000E-01
  8.50000000E-01  8.50000000E-01  8.50000000E-01  8.00000000E-01  8.50000000E-01
  8.50000000E-01  8.50000000E-01  8.00000000E-01  8.50000000E-01  8.50000000E-01
  8.50000000E-01  8.00000000E-01  8.50000000E-01  8.50000000E-01  8.50000000E-01
  8.00000000E-01  8.50000000E-01  8.50000000E-01  8.50000000E-01  8.00000000E-01
  8.50000000E-01  8.50000000E-01  8.50000000E-01  8.00000000E-01  8.50000000E-01
  8.50000000E-01  8.50000000E-01  8.00000000E-01  8.50000000E-01  8.50000000E-01
  8.50000000E-01  8.00000000E-01  8.50000000E-01  8.50000000E-01  8.50000000E-01
  8.00000000E-01  8.50000000E-01  8.50000000E-01  8.50000000E-01  8.00000000E-01
  8.50000000E-01  8.50000000E-01  8.50000000E-01  8.00000000E-01  8.50000000E-01
  8.50000000E-01  8.50000000E-01  8.00000000E-01  8.50000000E-01  8.50000000E-01
  8.50000000E-01  8.00000000E-01  8.50000000E-01  8.50000000E-01  8.50000000E-01
  8.00000000E-01  8.50000000E-01  8.50000000E-01  8.50000000E-01  8.00000000E-01
  8.50000000E-01  8.50000000E-01  8.50000000E-01  8.00000000E-01  8.50000000E-01
  8.50000000E-01  8.50000000E-01  8.00000000E-01  8.50000000E-01  8.50000000E-01
  8.50000000E-01  8.00000000E-01  8.50000000E-01  8.50000000E-01  8.50000000E-01
  8.00000000E-01  8.50000000E-01  8.50000000E-01  8.50000000E-01  8.00000000E-01
  8.50000000E-01  8.50000000E-01  8.50000000E-01  8.00000000E-01  8.50000000E-01
  8.50000000E-01  8.50000000E-01  8.00000000E-01  8.50000000E-01  8.50000000E-01
  8.50000000E-01  8.00000000E-01  8.50000000E-01  8.50000000E-01  8.50000000E-01
  8.00000000E-01  8.50000000E-01  8.50000000E-01  8.50000000E-01  8.00000000E-01
  8.50000000E-01  8.50000000E-01  8.50000000E-01  8.00000000E-01  8.50000000E-01
  8.50000000E-01  8.50000000E-01  8.00000000E-01  8.50000000E-01  8.50000000E-01
  8.50000000E-01  8.00000000E-01  8.50000000E-01  8.50000000E-01  8.50000000E-01
  8.00000000E-01  8.50000000E-01  8.50000000E-01  8.50000000E-01  8.00000000E-01
  8.50000000E-01  8.50000000E-01  8.50000000E-01  8.00000000E-01  8.50000000E-01
  8.50000000E-01  8.50000000E-01  8.00000000E-01  8.50000000E-01  8.50000000E-01
  8.50000000E-01  8.00000000E-01  8.50000000E-01  8.50000000E-01  8.50000000E-01
  8.00000000E-01  8.50000000E-01  8.50000000E-01  8.50000000E-01  8.00000000E-01
  8.50000000E-01  8.50000000E-01  8.50000000E-01  8.00000000E-01  8.50000000E-01
  8.50000000E-01  8.50000000E-01  8.00000000E-01  8.50000000E-01  8.50000000E-01
  8.50000000E-01  8.00000000E-01  8.50000000E-01  8.50000000E-01  8.50000000E-01
  8.00000000E-01  8.50000000E-01  8.50000000E-01  8.50000000E-01  8.00000000E-01
  8.50000000E-01  8.50000000E-01  8.50000000E-01  8.00000000E-01  8.50000000E-01
  8.50000000E-01  8.50000000E-01  8.00000000E-01  8.50000000E-01  8.50000000E-01
  8.50000000E-01  8.00000000E-01  8.50000000E-01  8.50000000E-01  8.50000000E-01
  8.00000000E-01  8.50000000E-01  8.50000000E-01  8.50000000E-01  8.00000000E-01
  8.50000000E-01  8.50000000E-01  8.50000000E-01  8.00000000E-01  8.50000000E-01
  8.50000000E-01  8.50000000E-01  8.00000000E-01  8.50000000E-01  8.50000000E-01
  8.50000000E-01  8.00000000E-01  8.50000000E-01  8.50000000E-01  8.50000000E-01
  8.00000000E-01  8.50000000E-01  8.50000000E-01  8.50000000E-01  8.00000000E-01
  8.50000000E-01  8.50000000E-01  8.50000000E-01  8.00000000E-01  8.50000000E-01
  8.50000000E-01  8.50000000E-01  8.00000000E-01  8.50000000E-01  8.50000000E-01
  8.50000000E-01  8.00000000E-01  8.50000000E-01  8.50000000E-01  8.50000000E-01
  8.00000000E-01  8.50000000E-01  8.50000000E-01  8.50000000E-01  8.00000000E-01
  8.50000000E-01  8.50000000E-01  8.50000000E-01  8.00000000E-01  8.50000000E-01
  8.50000000E-01  8.50000000E-01  8.00000000E-01  8.50000000E-01  8.50000000E-01
  8.50000000E-01  8.00000000E-01  8.50000000E-01  8.50000000E-01  8.50000000E-01
  8.00000000E-01  8.50000000E-01  8.50000000E-01  8.50000000E-01  8.00000000E-01
  8.50000000E-01  8.50000000E-01  8.50000000E-01  8.00000000E-01  8.50000000E-01
  8.50000000E-01  8.50000000E-01  8.00000000E-01  8.50000000E-01  8.50000000E-01
  8.50000000E-01  8.00000000E-01  8.50000000E-01  8.50000000E-01  8.50000000E-01
  8.00000000E-01  8.50000000E-01  8.50000000E-01  8.50000000E-01  8.00000000E-01
  8.50000000E-01  8.50000000E-01  8.50000000E-01  8.00000000E-01  8.50000000E-01
  8.50000000E-01  8.50000000E-01  8.00000000E-01  8.50000000E-01  8.50000000E-01
  8.50000000E-01  8.00000000E-01  8.50000000E-01  8.50000000E-01  8.50000000E-01
  8.00000000E-01  8.50000000E-01  8.50000000E-01  8.50000000E-01  8.00000000E-01
  8.50000000E-01  8.50000000E-01  8.50000000E-01  8.00000000E-01  8.50000000E-01
  8.50000000E-01  8.50000000E-01  8.00000000E-01  8.50000000E-01  8.50000000E-01
  8.50000000E-01  8.00000000E-01  8.50000000E-01  8.50000000E-01  8.50000000E-01
  8.00000000E-01  8.50000000E-01  8.50000000E-01  8.50000000E-01  8.00000000E-01
  8.50000000E-01  8.50000000E-01  8.50000000E-01  8.00000000E-01  8.50000000E-01
  8.50000000E-01  8.50000000E-01  8.00000000E-01  8.50000000E-01  8.50000000E-01
  8.50000000E-01  8.00000000E-01  8.50000000E-01  8.50000000E-01  8.50000000E-01
  8.00000000E-01  8.50000000E-01  8.50000000E-01  8.50000000E-01  8.00000000E-01
  8.50000000E-01  8.50000000E-01  8.50000000E-01  8.00000000E-01  8.50000000E-01
  8.50000000E-01  8.50000000E-01  8.00000000E-01  8.50000000E-01  8.50000000E-01
  8.50000000E-01  8.00000000E-01  8.50000000E-01  8.50000000E-01  8.50000000E-01
  8.00000000E-01  8.50000000E-01  8.50000000E-01  8.50000000E-01  8.00000000E-01
  8.50000000E-01  8.50000000E-01  8.50000000E-01  8.00000000E-01  8.50000000E-01
  8.50000000E-01  8.50000000E-01  8.00000000E-01  8.50000000E-01  8.50000000E-01
  8.50000000E-01  8.00000000E-01  8.50000000E-01  8.50000000E-01  8.50000000E-01
  8.00000000E-01  8.50000000E-01  8.50000000E-01  8.50000000E-01  8.00000000E-01
  8.50000000E-01  8.50000000E-01  8.50000000E-01  8.00000000E-01  8.50000000E-01
  8.50000000E-01  8.50000000E-01  8.00000000E-01  8.50000000E-01  8.50000000E-01
  8.50000000E-01  8.00000000E-01  8.50000000E-01  8.50000000E-01  8.50000000E-01
  8.00000000E-01  8.50000000E-01  8.50000000E-01  8.50000000E-01  8.00000000E-01
  8.50000000E-01  8.50000000E-01  8.50000000E-01  8.00000000E-01  8.50000000E-01
  8.50000000E-01  8.50000000E-01  8.00000000E-01  8.50000000E-01  8.50000000E-01
  8.50000000E-01  8.00000000E-01  8.50000000E-01  8.50000000E-01  8.50000000E-01
  8.00000000E-01  8.50000000E-01  8.50000000E-01  8.50000000E-01  8.00000000E-01
  8.50000000E-01  8.50000000E-01  8.50000000E-01  8.00000000E-01  8.50000000E-01
  8.50000000E-01  8.50000000E-01  8.00000000E-01  8.50000000E-01  8.50000000E-01
  8.50000000E-01  8.00000000E-01  8.50000000E-01  8.50000000E-01  8.50000000E-01
  8.00000000E-01  8.50000000E-01  8.50000000E-01  8.50000000E-01  8.00000000E-01
  8.50000000E-01  8.50000000E-01  8.50000000E-01  8.00000000E-01  8.50000000E-01
  8.50000000E-01  8.50000000E-01  8.00000000E-01  8.50000000E-01  8.50000000E-01
  8.50000000E-01  8.00000000E-01  8.50000000E-01  8.50000000E-01  8.50000000E-01
  8.00000000E-01  8.50000000E-01  8.50000000E-01  8.50000000E-01  8.00000000E-01
  8.50000000E-01  8.50000000E-01  8.50000000E-01  8.00000000E-01  8.50000000E-01
  8.50000000E-01  8.50000000E-01  8.00000000E-01  8.50000000E-01  8.50000000E-01
  8.50000000E-01  8.00000000E-01  8.50000000E-01  8.50000000E-01  8.50000000E-01
  8.00000000E-01  8.50000000E-01  8.50000000E-01  8.50000000E-01  8.00000000E-01
  8.50000000E-01  8.50000000E-01  8.50000000E-01  8.00000000E-01  8.50000000E-01
  8.50000000E-01  8.50000000E-01  8.00000000E-01  8.50000000E-01  8.50000000E-01
  8.50000000E-01  8.00000000E-01  8.50000000E-01  8.50000000E-01  8.50000000E-01
  8.00000000E-01  8.50000000E-01  8.50000000E-01  8.50000000E-01  8.00000000E-01
  8.50000000E-01  8.50000000E-01  8.50000000E-01  8.00000000E-01  8.50000000E-01
  8.50000000E-01  8.50000000E-01  8.00000000E-01  8.50000000E-01  8.50000000E-01
  8.50000000E-01  8.00000000E-01  8.50000000E-01  8.50000000E-01  8.50000000E-01
  8.00000000E-01  8.50000000E-01  8.50000000E-01  8.50000000E-01  8.00000000E-01
  8.50000000E-01  8.50000000E-01  8.50000000E-01  8.00000000E-01  8.50000000E-01
  8.50000000E-01  8.50000000E-01  8.00000000E-01  8.50000000E-01  8.50000000E-01
  8.50000000E-01  8.00000000E-01  8.50000000E-01  8.50000000E-01  8.50000000E-01
  8.00000000E-01  8.50000000E-01  8.50000000E-01  8.50000000E-01  8.00000000E-01
  8.50000000E-01  8.50000000E-01  8.50000000E-01  8.00000000E-01  8.50000000E-01
  8.50000000E-01  8.50000000E-01  8.00000000E-01  8.50000000E-01  8.50000000E-01
  8.50000000E-01  8.00000000E-01  8.50000000E-01  8.50000000E-01  8.50000000E-01
  8.00000000E-01  8.50000000E-01  8.50000000E-01  8.50000000E-01  8.00000000E-01
  8.50000000E-01  8.50000000E-01  8.50000000E-01  8.00000000E-01  8.50000000E-01
  8.50000000E-01  8.50000000E-01  8.00000000E-01  8.50000000E-01  8.50000000E-01
  8.50000000E-01  8.00000000E-01  8.50000000E-01  8.50000000E-01  8.50000000E-01
  8.00000000E-01  8.50000000E-01  8.50000000E-01  8.50000000E-01  8.00000000E-01
  8.50000000E-01  8.50000000E-01  8.50000000E-01  8.00000000E-01  8.50000000E-01
  8.50000000E-01  8.50000000E-01  8.00000000E-01  8.50000000E-01  8.50000000E-01
  8.50000000E-01  8.00000000E-01  8.50000000E-01  8.50000000E-01  8.50000000E-01
  8.00000000E-01  8.50000000E-01  8.50000000E-01  8.50000000E-01  8.00000000E-01
  8.50000000E-01  8.50000000E-01  8.50000000E-01  8.00000000E-01
%FLAG IPOL                                                                      
%FORMAT(1I8)                                                                    
       0
%FLAG CMAP_COUNT                                                                
%FORMAT(2I8)                                                                    
      29      11                                                                
%FLAG CMAP_RESOLUTION                                                           
%FORMAT(20I4)                                                                   
  24  24  24  24  24  24  24  24  24  24  24
%FLAG CMAP_PARAMETER_01                                                         
%COMMENT  Gly CMAP                                                              
%FORMAT(8F9.5)                                                                  
  0.82366  1.09817  1.13106  1.38658  2.11377  3.63194  5.20835  4.52792
  4.24857  3.42100  2.57125  2.21561  4.26659  2.21561  2.57125  3.42110
  4.24858  4.52792  4.29107  3.63184  2.03731  1.32036  1.12797  1.09814
  1.01976  0.89767  0.89484  1.21525  1.97095  3.70570  4.38855  4.65256
  4.43948  3.89754  4.21954  2.92219  1.83300  1.61528  2.13407  3.13273
  4.03304  4.37836  4.21500  3.54162  2.14871  1.44646  1.20387  1.08264
  0.94294  0.79652  0.83328  1.24136  2.06053  3.43883  4.17385  4.53101
  4.43115  4.03641  3.71837  2.02965  1.28863  1.21833  1.89263  2.85593
  4.80291  4.23497  4.08718  3.49858  2.17811  1.53114  1.22608  1.06909
  1.06124  0.90425  0.95129  1.35925  1.80900  3.18916  3.85055  4.27470
  4.17515  3.68355  2.71193  1.96823  0.88051  1.02084  1.59189  2.52883
  3.47767  4.03244  3.86779  3.39508  2.23969  1.66969  1.33019  1.16679
  1.08157  1.02005  1.10493  1.29605  1.79270  2.88632  3.63402  4.05349
  3.97657  3.35415  2.24207  1.18576  0.74267  0.67495  1.31122  2.24278
  3.21905  3.69186  4.76949  4.00571  2.34764  1.77622  1.34849  1.12849
  1.09360  0.76295  0.64220  1.00733  1.73708  2.50787  3.41571  4.45847
  3.84910  3.11193  1.97839  1.18177  0.33803  0.43176  1.23577  2.17947
  2.92428  3.38497  3.39138  3.10177  3.35228  2.15282  1.45287  1.28536
  0.61764  0.23640  0.15650  0.65857  1.56522  2.44967  3.17669  3.78043
  4.22216  2.79953  1.66579  0.59084  0.15579  0.43594  1.52040  2.27449
  2.76979  3.16911  3.12455  2.92674  2.45824  1.88927  1.36443  0.95121
 -0.00243 -0.14438  0.06931  0.84132  1.89921  2.91978  3.46170  3.60722
  3.77366  2.18724  1.52870  0.20777  0.22187  1.10049  2.08960  2.88893
  3.46272  3.66327  3.40280  3.02172  2.23074  1.32476  0.62376  0.25154
 -0.24862  0.05886  0.73935  1.98217  3.25167  4.06285  4.21447  3.90130
  2.90300  1.70374  0.74057  0.52755  1.12943  2.10802  2.78056  3.65981
  4.30377  4.58476  4.35318  3.65296  2.33204  0.81283  0.00000 -0.29835
  0.44379  1.32981  2.39709  3.82578  5.02459  5.42450  4.99639  4.00610
  2.64886  1.63847  1.37610  1.71448  2.28503  2.64949  3.24747  4.17266
  5.17265  5.75041  5.58476  4.21912  2.20540  0.64843  0.02065 -0.08593
  2.15530  3.40478  4.51993  5.80241  6.12627  6.00746  5.12631  4.58197
  2.80154  2.55737  2.87599  2.95502  2.71629  2.60279  3.64721  4.53964
  5.90407  6.82108  6.15044  4.18011  2.15201  0.96807  0.81255  1.19704
  4.21011  5.19583  5.45356  5.26216  5.22957  4.91772  4.44698  3.93537
  3.74038  4.11322  3.92595  2.94210  2.11295  2.42266  3.12536  4.83315
  6.43292  6.19670  5.13463  3.65052  2.40663  2.07125  2.29840  3.03351
  5.33877  4.55338  3.87255  3.87071  3.62149  3.87069  4.31250  4.77933
  5.37137  5.20874  3.65026  2.18763  2.20027  2.18700  3.65026  5.21405
  5.24065  4.77943  4.31250  3.87553  3.63325  5.19982  3.88530  4.53465
  4.20747  3.02450  2.29840  2.07135  2.40664  3.65062  5.13204  6.19680
  6.43292  4.83351  3.12587  2.96667  2.11029  2.93241  3.92594  4.11322
  3.74082  3.93551  4.44698  4.92068  5.53058  5.24416  5.35209  5.19605
  2.15668  1.19704  0.81255  0.96806  2.15211  4.17062  6.15034  6.82108
  5.90407  4.54177  3.63728  2.60267  2.71853  2.95502  2.87589  2.55737
  2.80717  3.89294  5.12631  6.00746  6.12372  5.80230  5.01898  3.40679
  0.45450 -0.08700  0.02065  0.64843  2.20540  4.21912  5.58476  5.75041
  5.17265  4.16788  3.24747  2.64460  2.28503  1.72593  1.37610  1.63847
  2.64538  4.01006  5.00425  5.42091  5.02459  3.80593  2.39681  1.32981
 -0.24862 -0.29835  0.00000  0.81283  2.33214  3.64847  4.35318  4.59008
  4.30377  3.65991  2.78056  2.10802  1.84494  0.52754  0.74067  1.61716
  2.90300  3.89516  4.21447  4.06285  3.25166  1.98217  0.73946  0.07427
 -0.00243  0.25154  0.64043  1.82987  2.23143  3.02038  3.40280  3.66327
  3.46272  2.88893  2.08960  1.10049  0.22171  0.20862  1.52897  2.18595
  3.24376  3.60722  3.46170  2.91968  1.89590  0.84888  0.07066 -0.14460
  0.61764  0.94007  1.36444  1.88927  2.45691  2.92674  3.12469  3.16911
  2.76979  2.27377  1.52040  0.44049  0.15579  0.59084  1.66579  2.79477
  4.25589  3.78043  3.17669  2.45043  1.56512  0.65855  0.15650  0.23719
  1.09360  1.28549  1.45287  2.15281  2.67683  3.10177  3.39138  3.38497
  2.91731  2.17947  1.23582  0.43170  0.33793  1.00844  1.97383  3.11193
  3.84910  4.46392  3.41571  2.50787  1.73708  1.00733  0.64220  0.76295
  0.97094  1.11640  1.33640  1.77623  2.30465  3.21763  3.71128  3.69186
  3.21905  2.24277  1.31122  0.67238  0.74272  1.18578  2.24207  3.35415
  3.97657  4.05349  3.63266  2.88632  1.79270  1.23680  1.00391  1.05657
  0.98044  1.16708  1.33038  1.66969  2.23969  3.39508  3.86779  4.03243
  3.47590  2.52883  1.59193  1.02084  0.88051  1.46518  2.71203  3.68355
  4.17470  4.27471  3.85203  3.18916  1.80900  1.35925  0.95109  0.90998
  0.92229  1.06909  1.22608  1.53114  2.17810  3.49858  4.08708  4.23358
  3.81032  2.85593  1.89254  1.21833  1.28863  2.03059  3.37664  4.03661
  4.43079  4.53101  4.17385  3.43883  2.06053  1.24136  0.83440  0.79652
  1.01976  1.08264  1.20394  1.44647  2.14870  3.54162  4.22527  4.37836
  4.03304  3.13273  2.13407  1.61528  1.83300  2.92219  4.10899  3.89754
  4.43948  4.65256  4.38856  3.70570  1.97095  1.21515  0.89442  0.89767
%FLAG CMAP_PARAMETER_02                                                         
%COMMENT  Ala CMAP                                                              
%FORMAT(8F9.5)                                                                  
 -0.40490 -0.91563 -0.66011 -0.12395  0.67400  1.66712  2.29819  2.59327
  2.26341  1.68604  1.08454  0.71831 -0.48870 -1.12865 -0.92439 -0.34344
  0.32979  0.59769  0.44008 -0.02411 -0.36985 -0.85317 -0.95648 -1.10907
 -0.57095 -0.51404 -0.20974  0.13143  0.76924  1.59233  2.29037  2.67125
  3.36182  2.18892  2.73567  0.45223 -0.65830 -0.99890 -0.71628  0.42576
  0.53333  0.77654  0.66928  0.32986  0.00178 -0.28339 -0.35321 -0.52818
 -0.04441  1.18495  0.28672  0.49834  1.04770  1.74318  2.42981  2.78424
  2.83854  2.61585  1.87191  0.41363 -0.42895 -0.65692  0.55228  0.27728
  0.92789  1.20682  1.03564  0.82326  0.50898  0.23806  0.20869  0.03162
  0.75270  0.92426  0.87815  1.07435  1.34904  1.95311  2.55584  3.01644
  2.98774  2.58246  1.60744  0.42752 -0.30354 -0.31446 -0.03375  0.52111
  1.16914  1.46572  1.98214  1.17058  0.95531  0.70808  0.78722  1.35766
  1.34685  2.28011  1.28633  1.21465  1.51939  2.05226  2.68560  3.11202
  2.91890  2.50948  1.45835  0.41028 -0.10582 -0.34705 -0.04464  0.55547
  1.11301  1.35870  1.48001  1.35541  1.12115  0.95721  1.12820  1.22585
  2.04850  1.37875  1.14784  1.59064  1.72039  1.78908  3.30313  3.04054
  2.98842  2.41992  1.44654  0.52504 -0.06270 -0.27801  0.87234  0.67598
  0.94307  1.15416  1.20141  1.24110  1.26105  1.20805  1.33113  1.49416
  1.04113  0.90852  0.69483  0.85361  1.26559  1.89687  2.63196  4.14974
  2.85712  2.19037  1.16979  0.05713 -0.34982 -0.13111  1.14408  0.72916
  0.83976  0.87834  2.10017  1.17948  1.17775  1.17175  1.28140  1.31313
  0.56020  0.54579  0.70265  1.11648  1.74498  2.34101  3.30438  2.91742
  2.51820  1.80071  0.63368 -0.12153  0.06806  0.72937  1.10420  1.35758
  1.49864  1.53737  1.46180  1.46294  1.03983  0.71730  0.57013  0.61315
  0.24962  0.58339  1.16380  1.97603  2.89121  3.52557  3.68570  3.11960
  2.13455  1.15056  0.41716  0.25190  0.90813  1.46041  1.72423  2.08326
  2.41176  2.51527  2.40584  2.10326  1.06657  0.24926  0.00000  0.09150
  0.69001  1.45869  2.56017  3.51462  4.36327  4.88489  4.44136  3.31773
  1.94048  1.18640  1.14388  1.38827  1.99448  1.97586  2.10793  2.62567
  3.22808  3.67878  3.65514  2.76833  1.09340 -0.02756 -0.20820  0.11394
  2.04863  3.24028  4.45604  5.33890  5.83417  5.62064  4.51400  3.15546
  2.11289  2.12474  2.51205  2.64497  2.21088  1.89502  2.06746  3.01892
  4.17428  5.04288  4.34485  2.58422  0.91721  0.02839  0.38724  1.08963
  3.86396  5.17448  4.99907  4.71176  4.69475  4.40584  3.94871  3.17716
  3.06333  3.67246  4.29338  2.44448  1.35877  2.75298  2.01318  3.50593
  5.09938  4.27559  3.31646  1.97909  0.94467  0.88095  1.62501  2.60184
  5.48793  4.77064  3.78644  3.36104  3.22046  3.45658  3.76845  4.19099
  4.55308  4.85880  2.97166  1.40450  1.55754  1.01694  2.55251  4.15890
  3.59316  2.89015  2.39954  2.03475  2.02513  2.33480  3.18431  4.21056
  4.70559  3.27912  2.28983  1.85924  2.16582  3.20992  4.49444  5.42412
  5.98035  4.20595  2.46249  1.80286  1.41486  2.22339  3.40125  3.01974
  2.06463  1.98502  2.41985  3.03336  3.42492  3.76647  4.58344  5.51267
  2.34028  1.47026  0.70060  0.67110  1.72673  3.69931  5.49162  6.13923
  5.15665  3.78295  2.61455  3.27648  2.23785  2.65327  2.09930  0.98357
  0.83115  1.73620  2.87719  3.88918  4.40086  4.76522  4.34641  3.40891
  0.89883  0.26728  0.50152  0.12164  1.64744  3.66760  4.84258  4.73428
  4.15359  3.27829  2.48102  2.07496  1.77587  1.23018  0.22862 -0.17811
  0.36837  1.62610  2.66752  3.41452  3.43224  3.08090  2.54957  1.61094
  0.32705 -0.14752 -0.38279 -0.00752  1.31062  2.89019  3.39946  3.48428
  3.29026  2.66680  1.96417  1.33230  0.70261 -0.31922 -0.88675 -0.59803
  0.32944  1.32712  1.88494  2.20282  2.13265  1.82079  1.35338  0.71220
 -0.03270 -0.18304 -0.26783  0.12774  0.88323  1.96743  2.18027  2.30248
  2.25909  1.78219  1.00274  0.24927 -0.80554 -1.41955 -1.17733 -0.22422
  1.19834  1.07092  1.05260  0.95885  0.87757  0.60790  0.30853  0.05046
  0.08873  0.15910  0.22294  0.37757  0.76603  1.36872  1.54866  1.47050
  1.32077  0.90501  0.18754 -0.81180 -1.70050 -1.70896 -0.87307 -0.00331
  0.74981  0.73853  0.55032  0.27050 -0.03313 -0.23059 -0.27425 -0.15004
  1.38786  0.31030  0.31376  0.30435  0.69516  1.26684  1.67665  1.73040
  1.48205  0.83164  0.78021 -1.27092 -1.69247 -1.59919 -0.87185  0.23049
  0.75546  0.68419  0.50548  0.18474 -0.18354 -0.22863 -0.03965  0.15614
  1.13038  0.28339  0.13603  0.26411  0.64582  1.31757  2.01140  2.13005
  1.85723  0.94711 -0.10199 -0.99228 -1.35141 -1.23057 -0.39240  0.63569
  1.03002  0.93699  1.12925  0.94167  0.14233  0.14305  0.34318  0.43742
 -0.18145 -0.18129 -0.36426 -0.02774  0.57160  1.29873  2.16831  2.37053
  1.81288  0.84225 -0.13994 -0.87562 -1.03375 -0.75156  0.33665  1.25211
  1.11963  1.00266  0.72525  0.87651  0.22308  0.12905  0.05647 -0.10214
 -1.05110 -0.75879 -0.79562 -0.36879  0.45648  1.36193  2.25739  2.41888
  1.79507  0.83030 -0.09049 -0.76021 -0.87672 -0.19067  0.64936  0.61856
  0.80179  0.82609  0.68948  0.43884 -0.07529 -0.55654 -0.80787 -1.00697
 -1.21902 -1.03039 -0.88255 -0.32105  0.49201  1.53828  2.43182  2.53201
  1.97701  1.22953  0.40353 -0.11048 -0.00493 -0.40512 -0.63562 -0.14764
  0.47545  0.72229  0.59153  0.14907 -0.47001 -0.96318 -1.22829 -1.35376
%FLAG CMAP_PARAMETER_03                                                         
%COMMENT  Ser CMAP                                                              
%FORMAT(8F9.5)                                                                  
 -0.32244  0.12696  0.66374  0.96629  1.47743  2.13577  3.30837  3.38913
  3.78327  3.61677  3.03743  2.62209  0.59637 -0.08942  0.13693  0.81913
  1.40407  1.89566  2.02859  1.78767  1.26319  0.74679  0.25597 -0.18382
 -0.13614  0.30891  0.74169  0.92985  1.33443  1.88617  2.67249  3.43995
  3.76143  3.78887  3.80499  1.52221 -0.05733 -0.34066  0.60327  0.64650
  1.44598  1.97141  2.08911  1.92346  1.50730  0.89758  0.36609  0.05737
 -0.01724  0.39903  0.82667  0.84205  1.07816  2.13764  2.43674  3.94943
  3.73714  3.79141  2.80752  0.95346 -0.16367 -0.42480 -0.06777  0.60307
  1.41557  1.99278  2.96779  1.96920  1.47962  1.03439  0.59457  0.12911
  0.46570  0.86726  0.98316  0.80986  0.98666  1.59955  2.41079  3.20727
  3.64935  3.63148  2.47335  0.85355 -0.14015 -0.32933 -0.08702  0.58877
  2.07629  1.98251  2.22178  2.02966  1.70097  1.20508  1.47349  0.47846
  1.31080  1.11924  1.06802  0.79445  1.03970  1.54752  2.34915  3.11410
  3.63127  3.58483  2.32889  0.87111 -0.11750 -0.41868 -0.16684  0.49421
  2.10985  1.74118  2.06138  2.01525  1.87980  1.43507  1.13007  0.82450
  0.80496  0.90295  0.85087  0.99319  1.28602  1.86583  2.31268  3.07673
  3.54949  3.42634  2.27469  0.94293 -0.07736 -0.32744  0.01567  0.60673
  1.00637  1.38740  1.85030  1.97368  1.95315  1.57098  1.36231  1.02570
  0.39922  0.46005  0.46177  0.43301  0.71954  1.40788  2.25490  3.10239
  3.55114  3.21056  2.11338  0.69445 -0.15953 -0.09261  0.50073  1.67114
  0.92250  1.21419  1.70050  1.94455  1.85595  1.55262  1.25060  0.74424
 -0.23129 -0.09197  0.27814  0.67643  1.25014  1.90570  2.49602  3.01993
  3.19940  2.71272  1.54051  0.39072  0.01482  0.61847  0.91815  1.14827
  1.50034  1.76177  1.96988  2.17125  2.32001  1.21775  0.65957  0.14730
 -0.66990 -0.19351  0.67719  1.47699  2.24158  2.87320  3.16318  3.17799
  2.86156  2.18170  1.17024  0.55984  0.82382  1.43488  1.59833  1.88249
  2.36095  2.61848  2.84429  2.68820  1.82329  0.68508  0.00000 -0.45091
 -0.36042  0.53154  1.94931  2.88222  3.56378  3.99191  3.89021  3.39886
  2.71331  2.10656  1.52204  1.50441  2.04966  1.96642  2.02552  2.40332
  3.07583  3.67664  4.11261  3.53101  2.67238  0.28298 -0.32598 -0.51382
  0.91718  2.23760  3.80260  4.41293  5.03270  5.01729  5.47439  3.45062
  2.95906  2.91321  2.98469  3.02362  2.47035  2.12519  2.11120  2.86826
  3.99145  5.12576  5.22266  3.70222  1.77845  0.45849  0.27569  0.45325
  2.75309  4.47184  4.67696  4.04034  3.88523  3.78921  3.64612  3.71648
  3.90022  4.32138  4.50352  3.09871  1.74137  1.96840  1.78355  3.39177
  5.21554  4.88560  4.17121  2.98817  1.90680  1.52075  1.63712  2.00389
  4.60753  4.13830  2.86491  2.23553  2.05958  2.60649  3.56970  4.76758
  5.29735  5.79016  4.54175  1.71446  1.28551  0.84527  2.09892  3.74503
  3.54732  2.94743  2.95962  2.76375  2.67890  2.73319  2.99114  3.37867
  3.01439  2.13143  1.07143  0.45729  0.71555  2.13385  3.91810  5.52110
  6.56748  4.65355  2.64280  1.82443  0.74717  1.48455  2.39160  2.24606
  1.45375  1.66402  2.46312  3.12688  3.55083  3.74903  4.03382  4.06980
  1.41025  0.57234 -0.31717 -0.61653  0.19058  2.20175  4.66758  6.26728
  5.33169  3.78979  2.19330  1.25559  1.19010  1.56040  1.33543  0.54779
  0.36104  1.20239  2.44208  3.52615  4.00446  4.17687  3.36362  2.28874
  0.83061  0.14956 -0.70021 -0.87357  0.28920  2.53560  4.72936  5.41395
  4.64402  3.46010  3.64997  1.41550  1.19489  1.04096  0.26661 -0.18844
  0.25397  1.27114  2.61263  3.37274  5.13313  3.10481  2.26711  1.39643
  0.49077  0.03090 -0.64515 -0.62863  0.57862  2.47028  4.34946  4.82124
  4.31526  3.23540  2.04536  1.19075  0.74988  0.03037 -0.36666 -0.25387
  0.63710  1.60704  2.62468  2.95787  2.63631  2.00167  1.02876  0.62875
  0.23565  0.67659 -0.33393 -0.09124  1.29884  2.37817  4.06341  4.14999
  3.71357  2.60069  1.39225  0.54877 -0.28844 -0.69855 -0.58434  0.47661
  1.47589  2.11542  2.31036  2.10407  1.53656  0.39328 -0.33123 -0.33400
  0.17985  1.00958  0.11207  0.28548  1.01319  2.01067  2.97355  3.36566
  2.71920  1.56047  0.28912 -0.84959 -1.32100 -1.10544 -0.15754  1.26947
  2.37340  2.46432  2.39211  1.07671  0.17488 -0.51086 -1.01217 -0.10452
  0.30515  0.17309 -0.14915 -0.00616  0.67458  2.22801  2.60750  3.20919
  2.81838  1.55881 -0.03343 -0.71318 -1.51335 -1.22649 -0.20860  1.34364
  3.53415  2.33060  1.86899  1.00215  0.36348 -0.24308 -0.58029 -0.30251
  0.15951  0.25184 -0.30780 -0.18302  0.48664  1.46556  2.48085  3.32006
  3.24220  1.97570  0.94236 -0.88286 -1.20666 -0.82912  0.12156  1.65258
  2.27774  2.38524  2.07778  2.08029  1.03407  0.43659 -0.08794 -0.34633
 -0.44004 -0.51177 -0.32753  0.11116  0.36024  1.30522  2.30866  3.14113
  3.20032  2.30920  0.87351 -0.22440 -0.63304 -0.21989  0.93634  1.53794
  1.69315  2.04488  2.12367  1.79459  1.31441  0.71441  0.08448 -0.60425
 -0.88221 -0.47803 -0.10474 -0.03495  0.53834  1.40583  2.32724  3.13023
  3.07435  2.62581  1.48478  1.11548  0.96128  0.92198  0.96607  0.96610
  1.35956  1.78042  1.90533  1.78117  1.29582  0.50128 -0.10724 -0.65586
 -0.52312 -0.11946  0.26248  0.48854  1.12376  2.55949  2.72088  3.32115
  3.44457  3.19220  2.42686  1.69229  1.71759  0.41719  0.33630  0.79195
  1.41516  1.85998  1.95007  1.68860  1.13478  0.56335  0.02921 -0.40033
%FLAG CMAP_PARAMETER_04                                                         
%COMMENT  Thr CMAP                                                              
%FORMAT(8F9.5)                                                                  
 -0.04283  0.18161  1.05439  1.03586  1.32935  1.80299  2.39623  2.93329
  3.35590  3.57777  3.50914  1.68053 -0.39179 -0.93314 -0.64171  0.11454
  0.89169  1.19527  1.06990  0.70217  0.45484  0.13072 -0.22279 -0.64142
 -0.89041 -0.23409  0.59158  0.55751  0.83342  1.42045  2.21734  3.18185
  3.46319  3.49225  2.74426  0.52768 -0.99342 -1.26181 -0.82560 -0.00314
  0.89227  1.33370  1.44561  1.23285  0.82708  0.26308 -0.20670 -0.77475
 -0.77931 -0.21773  0.28830  0.08738  0.88718  0.95262  1.87297  3.11301
  3.13164  3.38335  1.75405  0.07220 -1.09686 -1.29826 -0.91328 -0.03110
  0.83011  1.32603  1.46471  1.28387  0.67901  0.23347 -0.27939 -0.69694
 -0.50786 -0.10197  0.06983 -0.17637  0.06763  0.79727  2.28870  2.45490
  2.93902  3.31058  1.67194  0.10975 -0.84848 -0.98572  0.03685 -0.00657
  0.75442  1.26299  1.46733  1.35576  0.81372  0.99506 -0.07250 -0.48345
  0.10617  0.89653  1.01472  0.51464  0.29597  0.97717  1.86119  2.69722
  3.25863  3.09958  1.98360  0.61582 -0.27072 -0.59401 -0.33506  0.34299
  0.94668  1.38632  1.66220  1.70320  1.34813  1.65038  0.62845  0.23924
  0.72889  0.70286  0.50076  0.83792  0.58321  1.37720  2.36342  3.16093
  3.64517  3.46287  2.41734  1.11469  0.11040 -0.17882  0.19884  0.95013
  1.17771  1.51890  1.83892  2.02544  2.52304  1.54809  1.28633  0.94204
  0.44986  0.84132  1.02745  0.44812  0.85346  1.66099  3.07918  3.29722
  3.67845  3.42114  2.31098  0.98281  0.09466  0.19679  0.86348  1.00796
  1.32832  2.00653  1.85879  2.11827  1.96393  1.65524  1.22698  0.89636
 -0.16092 -0.07801  0.36742  0.71079  1.37539  2.07819  2.78900  3.25905
  3.45281  2.88038  1.70415  0.66784  0.52962  0.91246  1.45720  1.70827
  1.96726  2.05687  2.25152  2.69300  1.87895  1.30437  0.67732  0.16373
 -0.59497 -0.15706  0.87552  1.51129  2.23851  2.99679  3.70183  4.34392
  3.11511  2.42327  1.45045  0.88441  1.17792  1.80802  1.89428  2.26153
  2.77283  3.04412  3.18064  3.02688  2.74623  0.78666  0.00000 -0.39235
 -0.35916  0.39315  1.93035  2.81662  3.65827  4.17673  4.19465  4.39392
  2.95304  2.23500  1.84732  1.84010  2.40277  2.39122  2.40836  2.83657
  3.53179  4.15047  4.32346  3.57356  2.03334  0.38577 -0.25814 -0.48010
  0.90231  2.09057  3.75066  4.41890  5.21329  5.48263  4.81077  4.43634
  3.32223  3.13901  3.21301  3.48840  3.14705  2.66483  2.64675  3.40492
  4.64828  5.45938  5.43806  3.77072  1.88593  0.59482  0.32151  0.46925
  2.84623  5.25750  4.89403  4.16235  4.18058  4.25905  4.39881  4.30063
  4.27196  6.52030  5.09605  4.18296  2.87596  2.88864  2.98802  4.36666
  5.97212  5.37136  4.65053  3.41526  2.12052  1.70730  1.91929  2.22274
  5.08537  3.84174  2.58325  2.05517  2.09913  2.76880  4.07500  5.11462
  6.04360  6.80346  4.29068  2.24439  1.89996  1.49269  2.85393  4.25936
  3.68129  3.16198  3.17712  3.18147  3.06025  3.11939  3.59651  4.06844
  2.95875  1.85563  0.75599  0.11936  0.62544  2.16551  4.28956  6.12775
  6.83966  4.68973  2.85927  1.53513  0.96538  1.77312  2.68992  2.31815
  1.47003  2.17589  2.43707  3.45826  3.94968  4.26320  4.42076  3.92590
  1.51557  0.68246 -0.39230 -0.84277  0.04559  2.19451  4.72922  6.95780
  5.40020  3.82779  2.18071  1.35124  1.31049  1.70777  2.34439  0.75006
  0.44316  1.19441  2.39699  3.43932  4.57651  3.99795  3.91034  2.38687
  1.04547  0.30750 -0.67905 -0.95180  0.30970  2.62028  4.94026  5.63370
  4.90897  3.64364  2.33340  1.59932  2.28424  1.95144  0.81385  0.18108
  0.42251  1.36588  2.52927  3.29540  3.55721  3.32056  2.55338  1.75457
  0.60608  0.40626 -0.68634 -0.66328  0.65725  2.77987  4.62553  5.30870
  4.70772  3.57993  2.28608  1.50195  1.07282  0.51037  0.02107  0.04398
  0.78132  1.81193  2.65223  3.05004  3.29539  2.26809  1.28641  0.82302
  0.22184 -0.08581 -0.51518 -0.31218  0.81241  2.48610  4.04241  4.45494
  4.00716  2.85112  1.57321  0.70165 -0.02248 -0.39760 -0.36780  0.52170
  1.52703  2.32447  2.45530  2.32999  1.42990  0.52248  0.32984 -0.22600
 -0.84996 -0.35427 -0.56081 -0.65299 -0.35852  0.31584  1.22816  2.03830
  2.09882  1.37972  0.15727 -0.97399 -1.60803 -1.26567 -0.30784  0.86931
  1.82810  1.99110  1.50663  1.56367 -0.12333 -0.81892 -1.35944 -1.44084
 -0.71561 -0.48676 -0.90866 -1.05252 -0.76509 -0.25592  1.92498  1.39249
  1.46845  0.73400 -0.53906 -1.52276 -1.96454 -1.58268 -0.76508  0.34222
  1.68651  1.37652  1.09906  0.28335 -0.35007  0.36504 -1.18170 -1.09588
 -0.48043 -0.38894 -0.89246 -1.00398 -0.72977  1.23204  2.16417  3.03543
  3.37771  0.82671 -0.30503 -1.26073 -1.67429 -1.44717 -0.71385  1.24900
  2.08698  2.14998  1.83853  0.59083  0.08661 -0.31277 -0.35513 -0.41066
 -0.69004 -0.51194 -0.32955 -0.69400 -0.07464  0.92871  2.01875  2.85811
  2.77128  1.89030  0.66242 -0.07809 -0.10615 -0.38945  0.85104  1.94679
  1.73514  1.93323  1.84929  1.46327  1.10934  0.57034  0.50272  0.41957
 -1.25344 -1.20087 -1.12615 -1.04924 -0.95384 -0.92645 -0.69918 -0.80083
 -0.88788 -1.12156 -1.25754 -1.27281 -1.10861 -1.24222 -1.29319 -1.21080
 -1.23111 -1.26112 -1.27972 -1.28928 -1.24905 -1.24053 -1.23026 -1.26240
 -0.80998 -0.02949  0.66142  0.58819  0.90096  1.83448  2.35428  2.68721
  2.63478  2.57170  2.31832  1.91349  0.98844 -0.33805 -0.39669  0.23525
  0.83158  0.85527  0.58471  0.11117 -0.22091 -0.31767 -0.30232 -0.53977
%FLAG CMAP_PARAMETER_05                                                         
%COMMENT  Val CMAP                                                              
%FORMAT(8F9.5)                                                                  
 -2.01756 -1.73905 -0.84847 -0.46472  0.56763  1.48277  2.25636  2.19993
  1.90981  1.92836  2.09834  0.40342 -1.69535 -2.90033 -2.50948 -1.57682
 -0.64873 -0.15120 -0.28239 -0.73968 -0.94325 -1.11484 -1.15508 -2.03782
 -1.34105 -1.11818 -0.89418 -0.53817  0.12131  0.92443  1.83452  1.96102
  1.70243  1.69935  1.38644 -0.63952 -2.23904 -2.43926 -2.13880 -1.32255
 -0.42293 -0.09541 -0.22230 -0.57057 -0.62945 -0.77374 -0.70221 -1.35264
 -0.30513 -0.50219 -0.51144 -0.19462  0.20036  0.92772  1.73742  1.94165
  1.66054  1.57483  0.93993 -0.30497 -1.51733 -1.80347 -1.47901 -0.70849
  0.12800  0.42168  0.27324 -0.12805 -0.25468 -0.26176 -0.25964 -0.23486
  0.22080  0.11254 -0.09598 -0.02547  0.36470  1.04764  1.78065  1.94793
  1.64226  1.47878  0.87840  0.00733 -0.78419 -1.14640 -0.91232 -0.13181
  0.55113  0.92382  1.28488  0.38464  0.18091  0.23528  0.21156  0.24920
  0.97024  0.77699  0.11389  0.09390  0.43246  1.27421  2.11132  2.36347
  2.00982  1.63713  1.04527  0.37080 -0.23589 -0.73011 -0.44336  1.26834
  1.79252  1.22128  1.25826  1.13028  0.92625  1.82206  0.89856  0.91110
  1.70991  1.32299  0.33417  0.14944  1.16593  1.49896  3.19090  2.76539
  2.48088  1.89518  1.28911  0.61864  0.01777 -0.14494  0.22396  0.77031
  1.07240  1.26184  1.35849  1.28895  1.97069  1.48297  1.57305  1.85292
  1.48800  1.13328  0.11690  0.29064  0.85784  1.77367  2.59189  2.91705
  2.42216  1.76483  1.79629  0.86281  0.10283  0.37023  0.86569  0.94069
  1.01430  1.21124  1.35219  1.30023  1.22214  1.35322  1.48391  1.69070
  0.67909  0.57713  0.02502  0.46770  1.40409  2.27852  3.49476  2.78640
  1.95403  1.27900  0.55420 -0.02238  1.20682  1.29930  1.52554  1.64336
  1.76775  1.70570  1.67854  1.45650  1.09476  0.82649  1.19884  0.75282
  0.07073  0.30572  0.52146  1.36896  2.48099  3.33540  3.59124  2.88171
  1.76876  1.19799  0.32459  0.32422  0.95308  2.45034  2.37598  2.40673
  2.67534  2.65749  2.51708  2.14912  1.18076  0.39138  0.00000  0.07630
  0.04074  1.54419  1.96416  3.13362  4.31575  4.95477  4.44775  3.11538
  1.50508  0.72125  0.79846  1.33862  2.42257  3.24290  3.12154  3.35226
  3.78456  3.99241  3.82937  2.81100  1.25323  0.16589 -0.28260 -0.12977
  1.12864  3.90130  4.63426  5.77403  6.31577  5.96470  4.91642  3.16778
  2.26973  1.74060  2.27380  2.97981  3.51359  3.19033  3.33677  4.19992
  5.22362  5.87548  4.86276  2.93236  1.19785  0.28507  0.14742  0.63000
  3.72001  6.33863  5.35590  4.29996  4.26654  4.32352  3.98104  3.33460
  2.91813  3.53218  4.29596  4.51641  2.49249  1.90963  2.83865  4.63489
  4.97899  4.16045  3.39890  2.32070  1.48906  1.29139  1.60292  2.24778
  6.00854  3.89247  2.89440  2.55025  2.57681  3.10775  3.92241  4.01712
  4.49403  5.18578  3.70552  2.38215  2.01401  1.59381  3.04997  4.51111
  3.23799  2.70851  2.59259  2.38231  2.40214  2.94886  3.50773  4.54844
  4.51937  2.50940  1.61873  1.24925  1.66350  3.66266  4.55456  5.47628
  6.13567  4.06242  2.85443  2.03944  2.02600  2.52651  3.62142  2.70641
  1.97481  2.07470  2.56879  3.03541  3.69679  4.06367  4.65134  5.55831
  2.88814  0.52779  0.16551  0.26664  1.58420  3.71632  5.64144  6.08480
  4.85665  3.62841  2.86402  2.75331  3.09330  3.73213  2.16268  1.66846
  1.14682  2.60251  3.24104  4.65709  4.40085  4.67183  4.61862  3.96074
  1.69027  0.76750 -0.69979 -0.15185  2.22330  4.17638  5.53096  5.17628
  4.26174  3.52592  3.19619  4.19572  2.94549  1.11204  0.17610  0.05643
  0.98595  2.23581  3.45223  3.88084  3.96450  3.73252  3.28716  2.64029
  1.47850  0.63019 -0.95303 -0.13694  1.54363  3.47985  4.19958  4.05565
  3.90108  3.18085  3.58033  2.62660  2.22083 -0.31386 -0.74356 -0.27479
  1.00826  2.19607  2.74108  2.87658  2.77839  2.65101  2.37288  1.92155
  1.07215  0.66669 -0.89125 -0.20060  1.02999  2.38189  2.91480  2.77764
  2.48398  2.19059  2.01388  1.58231  0.53487 -1.19678 -1.18562 -0.14882
  0.98452  1.69506  1.85226  1.71204  1.57096  1.60872  1.52788  1.43156
  1.07875  1.04590 -0.55118 -0.28378  0.64179  1.53005  2.05887  1.60199
  1.69739  1.25571  1.02661  0.47784 -0.61980 -1.38623 -0.85945  0.33907
  1.15832  1.35313  1.15992  0.81644  0.76079  0.76522  0.89391  1.05876
  1.45117  1.22355  0.18022 -0.22437  0.39219  1.28115  1.89920  1.64643
  1.36145  1.15488  0.69505 -0.03464 -0.80651 -1.04055 -0.39746  0.64416
  1.21429  1.35414  1.10084  0.71349  0.62948  0.72070  1.07327  1.35814
  1.45821  1.01290  0.30532 -0.11668  0.26191  1.81248  2.13486  2.25298
  1.74419  1.24135  0.75222 -0.00108 -0.54822 -0.71040 -0.08108  1.02502
  1.44087  1.54881  1.35073  1.01930  0.87623  1.09706  1.50032  1.74125
  1.24172  0.70146  0.38540  0.25065  0.37446  1.32984  2.22978  2.81617
  2.19013  1.26923  0.57654  0.22218 -0.25813 -0.26505  0.64873  1.84887
  1.79747  1.73430  1.57205  1.21116  1.04895  1.15718  1.33818  1.58324
  0.52985  0.37156  0.33331  0.30703  0.70760  1.27012  2.34003  3.12435
  2.75444  1.71103  0.77398  0.27700  0.07276  0.30492  1.97301  3.06719
  2.42419  1.91835  1.82997  1.59237  1.96213  1.07834  0.58274  0.44102
 -1.78231 -0.90400 -0.83905  0.00646  1.08505  1.99726  2.71747  2.45290
  1.86533  2.24530  1.12274 -0.76075 -1.12759 -1.47736 -1.09815 -1.10064
 -0.11997  0.30194  0.03016 -0.49455 -0.85448 -1.11224 -0.54136 -0.66678
%FLAG CMAP_PARAMETER_06                                                         
%COMMENT  Asn CMAP                                                              
%FORMAT(8F9.5)                                                                  
 -2.36142 -2.38282 -1.85114 -1.14945 -0.53219  0.40272  1.10739  1.54721
  1.14822  0.56328 -0.32641 -0.97284 -1.62108 -2.61585 -2.43529 -1.76224
 -0.89168 -0.43603 -0.45868 -0.80868 -1.23357 -1.67011 -1.85428 -2.07601
 -0.99020 -0.65164 -0.16568  0.77160  0.60853  1.20633  1.86206  2.24018
  2.09896  1.87777  1.49042 -0.23289 -1.57415 -2.03742 -1.74572 -0.99728
 -0.21593  0.22447  0.13197 -0.25978 -0.50150 -0.85141 -0.96698 -0.93705
 -0.23452  0.02251  0.30781  0.40180  0.78928  1.41471  2.15873  2.53745
  2.41276  2.12221  1.06003 -0.37341 -1.32169 -1.52816 -1.15850 -0.48430
  0.26694  0.62752  0.57895  0.23875 -0.14843 -0.25471 -0.16878 -0.21645
  0.32993  0.62242  0.82014  0.83866  1.17298  1.85445  2.49579  2.76609
  2.66051  2.28725  1.11295 -0.10052 -0.45992 -0.96562 -0.70181  0.02410
  0.76921  1.15367  1.07940  0.77563  0.54329  0.42201  1.56320  0.28771
  0.72778  0.84030  1.35834  0.78504  1.25359  1.90927  2.65036  2.92871
  2.76138  2.78943  1.09211  0.00726 -0.56542 -0.81169 -0.43858  1.02217
  0.90049  1.18949  1.23458  1.15325  0.94233  0.76064  0.77201  0.78071
  0.95200  0.88305  0.67506  0.62695  1.20079  2.51954  2.77945  3.06364
  2.84209  2.21279  2.07637  0.22142  0.09971 -0.64441 -0.12844  0.59565
  0.95584  1.18330  1.26109  1.35401  1.20044  1.13471  1.25849  1.53251
  0.98852  0.75594  0.58499  0.73124  1.33660  2.15329  2.89253  3.24156
  3.05146  2.40135  1.25476  0.84619 -0.28833 -0.04297  0.52966  0.77004
  1.09586  1.21028  1.84021  1.39937  1.28983  1.25273  1.30990  2.25922
  0.43070  0.41686  0.64029  1.06650  1.77975  2.64461  3.22075  3.30475
  2.78048  1.92844  0.86429  0.03553  0.07940  0.75937  1.21102  1.56399
  1.77881  1.78336  2.76865  2.77098  1.21889  0.83048  0.66873  0.52960
  0.14984  0.40714  1.05775  1.86760  2.87661  3.67525  3.97002  3.45551
  3.16481  1.49243  0.70837  0.47291  0.83260  1.52894  1.81113  2.21287
  2.59067  2.72250  2.63597  2.26171  1.28601  0.37915  0.00000 -0.16142
  0.37322  1.05110  2.29853  3.46919  4.53739  5.08791  4.67687  3.55691
  2.24775  1.47967  1.24790  1.41912  1.99678  2.09866  2.24949  2.76531
  3.45843  3.94024  3.90981  3.00944  1.38809  0.06721 -0.25222 -0.05158
  1.65927  2.83186  4.18526  5.41852  6.44555  6.11045  4.46824  3.61889
  2.60459  2.56860  2.67046  2.84508  2.52977  2.20948  2.37873  3.27529
  4.39793  5.47368  4.42754  2.90076  1.18353  0.23659  0.40642  0.93136
  4.38128  5.67636  4.30743  4.08665  4.09042  5.21933  4.29941  3.43575
  3.37828  4.09688  3.92159  2.86586  0.72936  1.25023  1.60873  3.38397
  4.40792  3.56917  2.53579  1.66014  1.04446  1.31380  2.19557  3.14506
  4.81450  4.02770  3.08165  2.65234  2.59542  2.92277  3.38903  4.59549
  4.64414  4.42318  2.34279  0.65483  0.08515  0.48342  1.95375  3.58076
  2.98522  2.26620  2.95565  1.76159  1.91602  2.54703  3.37308  4.33159
  3.76265  2.68948  1.81256  1.33990  1.64654  2.73704  4.16511  5.07259
  5.42833  3.59789  1.73708  1.37640  0.65256  1.55040  2.79264  2.49202
  1.53215  1.55102  1.92800  2.61187  3.07623  3.54959  4.18847  4.59865
  1.87115  1.02475  0.53761  0.43174  1.54095  3.39547  5.16780  5.81117
  4.81530  3.41190  2.11102  1.55531  1.62597  2.09509  1.71205  0.80780
  0.62797  1.36163  2.44562  3.46914  3.90694  4.13511  3.86763  2.92274
  0.58000  0.17215 -0.27569  0.04547  1.59524  3.62089  4.76947  4.70111
  4.18539  3.29728  2.38734  1.86816  1.54197  1.04924  0.13429 -0.24233
  0.27816  1.37732  2.49883  3.11480  3.23962  2.93361  2.25515  1.28612
 -0.15494 -0.34050 -0.57789 -0.14372  1.35546  2.92020  3.92891  3.60777
  3.33542  2.71737  1.85692  1.82747  0.47393 -0.57416 -1.11105 -0.77930
  0.16180  1.13768  1.79580  2.04997  1.86544  1.43990  0.89481  0.25518
 -0.77548 -0.80773 -0.80786 -0.30262  0.73746  2.60772  2.12241  2.62399
  2.02789  1.41505  0.62418 -0.17027 -1.20154 -1.87203 -1.78777 -0.88748
 -0.03581  0.62951  0.66272  0.52817  0.31799  0.04386 -0.32034 -0.63929
 -0.22789 -0.11594  0.01596  0.32123  0.85166  1.52364  1.67078  1.44123
  1.16473  0.65131 -0.05490 -1.07546 -1.90235 -1.91447 -1.24920 -0.12634
  0.57735  0.78964  0.59226  0.51054  0.32819  0.10384 -0.16834 -0.29474
  0.64706  0.61584  0.56208  0.92606  1.40738  2.11648  2.40853  2.29623
  1.88691  1.22322  0.14194 -0.86223 -1.43925 -1.15134 -0.42472  0.69828
  1.34848  1.49478  1.31140  0.94545  0.68124  0.52936  0.48317  0.56963
 -0.99300 -0.97876 -1.01326 -0.77718 -0.18870  0.51456  1.06092  1.14814
  0.59953 -0.34468 -1.44363 -2.36329 -2.86251 -2.71047 -1.80960 -0.75154
 -0.26256 -0.27321 -0.57516 -1.08157 -1.29577 -1.35569 -1.17839 -1.07544
 -2.18588 -2.19390 -2.07539 -1.82534 -0.57333 -0.25977  0.54635  0.71997
  0.06649 -0.87697 -2.01012 -2.12155 -3.30791 -3.18420 -2.12738 -0.43993
 -0.72253 -0.76304 -0.88684 -1.41091 -1.66608 -1.83869 -1.74745 -1.91149
 -3.08565 -2.97228 -2.12433 -2.30328 -1.59074 -0.57423  1.86028  0.74786
  0.15188 -0.91140 -1.98044 -2.69096 -3.09247 -2.84304 -1.43999 -1.42382
 -1.21932 -1.06603 -0.97419 -1.28634 -1.70719 -2.24687 -2.46040 -2.77219
 -3.13661 -3.14092 -2.19694 -2.18054 -1.53235 -0.40538  0.59679  0.97100
  0.44526 -0.49049 -1.51523 -2.17362 -2.35354 -2.30396 -2.74203 -2.18508
 -1.54370 -1.02833 -0.96874 -1.21845 -1.74214 -2.32436 -1.97764 -2.84223
%FLAG CMAP_PARAMETER_07                                                         
%COMMENT  Asp CMAP                                                              
%FORMAT(8F9.5)                                                                  
 -1.49562 -1.46758 -1.05587 -0.62963  0.14992  1.22315  2.17140  2.70849
  2.38497  1.72937  0.78456  0.22189 -0.28120 -1.32669 -1.27041 -0.49139
  0.39957  0.88395  0.92343  0.52253 -0.03711 -0.53684 -0.78664 -1.14950
 -0.64489 -0.35503 -0.07025  0.13980  0.63990  1.34390  2.14694  2.65182
  2.63980  2.46358  2.06128  0.12666 -1.27358 -1.82069 -1.58355 -0.69542
  0.26285  0.84428  0.79877  0.40272  0.10166 -0.42888 -0.43529  0.00693
 -0.42804 -0.36910 -0.48433 -0.51308 -0.04683  0.82016  1.70274  2.29461
  2.23181  1.81286  0.54788 -0.88838 -1.78552 -2.06234 -1.63086 -0.84211
  0.15543  0.63475  0.67849  0.33758 -0.22145 -0.35208 -0.33967 -0.47257
  0.28872  0.44823  0.30222  0.17422  0.47890  1.16691  1.95585  2.33566
  2.32125  1.86687  0.72697 -0.39833 -0.96491 -1.00888 -0.68405  0.07457
  0.78111  1.10692  1.04508  0.70100  0.49678  0.21560  0.20943  0.23489
  0.71999  0.82815  0.54467  0.35417  0.72074  1.42855  2.18470  2.45775
  2.35292  1.86194  0.84660 -0.12572 -0.56530 -0.77193 -0.32602  0.31405
  0.83398  1.03708  1.07286  1.05466  0.87630  0.60296  1.14736  0.70843
  1.03998  0.87380  0.46989  0.31562  0.79617  1.57471  2.38948  2.86883
  2.76330  2.17437  1.28784  0.30631 -0.32026 -0.37585  0.11091  0.71397
  0.96823  1.18270  1.32644  1.37983  1.28316  1.17555  1.49550  1.22262
  0.97974  1.16744  0.90297  0.54507  1.16492  2.76751  2.73801  3.15414
  3.04712  2.42995  1.33037  0.40212  0.00720  0.28519  0.83612  1.03536
  1.32229  1.41220  1.64613  1.65576  1.50229  1.29755  1.36353  1.21807
  0.56947  0.66830  0.85946  1.17456  1.86629  2.71927  3.23518  3.33637
  2.81689  1.96261  1.01532  0.28151  0.39885  2.03528  1.66211  1.97715
  2.21266  2.25496  2.71296  2.09240  1.84455  1.89262  0.61624  0.50926
  0.32488  0.73152  1.43091  2.23893  3.20457  3.90721  3.99750  3.37929
  2.29378  1.30243  0.67642  0.75738  1.39616  1.94462  2.37756  2.63964
  3.12320  3.21242  3.10066  2.62911  1.42662  0.23498  0.00000  0.00010
  0.73600  1.59064  2.81308  3.69030  4.64683  5.15404  4.64262  3.19191
  1.81778  1.23102  1.39704  1.88323  2.29514  2.33708  2.53949  3.21211
  3.99577  4.37219  4.28607  4.17382  0.98275 -0.15319 -0.20281  0.18782
  2.31021  3.71717  5.60886  4.34945  4.31542  4.11915  3.38784  2.36621
  1.87800  2.37554  3.00163  2.23706  1.46509  1.02946  1.41558  2.77697
  4.16499  4.44222  3.05201  1.61863  0.26170 -0.23192  0.33982  1.20697
  3.97952  4.63690  3.67634  3.33977  3.39728  3.09758  2.73880  2.52708
  2.89144  4.05099  2.73684  2.43041  0.10319  0.55891  0.97879  2.75597
  4.07597  3.20952  2.02049  1.06720  0.41182  0.67953  1.52192  2.59554
  4.17204  3.88190  2.91020  2.47439  2.24044  2.29340  2.82300  3.31180
  4.10962  4.45591  1.88641  0.35814  0.09355  0.04944  1.59611  3.34374
  3.12305  2.17548  1.61711  1.21835  1.28852  1.86143  2.58726  3.40886
  4.52471  3.16398  2.06366  1.37578  1.36089  2.25188  3.55804  4.50011
  5.07453  3.40006  1.53037  0.88466  0.31377  1.25650  2.71111  3.02874
  1.97372  2.15472  1.59327  2.69414  2.40171  2.73245  3.27608  5.10893
  3.14945  1.90832  0.95730  0.45874  1.22866  2.92255  4.67866  5.93875
  5.15008  3.66383  2.29774  1.72070  1.79854  2.42317  2.77678  1.62694
  1.16044  1.59965  2.44139  3.50199  3.60428  3.88961  4.89752  4.22000
  1.91926  1.05173  0.21400  0.12545  1.45754  3.59387  5.39166  5.58573
  5.04916  4.05587  4.20274  2.64408  2.34109  2.61386  2.07953  0.49445
  0.84121  1.90927  3.06728  3.85257  4.22501  4.37514  3.79127  2.84961
  1.46119  0.48800 -0.09553  0.07014  1.63877  3.47982  4.57471  4.74649
  4.44286  3.81479  2.98666  2.30656  1.73429  1.06748  0.23379 -0.03219
  0.94327  1.97829  2.84941  3.36983  4.08523  3.32868  2.75870  2.00730
  0.75221  0.37623  0.02947  0.33761  1.52499  2.72714  4.19077  3.63118
  3.52459  2.92951  2.14991  1.38545  0.38442 -0.47785 -0.55507  0.29007
  1.29482  1.92247  2.15714  2.33333  2.30165  2.12531  1.71418  1.22141
  0.88641  0.92848  0.87156  1.02232  1.60200  2.35960  2.73873  2.52997
  2.31464  1.83933  1.20802  0.38755 -0.48391 -0.66327 -0.09884  1.02970
  1.82779  2.10988  1.85429  1.45392  1.11870  0.94338  0.81067  0.83826
  1.03200  1.18195  1.13906  1.22457  1.74650  2.32383  2.57689  2.44037
  2.14035  1.63689  0.64869 -0.39809 -0.85334 -0.62553  0.21513  1.19266
  1.87478  1.82009  1.32977  0.86426  0.49278  0.29173  0.37297  0.62169
  0.52072  0.42764  1.03985  0.38917  1.00495  1.79427  2.38328  2.46870
  2.01211  1.24009  0.13122 -0.74933 -1.26874 -1.14283 -0.29027  0.79514
  1.43503  1.40711  1.02307  0.60674  0.27365  0.21750  0.33391  0.40527
 -0.61008 -0.80145 -0.73895 -0.59840  0.12484  0.99044  2.20612  2.15075
  1.57796  0.69818 -0.35451 -1.10407 -1.70906 -1.58366 -0.60563  0.61874
  1.00973  1.01639  0.82233  0.24046 -0.04711 -0.20865 -0.15878 -0.37664
 -1.55972 -1.60220 -1.32780 -0.16944 -0.34409  0.64340  1.65164  2.17103
  1.67259  1.53155 -0.28784 -1.03589 -1.53627 -1.39906 -0.05579  0.43801
  0.55558  0.71337  0.78982  0.45863  0.04903 -0.49554 -0.74942 -1.18854
 -1.84464 -1.86838 -1.48444 -0.60621 -0.44386  0.66811  1.82650  2.39558
  2.02004  1.10338  0.04996 -0.57627 -0.82171 -0.50060 -0.94257 -0.36603
  0.27577  0.82555  0.88844  0.61807 -0.02107 -0.65910 -0.98900 -1.48129
%FLAG CMAP_PARAMETER_08                                                         
%COMMENT  Arg CMAP                                                              
%FORMAT(8F9.5)                                                                  
 -0.82019 -0.32734  0.03808  0.23228  0.76963  1.60165  2.36816  2.61664
  2.38271  2.02874  1.62850  0.62939 -1.20602 -1.83289 -1.46232 -0.53771
  0.32243  0.59859  0.35225 -0.12119 -0.69002 -1.04545 -1.05428 -0.93403
 -0.41932 -0.15004  0.12826  0.27661  0.72913  1.42432  2.81129  2.67254
  2.49050  2.27083  1.72637 -0.18382 -1.46783 -1.77855 -1.39836 -0.44895
  0.41819  0.77443  0.57485  0.18351 -0.24581 -0.49794 -0.49109 -0.43134
 -0.03181  0.09212  0.26463  0.30730  0.67123  1.37932  2.23082  2.63856
  2.62596  2.24643  1.07404 -0.34650 -1.22123 -1.37293 -0.94649 -0.06868
  0.66814  1.02349  0.90096  0.51091  0.83242 -0.12064 -0.13937 -0.06630
  0.30911  0.38230  0.41571  0.35150  0.71886  1.40113  2.24835  2.61976
  2.60263  2.19910  1.02051 -0.13725 -0.80984 -0.51727 -0.60832  0.14925
  0.95520  2.31597  1.28238  0.95905  0.58435  1.06596  0.36760  0.32559
  0.97700  0.87938  0.70298  0.56028  0.90637  1.63130  2.48708  2.91633
  2.84540  2.37176  1.28724  0.25600 -0.35258 -0.57629 -0.17251  1.24378
  1.33817  1.69485  1.73420  2.41743  1.23425  1.05948  1.01644  1.03179
  1.47846  1.26136  0.92101  0.72122  1.88398  1.95481  3.43952  3.26274
  3.17158  2.54918  1.49397  0.45059 -0.22429 -0.29407  0.28140  0.97521
  1.35309  1.59629  1.79401  1.76556  1.67262  2.50523  2.84585  1.85480
  1.12701  0.88950  0.68010  0.70824  1.23056  2.08392  2.94066  3.33371
  3.08117  2.31234  1.22116  0.15414  0.31991 -0.02302  0.71736  0.99887
  1.27471  1.45474  1.70706  1.63244  1.46896  1.34033  1.41944  1.38113
  0.40271  0.40149  0.56144  1.00706  1.81004  2.53536  3.12806  3.21290
  2.72394  1.84719  0.67139 -0.10650 -0.16555  1.22354  1.25868  1.63725
  1.94073  2.02029  1.96543  1.75902  1.20561  0.79429  1.12809  0.54953
 -0.02017  0.24010  0.82234  1.78670  2.71108  3.57624  3.89674  3.41370
  2.50308  1.42332  0.49400  0.27081  0.71342  1.50828  1.84817  2.30340
  2.73753  2.88432  2.72089  2.33911  1.26274  0.32927  0.00000 -0.02509
  0.22019  0.81524  1.99565  3.20174  4.27697  4.99287  4.68537  3.60993
  2.33489  1.49104  1.20599  1.49948  2.05487  2.09847  2.37240  2.91429
  3.57365  4.03015  4.09469  3.12549  1.52656  0.13471 -0.13981  0.05364
  1.56488  2.47517  3.89322  5.01126  6.12448  6.24176  5.27335  3.81489
  2.73700  2.63495  2.81724  3.07612  2.69272  2.36363  2.58824  3.57488
  4.75866  5.70992  5.22088  3.35499  1.49211  0.43632  0.68075  0.99862
  3.71466  4.97633  5.03644  4.63092  4.88438  4.95132  4.74947  4.22219
  3.96003  4.36300  4.49487  3.50231  2.33286  2.82232  2.84070  4.64427
  5.80231  4.93210  4.03654  3.69286  1.82345  1.53744  2.11349  3.00377
  5.69846  4.31879  3.48555  3.08843  3.12750  3.84986  4.74837  5.15704
  5.69924  5.70772  3.79753  2.20228  2.02020  1.66881  3.16529  4.71910
  3.98793  3.46162  3.23644  3.01487  2.85594  3.17651  3.88235  5.08322
  4.33361  3.05845  2.15191  1.76674  2.26019  4.62310  5.27599  6.41105
  6.57469  4.72069  2.90873  2.58442  1.84659  2.59955  3.75670  3.29872
  2.50633  2.64921  3.13213  3.69368  4.11672  4.56694  5.22661  5.41481
  2.47932  1.47708  0.92934  0.82583  1.97560  4.09763  6.02009  6.63700
  5.63097  4.28706  3.44779  2.55291  2.63996  2.96895  2.52734  1.57697
  1.52061  2.36918  3.49937  4.35064  4.63186  4.93333  4.58764  3.87984
  1.14030  0.54805  0.15255  0.42318  1.94772  4.16250  5.55489  5.40328
  4.90248  3.93201  3.16772  2.77740  2.39321  1.78501  0.79513  0.47158
  1.16020  2.17993  3.37552  4.72366  3.82546  3.46230  2.81778  1.93161
  0.52749  0.13567 -0.16778  0.12719  1.66181  3.37787  4.18059  4.18535
  3.93313  3.28620  3.40583  1.93871  1.19386  0.14108 -0.35986  0.36760
  1.06184  1.94671  2.60114  2.72622  2.44593  2.05922  1.56750  1.02523
  0.01900 -0.06224 -0.20394  0.11955  1.23281  2.36006  2.79433  2.78651
  2.70084  2.19348  1.35765  0.56943 -0.54495 -1.21964 -0.99636  0.01972
  1.13276  1.52104  1.46857  1.29408  0.96868  0.64095  0.41292  0.19068
 -0.07976  0.08211 -0.00959  0.19096  0.86141  1.55762  1.91521  1.67178
  1.42661  0.97985  0.22429 -0.82647 -1.22594 -1.79632 -0.99661  0.16885
  1.06280  1.09088  0.71015  0.35652 -0.05923 -0.25897 -0.27967  0.15156
  0.31643  0.34879  0.03351  0.07730  0.59951  1.35053  1.84798  2.38209
  1.48242  0.87376 -0.33412 -1.31902 -1.88732 -1.66595 -0.85111  0.29401
  1.01849  1.07281  0.71179  0.25448 -0.16867 -0.19324 -0.07485  0.14014
  0.30578  0.18396  0.41854  0.12605  1.31596  1.40698  2.13744  2.31775
  1.90841  1.01589 -0.13190 -1.04639 -1.40035 -1.53108 -0.70658  0.55931
  1.00526  0.97097  1.46250  0.60875  0.25602  0.27253  1.23801  0.50623
 -0.21577 -0.32939 -0.28555 -0.12925  0.37096  1.31081  2.17516  2.51541
  2.07043  1.07046  0.00522 -0.78938 -1.37985 -1.38712 -0.37447  0.94060
  1.21850  1.07708  0.94808  0.67328  0.65820  0.28861  0.37647  0.19858
 -0.94918 -1.09353 -0.88094 -0.51772  0.10892  1.12433  2.25381  3.33302
  2.38527  1.24435  0.47731 -0.27468 -0.92392 -0.73854  0.62725  0.76038
  0.86756  0.93678  0.99157  1.26267  0.40698 -0.06675 -0.28978 -0.57344
 -1.55826 -1.71934 -0.87065 -0.80793  0.11462  1.20435  2.36674  2.85621
  2.50426  1.35577  0.89560 -0.29658 -0.31092 -0.83895 -1.29321 -0.66979
  0.16650  0.68020  1.64189  0.50936 -0.05755 -0.64713 -0.91307 -1.12834
%FLAG CMAP_PARAMETER_09                                                         
%COMMENT  Lys CMAP                                                              
%FORMAT(8F9.5)                                                                  
 -1.13164 -0.62346 -0.24209 -0.02973  0.48480  1.23694  2.04575  2.29166
  2.02876  1.62703  1.27127  0.35950 -1.42623 -2.05405 -1.64702 -0.75066
  0.09360  0.45285  0.21807 -0.18586 -0.73583 -1.13344 -1.19694 -1.19062
 -0.64060 -0.32893  0.02012  0.02118  0.47137  1.14861  1.91913  2.36069
  2.22229  1.95149  1.20614 -0.57017 -1.75076 -2.03501 -1.58763 -0.64877
  0.30096  0.62023  0.45342  0.04313 -0.46090 -0.79564 -0.82334 -0.74223
 -0.24137 -0.11209  0.08544  0.05425  0.40854  1.14888  2.02651  2.38762
  2.30421  2.65775  0.84980 -0.58949 -1.42718 -1.56969 -1.12474 -0.27600
  0.57048  0.92694  0.75506  0.36313  0.41248 -0.25267 -0.29508 -0.30702
  0.15784  0.16124  0.21528  0.19125  0.52652  1.17640  2.01822  2.39523
  2.25697  1.97743  0.85670 -0.29822 -0.64315 -0.71138 -0.30686  0.45873
  0.81134  1.29671  1.19500  0.84969  0.46708  0.29043  0.21746  0.16500
  0.89392  0.71753  0.57115  0.43890  0.76485  1.44400  2.31824  2.67943
  2.58376  2.16804  1.23014  0.82763 -0.51969 -0.73656 -0.32147  0.44935
  1.20995  1.60156  1.65872  1.41868  1.06413  0.88918  1.40765  0.89807
  1.39127  1.14527  0.83908  0.62088  1.03137  2.44461  3.61122  3.03639
  2.93037  2.34216  1.25412  0.23792 -0.42524 -0.47841  0.12423  0.77695
  1.18318  1.45904  1.64051  1.57482  1.43824  1.35338  1.42422  1.50599
  1.03940  0.78129  0.55141  0.59044  1.11541  1.93195  3.28135  3.10600
  2.87709  2.08673  0.97761 -0.07189 -0.55989 -0.15343  0.59138  0.86483
  1.13795  1.36979  1.55187  1.49198  1.31001  1.19377  1.27168  1.26717
  0.31570  0.32645  0.43538  0.89961  1.65773  2.35060  2.92667  3.00795
  2.52682  1.60328  0.45969  0.23113 -0.28882  1.23655  1.15894  1.54835
  1.88547  1.93525  1.86074  1.72151  1.65432  0.72519  0.57772  0.96376
  0.01270  0.24227  0.76959  1.64854  2.60813  3.46061  3.69061  3.18918
  2.22863  1.15788  0.39483  0.21073  0.68040  2.18832  1.80572  2.24818
  2.70988  2.86880  2.79105  2.41410  2.01156  0.35940  0.00000  0.00646
  0.35073  0.90201  2.00003  3.08122  4.18056  4.93815  4.63514  3.60238
  2.75114  1.43898  1.23584  1.46770  2.07827  2.18651  2.36403  2.96159
  3.67909  4.13912  4.10653  3.18582  1.51669  0.18861 -0.06191  0.04962
  1.53826  2.58483  4.03310  5.05092  6.11295  6.14815  5.20647  3.81976
  2.76531  2.50097  2.69420  2.97134  2.67683  2.45579  2.69794  3.72189
  4.88760  5.73443  5.25225  3.32794  1.50262  0.37839  0.90315  0.93349
  3.53826  4.97003  5.16584  4.77571  4.97699  4.94501  4.73810  4.10406
  3.72549  4.11352  4.26970  3.27545  2.15952  2.71722  2.87070  4.71124
  5.93638  5.07391  4.12244  2.88828  2.59390  1.43687  1.95877  2.78313
  5.77443  4.46997  3.56825  3.21013  3.29175  3.88737  4.64985  4.86020
  5.40449  5.58649  3.52430  1.95498  2.12058  1.64132  3.18061  4.76232
  4.12981  3.48929  3.28524  2.96613  2.82022  3.09461  3.81784  4.80706
  4.81125  3.11064  2.19879  1.79413  2.26340  3.62230  5.03506  6.19526
  6.42134  4.54813  2.74872  2.01212  1.67501  2.46391  3.72853  3.32011
  2.54393  2.64930  4.53517  3.65435  4.11000  4.43677  5.16380  5.36330
  2.40638  1.42733  0.83483  0.72279  1.83113  3.87438  5.88103  6.54537
  5.44021  4.07584  2.89687  2.46565  2.57255  2.85706  2.48850  1.54075
  1.55152  2.30832  3.47039  4.36402  4.62076  5.24285  4.48773  3.44960
  1.10697  0.48844  0.05413  0.22301  1.84021  4.72185  5.44366  5.35532
  4.78976  3.85091  3.07756  2.70321  2.41981  1.79438  0.82855  0.52195
  1.15697  2.28904  3.44297  4.00628  3.92284  3.44623  2.77364  1.79239
  0.57707  0.21457  0.12757  0.11426  1.68939  3.35709  3.67419  3.88209
  3.86371  3.22634  2.49647  1.84377  1.15687  0.09138 -0.36996 -0.04023
  1.02408  2.05775  2.68926  2.74955  2.42499  2.04678  1.55711  1.00697
  0.05163  0.00299 -0.17038  0.08753  1.18689  2.24636  2.73093  2.76323
  2.65887  2.14045  1.40562  0.50704 -0.61236 -1.29634 -1.05969 -0.13291
  0.96124  1.48528  1.46883  1.23917  0.87082  0.57255  0.35700  0.19011
 -0.10233  0.05477 -0.00840  0.09387  0.67551  1.37869  1.72925  1.53428
  1.31553  0.82680  0.14475 -0.97642 -1.85541 -1.92868 -1.09786  0.07237
  0.91454  0.97238  0.58573  0.26675 -0.11967 -0.34550 -0.35246 -0.32802
  0.52160  0.15688 -0.09909 -0.06538  0.41444  1.10954  1.57762  1.58789
  1.28279  0.65634 -0.44715 -1.51329 -2.08018 -1.90600 -1.01779  0.15231
  0.91178  1.43560  0.45842  0.08514 -0.30926 -0.44935 -0.25988 -0.05601
  0.17976  0.55827 -0.34578 -0.27097  0.25407  1.08656  1.80718  1.95109
  1.58890  0.72912 -0.40442 -1.34979 -1.91684 -1.87165 -0.98156  0.28439
  0.89099  0.90274  0.79523  0.40138  0.02081  0.00907  0.23280  0.31097
 -0.44608 -0.50159 -0.63851 -0.46568  0.06284  0.89854  2.27207  2.66185
  2.06789  0.75765 -0.37406 -1.13229 -1.70425 -1.63652 -0.60650  0.74288
  0.97450  0.83959  0.77625  0.54584  0.23025  0.14501  0.19838  0.06330
 -1.11297 -1.28309 -1.07056 -0.72163 -0.11182  1.28275  1.90578  2.41469
  1.97238  0.84092  0.11079 -0.94101 -1.15465 -0.94939  0.64316  0.56647
  0.70355  0.74958  1.63039  0.63838  0.25608  0.41040 -0.50836 -0.80252
 -1.72473 -1.92912 -1.10012 -1.05519 -0.10274  0.90677  2.05671  2.58075
  2.16667  1.05344  0.03573 -0.05773 -0.58287 -1.40318 -1.58072 -0.87231
  0.01980  0.51998  0.63491  0.37020 -0.25344 -0.90749 -1.16574 -1.34771
%FLAG CMAP_PARAMETER_10                                                         
%COMMENT  Leu CMAP                                                              
%FORMAT(8F9.5)                                                                  
 -0.86694 -0.26821  0.11903  0.36257  0.95573  1.67477  2.43156  2.60365
  2.27204  1.80613  1.46886  1.61233 -0.96663 -1.49770 -1.08239 -0.09973
  0.68400  0.98069  0.74771  0.20585 -0.44627 -0.94569 -1.07455 -1.03710
 -0.32646  0.18654  0.61372  0.67096  1.01304  1.68958  2.59064  2.69380
  2.62711  2.28315  1.55874 -0.12149 -1.21885 -1.44423 -0.97001 -0.05369
  0.80796  1.12834  0.84158  0.41540 -0.05618 -0.48333 -0.57243 -0.49018
 -0.00270  0.44349  0.67720  0.69907  0.96098  1.51827  2.31922  2.59766
  2.46815  2.10040  1.01494 -0.35138 -1.06078 -0.51379 -0.69064  0.13405
  0.94764  1.25044  1.05896  0.70807  1.27955  0.00478 -0.14861 -0.13199
  0.46773  1.06122  0.84151  0.87321  1.53577  2.26717  2.28379  2.61533
  2.48323  2.10062  0.99888 -0.16216 -0.70927 -0.70653 -0.29305  0.40855
  1.21244  1.57878  1.45953  1.15294  0.73992  0.44830  0.51887  0.42642
  1.08264  1.22032  1.01432  0.92883  1.19777  1.89909  2.63517  2.91989
  2.71483  2.15712  1.13870  0.10970 -0.35319 -0.45575 -0.07314  0.71696
  1.39933  1.70190  1.76612  1.54603  1.28907  0.96167  1.05593  0.99887
  1.28886  1.08719  1.25509  0.61945  1.07490  1.93759  3.19207  3.05501
  2.85024  2.25228  1.28855  0.30319 -0.32580 -0.33934  0.94330  1.01391
  1.36742  1.55398  1.68291  1.69903  1.58878  1.35670  1.38167  1.38984
  0.98482  0.77092  0.58293  0.75254  1.33157  2.19094  2.97361  3.31530
  2.98261  2.34181  1.68188  0.20860 -0.18920  0.15129  0.97347  1.18438
  1.41087  2.18263  1.74084  1.83977  2.49337  1.40782  1.29872  1.23230
  0.48495  0.51375  0.72118  1.16071  2.03516  2.76085  3.33781  3.33714
  3.21881  1.91348  0.71654 -0.06047  0.05722  0.95499  1.57463  1.97846
  2.20669  2.25753  2.16240  2.05082  1.46338  0.92763  0.63950  0.52464
  0.07954  0.44680  1.02424  2.02016  2.99245  3.73027  3.90871  3.36270
  2.34980  1.21384  0.31676  0.22259  0.86998  1.74017  2.65575  2.56314
  2.94846  3.04800  2.92362  2.53858  1.53008  0.44000  0.00000 -0.00769
  0.24993  1.09492  2.17567  3.43132  4.50566  5.05694  4.64546  3.50848
  2.15393  1.27464  0.97041  1.34987  2.11323  2.30548  2.56683  3.12183
  3.71616  4.15639  4.02019  3.11381  1.50702  0.51912 -0.20195 -0.08615
  1.52978  2.82371  4.12062  5.09490  6.15608  6.08176  5.03421  3.52597
  2.34959  2.18514  2.44731  2.85399  2.64346  2.42082  2.71715  3.68263
  4.79352  5.66725  5.08137  3.19151  1.34349  0.25042  0.36715  0.82954
  3.49877  5.10429  4.80281  4.54651  4.68704  4.66098  4.37663  3.68363
  3.39535  3.95518  3.96235  2.85930  2.21248  2.20453  2.53736  4.31396
  5.52110  4.69616  3.78755  2.61424  1.52261  1.35018  1.75048  2.53707
  5.65682  4.15269  3.35229  3.00261  3.08500  3.54523  4.16460  4.62833
  5.13779  5.01177  3.02054  1.47096  1.36914  1.36431  2.92161  6.08683
  3.79124  3.26901  3.87628  3.15138  2.56586  2.96443  3.52026  4.83005
  4.54702  3.10593  2.16146  1.79107  2.10872  3.47796  4.87594  5.92625
  6.01846  4.12483  2.27314  1.85210  1.40705  2.31574  3.63083  3.28348
  2.48395  2.41514  2.93210  3.56664  3.83230  4.13078  4.61915  5.21000
  2.54403  1.68952  0.97521  0.88413  2.02670  4.01998  5.83129  6.49399
  5.45501  4.03342  2.72981  3.04219  2.43764  2.97586  2.73313  1.73379
  1.55615  2.30112  3.86657  4.36600  4.57747  4.78312  4.62251  3.65331
  1.39094  0.80730  0.29380  0.53655  2.14327  4.35364  5.64162  5.52871
  4.81227  3.89474  3.02138  2.56961  2.36903  1.91970  1.04584  0.61644
  1.26738  2.48009  3.51320  4.14947  3.98350  3.59513  2.95805  2.05137
  0.59467  0.26702 -0.00118  0.34338  1.95569  3.71282  4.31538  4.26902
  3.93382  3.80334  2.45012  1.80769  1.23485  0.28708 -0.16539  0.11408
  1.10892  2.16939  3.27563  2.90643  2.66635  2.32593  1.63311  1.04332
 -0.00101 -0.07278 -0.15248  0.39936  1.35477  2.58696  2.88424  2.91922
  2.69118  2.08752  1.30318  0.53921 -0.47040 -1.05688 -0.84349  0.07495
  1.13508  1.90971  1.60384  1.52061  1.19284  0.82628  0.49692  0.18749
  0.52653 -0.01117  0.01170  0.35019  0.99208  1.68051  1.85145  1.71415
  1.38754  0.91039  0.24804 -0.73699 -1.51069 -1.53963 -0.72203  0.43100
  1.18026  1.23810  0.97321  0.69525  0.29409 -0.04217 -0.12688 -0.18077
  0.41738  0.42830  0.25395  0.41670  0.84705  1.54378  1.90242  1.75429
  1.39459  0.87970 -0.19758 -1.19662 -1.65765 -1.41581 -0.57110  0.57555
  1.30161  1.37911  1.15311  0.73096  0.18428  0.11942  0.12025  0.23185
  0.51056  0.47767  0.30339  0.39748  0.84570  1.55327  2.29045  2.38960
  1.92281  1.05703  0.33844 -0.94589 -1.40734 -1.22267 -0.28396  0.91594
  1.42889  1.47580  1.35177  1.37396  0.53214  0.53898  0.61490  0.64450
 -0.24761 -0.32226 -0.19849 -0.08985  1.01997  1.40580  2.20658  2.50290
  1.91878  0.83859 -0.21275 -0.98048 -1.44651 -1.19821  0.00869  1.25483
  1.43243  1.66446  1.63593  0.87150  0.53192  0.38847  0.31803  0.05867
 -0.50737 -1.45363 -0.79190  0.11592  0.23743  1.27007  2.22830  3.43018
  2.03991  0.82982 -0.28204 -0.30716 -1.28098 -0.47386  0.89069  1.08272
  1.18900  1.30124  1.20693  0.90441  0.47681 -0.17330 -0.62574 -1.08723
 -1.62255 -1.96136 -0.83933 -0.65406  0.11828  1.42624  2.54120  2.90447
  2.24826  1.86505 -0.18930 -0.85728 -0.87693 -1.06001 -1.16287  0.46816
  0.39155  1.80618  1.14253  0.79781  0.04909 -0.40498 -1.27362 -1.36635
%FLAG CMAP_PARAMETER_11                                                         
%COMMENT  PRO CMAP                                                              
%FORMAT(8F9.5)                                                                  
 -8.75751 -8.70567 -8.71923 -8.06498 -8.34855 -8.65942 -8.61255 -8.96343
 -8.72425 -8.73027 -8.00206 -8.69021 -8.28693 -8.65324 -8.82302 -8.18448
 -8.41685 -8.80151 -8.70094 -8.53053 -8.75377 -8.86638 -8.50509 -8.01082
 -8.77187 -8.73940 -8.66261 -8.90677 -9.06924 -8.63887 -7.81451 -7.16341
 -6.60542 -6.52662 -7.17952 -8.03381 -8.63601 -8.94480 -8.81277 -8.63859
 -7.86472 -6.93540 -7.11378 -7.02275 -7.31467 -7.34586 -7.17799 -7.85620
 -5.22647 -5.15037 -4.98780 -5.13754 -5.33451 -4.82744 -4.20622 -3.41249
 -2.98580 -3.06940 -3.72285 -4.71405 -5.39928 -5.45522 -5.23830 -4.83426
 -4.84841 -4.83945 -5.01358 -5.08121 -5.29478 -5.39394 -5.42201 -5.34520
 -2.63528 -2.61531 -2.23133 -2.09728 -2.35032 -1.81055 -1.14610 -0.43015
 -0.11029 -0.43642 -1.29900 -2.37678 -3.06813 -3.08683 -2.85132 -2.46945
 -2.09194 -2.00829 -2.13200 -2.22585 -2.45757 -2.72426 -2.91306 -2.79826
 -1.30630 -0.97037 -0.67553 -0.48439 -0.47298  0.09744  0.90710  1.67856
  1.78869  1.18509  0.10465 -0.95429 -1.77557 -2.02642 -1.80129 -1.30282
 -0.60900 -0.54189 -0.52494 -0.62734 -0.87227 -1.16429 -1.40325 -1.32862
 -0.28838 -0.29286 -0.05545  0.01374  0.18833  0.88685  1.88110  2.72301
  2.64392  1.80976  0.76838 -0.23772 -1.30866 -1.56111 -1.05594 -0.63462
 -0.27956 -0.12432  0.08300  0.08848  0.02441 -0.23536 -0.52571 -0.43355
 -0.10107 -0.10925  0.17861  0.46874  0.78386  1.52792  2.37292  3.19523
  2.94448  2.13146  1.04356 -0.13873 -0.96321 -0.82059 -0.33322 -0.30669
 -0.07750  0.24509  0.61203  0.77546  0.60883  0.16196  0.03025 -0.05960
  0.54240  0.73424  1.21584  1.97663  2.86196  3.36571  3.09521  2.89786
  2.65306  1.94911  0.87427  0.10091  0.29512  0.69644  0.77609  0.93694
  1.20253  1.21190  1.23792  1.16370  0.89360  0.32899  0.02924  0.15816
  0.93117  1.89831  2.92739  3.90919  4.66028  4.79265  4.30774  3.45574
  2.67462  1.77740  1.02956  0.85500  1.12685  1.40005  1.65428  2.00981
  2.49411  2.77553  2.72653  2.29924  1.30209  0.28787  0.00000  0.23904
  1.71372  3.17069  4.47459  5.34819  5.66978  5.61442  4.66872  3.50429
  2.46608  1.90184  1.95424  1.90806  1.75946  1.84931  2.08092  2.58532
  3.47075  4.05526  4.07457  2.94449  1.37584  0.18263  0.14274  0.72321
  2.93154  4.65664  5.81638  5.77271  5.70953  5.47038  4.31047  3.14909
  2.37257  2.54260  2.89806  2.29096  1.86624  1.70493  2.04297  2.91863
  4.12444  5.04419  4.44552  2.74661  1.09914  0.24758  0.62132  1.60919
  4.28791  5.74420  5.79671  5.16803  5.05413  4.48695  3.37932  2.59405
  2.54381  3.52801  3.10085  2.02404  1.30444  1.50932  1.70696  3.20804
  4.77364  5.01717  3.51828  1.80915  0.72960  0.85032  1.61355  2.81248
  5.10022  5.11605  4.30598  3.92413  3.37917  2.64150  2.42733  2.53172
  3.38712  3.74798  2.16043  0.80717  1.21776  0.25145  1.73628  3.39163
  4.52876  3.45959  2.15509  1.19505  1.15898  1.90043  2.79231  3.88367
  4.45196  3.70029  2.61706  1.82299  1.19526  1.47132  2.04669  2.98560
  3.87614  2.64572  0.79215  1.29417  0.57185  0.44864  1.83164  3.09417
  2.59096  1.51855  0.91401  1.05809  1.68925  2.43878  3.18205  4.00826
  2.72163  1.41184  0.04207 -0.81206 -0.92504  0.08798  1.44907  2.62605
  2.40258  0.87505 -0.68969 -1.36527 -0.96444 -0.10768  0.99527  0.71308
 -0.24748 -0.63365 -0.44523  0.32710  0.80503  1.32881  2.15503  3.28238
 -0.80511 -2.39777 -3.83456 -4.33430 -3.48052 -1.75445 -0.19983  0.60207
  0.06551 -1.07531 -2.16209 -2.48329 -2.40715 -2.05247 -2.16609 -3.19586
 -3.38809 -3.09350 -2.19949 -1.30642 -0.63336  0.28617  1.31525  0.58937
 -5.49419 -6.90233 -7.85445 -7.71328 -6.35345 -4.49678 -3.09411 -2.51174
 -2.73237 -3.57215 -4.35013 -5.04409 -5.50375 -5.86022 -6.64301 -6.80004
 -6.39815 -5.56010 -4.50638 -3.48952 -2.65640 -2.09936 -2.59104 -3.94783
 -4.95323 -5.81966 -5.21125 -5.74444 -5.56540 -5.11652 -5.21104 -6.68459
 -6.75332 -7.34507 -8.14475 -9.01762 -9.61284 -8.18605 -8.21980 -9.51019
 -8.69486 -8.13634 -7.49936 -6.76770 -5.79355 -6.63124 -7.48945 -8.89257
 -8.90818 -8.48907 -8.42313 -8.89309 -8.14630 -8.36733 -8.05899 -8.97334
 -8.08182 -8.40152 -8.88712 -8.44094 -8.96945 -8.84838 -8.06274 -8.04221
 -8.38659 -8.26564 -8.16867 -8.07604 -8.18975 -8.58300 -8.97423 -8.27557
 -8.58467 -8.84753 -8.42340 -8.80513 -8.29742 -8.94947 -8.12015 -8.36778
 -7.35387 -7.32522 -7.79483 -7.29000 -7.55762 -7.16439 -7.06554 -7.93809
 -7.42050 -7.29676 -7.26130 -7.35832 -7.63448 -7.16499 -7.15108 -7.79839
 -7.17886 -7.19451 -7.53222 -7.90130 -7.37702 -7.15717 -7.90496 -7.29665
 -7.60628 -7.95815 -7.07987 -7.00555 -7.24586 -7.75344 -7.50631 -7.32424
 -6.60700 -6.05537 -6.57198 -6.36398 -6.84789 -6.00007 -6.26382 -6.37899
 -6.97565 -6.79895 -6.81045 -6.38845 -6.75665 -6.50745 -6.34555 -6.97905
 -6.70335 -6.63155 -6.02445 -6.00075 -6.42685 -6.08775 -6.30235 -6.08385
 -4.99155 -4.10475 -4.44005 -4.52855 -4.24195 -4.38705 -4.89415 -4.12825
  0.72785  0.44055  0.25525  0.57015  0.50715  0.31935  0.02685  0.77055
  2.06855  1.95315  2.33365  3.28115  3.15315  4.20805  4.71215  4.07005
  8.99895  8.18825  9.28555  8.47075  7.81095  7.54885  7.86895  8.54445
  8.57285  8.51105  8.06095  8.24775  8.25665  8.34635  8.39995  8.38805
  8.69225  8.43795  8.69725  8.90195  8.97545  8.99285  8.67585  8.52795
  8.32625  8.65405  8.95355  8.25755  8.60965  8.25845  8.46825  8.12375
%FLAG CMAP_INDEX                                                                
%FORMAT(6I8)                                                                    
       5       7       9      29      31      10
      29      31      33      45      47       5
      45      47      49      59      61       4
      59      61      63      76      78      10
      76      78      80     100     112       8
     102     127     129     135     137       2
     135     137     139     142     144       1
     142     144     146     161     169      10
     163     178     180     187     189       3
     187     189     191     211     213       8
     211     213     215     222     224       3
     222     224     226     229     231       1
     229     231     233     236     238       1
     236     238     240     252     254       5
     252     254     256     268     270       5
     268     270     272     290     292       9
     290     292     294     304     306       6
     304     306     308     318     320       6
     318     320     322     338     340      10
     338     340     342     354     356       5
     354     356     366     368     370      11
     368     370     372     382     384       4
     382     384     386     394     396       7
     394     396     398     410     412       5
     410     412     414     417     419       1
     417     419     429     431     433      11
     431     433     435     451     453      10
     451     453     455     461     463       2
     461     463     465     481     483      10
